;
;   File pamam_g4.5np_dglucose.itp  was generated
;   By user: sairam (1000)
;   On host: sairam
;   At date: Thu. January  4 16:04:43 2025
;
;   This is a standalone topology file
;
;   Created by:
;   ParmEd:       amb2gro_top_gro.py, VERSION 3.4.1
;   Executable:   amb2gro_top_gro.py
;   Library dir:  /usr/local/gromacs/share/gromacs/top
;   Command line:
;     ./amb2gro_top_gro.py -p pamam_g4.5np_dglucose.prmtop -c pamam_g4.5np_dglucose.inpcrd -t pamam_g4.5np_dglucose.itp -g pamam_g4.5np_dglucose.gro -b pamam_g4.5np_dglucose.pdb
;

;[ defaults ]
;; nbfunc        comb-rule       gen-pairs       fudgeLJ fudgeQQ
;1               2               yes             0.5          0.83333333  
;
;[ atomtypes ]
;; name    at.num    mass    charge ptype  sigma      epsilon
;c3             6  12.010000  0.00000000  A     0.33996695      0.4577296
;h1             1   1.008000  0.00000000  A      0.2471353      0.0656888
;n3             7  14.010000  0.00000000  A     0.32499985        0.71128
;hc             1   1.008000  0.00000000  A     0.26495328      0.0656888
;c              6  12.010000  0.00000000  A     0.33996695       0.359824
;o              8  16.000000  0.00000000  A     0.29599219        0.87864
;n              7  14.010000  0.00000000  A     0.32499985        0.71128
;hn             1   1.008000  0.00000000  A     0.10690785      0.0656888
;h2             1   1.008000  0.00000000  A     0.22931733      0.0656888
;oh             8  16.000000  0.00000000  A     0.30664734      0.8803136
;ho             1   1.008000  0.00000000  A              0              0
;os             8  16.000000  0.00000000  A     0.30000123        0.71128


[ moleculetype ]
; Name            nrexcl
pamam_g4.5np_dglucose          3

[ atoms ]
;   nr       type  resnr residue  atom   cgnr    charge       mass  typeB    chargeB      massB
; residue    1 aaa rtp aaa q -0.0
    1         c3      1    aaa     C1      1 0.02890000  12.010000   ; qtot 0.028900
    2         h1      1    aaa     H1      2 0.08460000   1.008000   ; qtot 0.113500
    3         h1      1    aaa     H2      3 0.08460000   1.008000   ; qtot 0.198100
    4         c3      1    aaa     C2      4 0.02890000  12.010000   ; qtot 0.227000
    5         h1      1    aaa     H3      5 0.08460000   1.008000   ; qtot 0.311600
    6         h1      1    aaa     H4      6 0.08460000   1.008000   ; qtot 0.396200
    7         n3      1    aaa     N1      7 -0.65770000  14.010000   ; qtot -0.261500
    8         n3      1    aaa     N2      8 -0.65770000  14.010000   ; qtot -0.919200
    9         c3      1    aaa     C3      9 0.36940000  12.010000   ; qtot -0.549800
   10         h1      1    aaa     H5     10 0.00650000   1.008000   ; qtot -0.543300
   11         h1      1    aaa     H6     11 0.00650000   1.008000   ; qtot -0.536800
   12         c3      1    aaa     C4     12 0.36940000  12.010000   ; qtot -0.167400
   13         h1      1    aaa     H7     13 0.00650000   1.008000   ; qtot -0.160900
   14         h1      1    aaa     H8     14 0.00650000   1.008000   ; qtot -0.154400
   15         c3      1    aaa     C5     15 0.36940000  12.010000   ; qtot 0.215000
   16         h1      1    aaa     H9     16 0.00650000   1.008000   ; qtot 0.221500
   17         h1      1    aaa    H10     17 0.00650000   1.008000   ; qtot 0.228000
   18         c3      1    aaa     C6     18 0.36940000  12.010000   ; qtot 0.597400
   19         h1      1    aaa    H11     19 0.00650000   1.008000   ; qtot 0.603900
   20         h1      1    aaa    H12     20 0.00650000   1.008000   ; qtot 0.610400
   21         c3      1    aaa     C7     21 -0.54350000  12.010000   ; qtot 0.066900
   22         hc      1    aaa    H13     22 0.15890000   1.008000   ; qtot 0.225800
   23         hc      1    aaa    H14     23 0.15890000   1.008000   ; qtot 0.384700
   24         c3      1    aaa     C8     24 -0.54350000  12.010000   ; qtot -0.158800
   25         hc      1    aaa    H15     25 0.15890000   1.008000   ; qtot 0.000100
   26         hc      1    aaa    H16     26 0.15890000   1.008000   ; qtot 0.159000
   27         c3      1    aaa     C9     27 -0.54350000  12.010000   ; qtot -0.384500
   28         hc      1    aaa    H17     28 0.15890000   1.008000   ; qtot -0.225600
   29         hc      1    aaa    H18     29 0.15890000   1.008000   ; qtot -0.066700
   30         c3      1    aaa    C10     30 -0.54350000  12.010000   ; qtot -0.610200
   31         hc      1    aaa    H19     31 0.15890000   1.008000   ; qtot -0.451300
   32         hc      1    aaa    H20     32 0.15890000   1.008000   ; qtot -0.292400
   33          c      1    aaa    C11     33 0.67800000  12.010000   ; qtot 0.385600
   34          c      1    aaa    C12     34 0.67800000  12.010000   ; qtot 1.063600
   35          c      1    aaa    C13     35 0.67800000  12.010000   ; qtot 1.741600
   36          c      1    aaa    C14     36 0.67800000  12.010000   ; qtot 2.419600
   37          o      1    aaa     O1     37 -0.60490000  16.000000   ; qtot 1.814700
   38          o      1    aaa     O2     38 -0.60490000  16.000000   ; qtot 1.209800
   39          o      1    aaa     O3     39 -0.60490000  16.000000   ; qtot 0.604900
   40          o      1    aaa     O4     40 -0.60490000  16.000000   ; qtot -0.000000
; residue    2 bbb rtp bbb q -0.0
   41         c3      2    bbb     C1     41 0.44180000  12.010000   ; qtot 0.441800
   42         h1      2    bbb     H1     42 -0.03530000   1.008000   ; qtot 0.406500
   43         h1      2    bbb     H2     43 -0.03530000   1.008000   ; qtot 0.371200
   44         c3      2    bbb     C2     44 -0.28250000  12.010000   ; qtot 0.088700
   45         h1      2    bbb     H3     45 0.15710000   1.008000   ; qtot 0.245800
   46         h1      2    bbb     H4     46 0.15710000   1.008000   ; qtot 0.402900
   47         n3      2    bbb     N1     47 -0.74090000  14.010000   ; qtot -0.338000
   48         c3      2    bbb     C3     48 0.51680000  12.010000   ; qtot 0.178800
   49         h1      2    bbb     H5     49 -0.05230000   1.008000   ; qtot 0.126500
   50         h1      2    bbb     H6     50 -0.05230000   1.008000   ; qtot 0.074200
   51         c3      2    bbb     C4     51 0.51680000  12.010000   ; qtot 0.591000
   52         h1      2    bbb     H7     52 -0.05230000   1.008000   ; qtot 0.538700
   53         h1      2    bbb     H8     53 -0.05230000   1.008000   ; qtot 0.486400
   54         c3      2    bbb     C5     54 -0.60390000  12.010000   ; qtot -0.117500
   55         hc      2    bbb     H9     55 0.16730000   1.008000   ; qtot 0.049800
   56         hc      2    bbb    H10     56 0.16730000   1.008000   ; qtot 0.217100
   57         c3      2    bbb     C6     57 -0.60390000  12.010000   ; qtot -0.386800
   58         hc      2    bbb    H11     58 0.16730000   1.008000   ; qtot -0.219500
   59         hc      2    bbb    H12     59 0.16730000   1.008000   ; qtot -0.052200
   60          c      2    bbb     C7     60 0.72110000  12.010000   ; qtot 0.668900
   61          c      2    bbb     C8     61 0.72110000  12.010000   ; qtot 1.390000
   62          o      2    bbb     O1     62 -0.61950000  16.000000   ; qtot 0.770500
   63          o      2    bbb     O2     63 -0.61950000  16.000000   ; qtot 0.151000
   64          n      2    bbb     N4     64 -0.46580000  14.010000   ; qtot -0.314800
   65         hn      2    bbb    H21     65 0.31480000   1.008000   ; qtot -0.000000
; residue    3 bbb rtp bbb q -0.0
   66         c3      3    bbb     C1     66 0.44180000  12.010000   ; qtot 0.441800
   67         h1      3    bbb     H1     67 -0.03530000   1.008000   ; qtot 0.406500
   68         h1      3    bbb     H2     68 -0.03530000   1.008000   ; qtot 0.371200
   69         c3      3    bbb     C2     69 -0.28250000  12.010000   ; qtot 0.088700
   70         h1      3    bbb     H3     70 0.15710000   1.008000   ; qtot 0.245800
   71         h1      3    bbb     H4     71 0.15710000   1.008000   ; qtot 0.402900
   72         n3      3    bbb     N1     72 -0.74090000  14.010000   ; qtot -0.338000
   73         c3      3    bbb     C3     73 0.51680000  12.010000   ; qtot 0.178800
   74         h1      3    bbb     H5     74 -0.05230000   1.008000   ; qtot 0.126500
   75         h1      3    bbb     H6     75 -0.05230000   1.008000   ; qtot 0.074200
   76         c3      3    bbb     C4     76 0.51680000  12.010000   ; qtot 0.591000
   77         h1      3    bbb     H7     77 -0.05230000   1.008000   ; qtot 0.538700
   78         h1      3    bbb     H8     78 -0.05230000   1.008000   ; qtot 0.486400
   79         c3      3    bbb     C5     79 -0.60390000  12.010000   ; qtot -0.117500
   80         hc      3    bbb     H9     80 0.16730000   1.008000   ; qtot 0.049800
   81         hc      3    bbb    H10     81 0.16730000   1.008000   ; qtot 0.217100
   82         c3      3    bbb     C6     82 -0.60390000  12.010000   ; qtot -0.386800
   83         hc      3    bbb    H11     83 0.16730000   1.008000   ; qtot -0.219500
   84         hc      3    bbb    H12     84 0.16730000   1.008000   ; qtot -0.052200
   85          c      3    bbb     C7     85 0.72110000  12.010000   ; qtot 0.668900
   86          c      3    bbb     C8     86 0.72110000  12.010000   ; qtot 1.390000
   87          o      3    bbb     O1     87 -0.61950000  16.000000   ; qtot 0.770500
   88          o      3    bbb     O2     88 -0.61950000  16.000000   ; qtot 0.151000
   89          n      3    bbb     N4     89 -0.46580000  14.010000   ; qtot -0.314800
   90         hn      3    bbb    H21     90 0.31480000   1.008000   ; qtot -0.000000
; residue    4 bbb rtp bbb q -0.0
   91         c3      4    bbb     C1     91 0.44180000  12.010000   ; qtot 0.441800
   92         h1      4    bbb     H1     92 -0.03530000   1.008000   ; qtot 0.406500
   93         h1      4    bbb     H2     93 -0.03530000   1.008000   ; qtot 0.371200
   94         c3      4    bbb     C2     94 -0.28250000  12.010000   ; qtot 0.088700
   95         h1      4    bbb     H3     95 0.15710000   1.008000   ; qtot 0.245800
   96         h1      4    bbb     H4     96 0.15710000   1.008000   ; qtot 0.402900
   97         n3      4    bbb     N1     97 -0.74090000  14.010000   ; qtot -0.338000
   98         c3      4    bbb     C3     98 0.51680000  12.010000   ; qtot 0.178800
   99         h1      4    bbb     H5     99 -0.05230000   1.008000   ; qtot 0.126500
  100         h1      4    bbb     H6    100 -0.05230000   1.008000   ; qtot 0.074200
  101         c3      4    bbb     C4    101 0.51680000  12.010000   ; qtot 0.591000
  102         h1      4    bbb     H7    102 -0.05230000   1.008000   ; qtot 0.538700
  103         h1      4    bbb     H8    103 -0.05230000   1.008000   ; qtot 0.486400
  104         c3      4    bbb     C5    104 -0.60390000  12.010000   ; qtot -0.117500
  105         hc      4    bbb     H9    105 0.16730000   1.008000   ; qtot 0.049800
  106         hc      4    bbb    H10    106 0.16730000   1.008000   ; qtot 0.217100
  107         c3      4    bbb     C6    107 -0.60390000  12.010000   ; qtot -0.386800
  108         hc      4    bbb    H11    108 0.16730000   1.008000   ; qtot -0.219500
  109         hc      4    bbb    H12    109 0.16730000   1.008000   ; qtot -0.052200
  110          c      4    bbb     C7    110 0.72110000  12.010000   ; qtot 0.668900
  111          c      4    bbb     C8    111 0.72110000  12.010000   ; qtot 1.390000
  112          o      4    bbb     O1    112 -0.61950000  16.000000   ; qtot 0.770500
  113          o      4    bbb     O2    113 -0.61950000  16.000000   ; qtot 0.151000
  114          n      4    bbb     N4    114 -0.46580000  14.010000   ; qtot -0.314800
  115         hn      4    bbb    H21    115 0.31480000   1.008000   ; qtot -0.000000
; residue    5 bbb rtp bbb q -0.0
  116         c3      5    bbb     C1    116 0.44180000  12.010000   ; qtot 0.441800
  117         h1      5    bbb     H1    117 -0.03530000   1.008000   ; qtot 0.406500
  118         h1      5    bbb     H2    118 -0.03530000   1.008000   ; qtot 0.371200
  119         c3      5    bbb     C2    119 -0.28250000  12.010000   ; qtot 0.088700
  120         h1      5    bbb     H3    120 0.15710000   1.008000   ; qtot 0.245800
  121         h1      5    bbb     H4    121 0.15710000   1.008000   ; qtot 0.402900
  122         n3      5    bbb     N1    122 -0.74090000  14.010000   ; qtot -0.338000
  123         c3      5    bbb     C3    123 0.51680000  12.010000   ; qtot 0.178800
  124         h1      5    bbb     H5    124 -0.05230000   1.008000   ; qtot 0.126500
  125         h1      5    bbb     H6    125 -0.05230000   1.008000   ; qtot 0.074200
  126         c3      5    bbb     C4    126 0.51680000  12.010000   ; qtot 0.591000
  127         h1      5    bbb     H7    127 -0.05230000   1.008000   ; qtot 0.538700
  128         h1      5    bbb     H8    128 -0.05230000   1.008000   ; qtot 0.486400
  129         c3      5    bbb     C5    129 -0.60390000  12.010000   ; qtot -0.117500
  130         hc      5    bbb     H9    130 0.16730000   1.008000   ; qtot 0.049800
  131         hc      5    bbb    H10    131 0.16730000   1.008000   ; qtot 0.217100
  132         c3      5    bbb     C6    132 -0.60390000  12.010000   ; qtot -0.386800
  133         hc      5    bbb    H11    133 0.16730000   1.008000   ; qtot -0.219500
  134         hc      5    bbb    H12    134 0.16730000   1.008000   ; qtot -0.052200
  135          c      5    bbb     C7    135 0.72110000  12.010000   ; qtot 0.668900
  136          c      5    bbb     C8    136 0.72110000  12.010000   ; qtot 1.390000
  137          o      5    bbb     O1    137 -0.61950000  16.000000   ; qtot 0.770500
  138          o      5    bbb     O2    138 -0.61950000  16.000000   ; qtot 0.151000
  139          n      5    bbb     N4    139 -0.46580000  14.010000   ; qtot -0.314800
  140         hn      5    bbb    H21    140 0.31480000   1.008000   ; qtot -0.000000
; residue    6 bbb rtp bbb q -0.0
  141         c3      6    bbb     C1    141 0.44180000  12.010000   ; qtot 0.441800
  142         h1      6    bbb     H1    142 -0.03530000   1.008000   ; qtot 0.406500
  143         h1      6    bbb     H2    143 -0.03530000   1.008000   ; qtot 0.371200
  144         c3      6    bbb     C2    144 -0.28250000  12.010000   ; qtot 0.088700
  145         h1      6    bbb     H3    145 0.15710000   1.008000   ; qtot 0.245800
  146         h1      6    bbb     H4    146 0.15710000   1.008000   ; qtot 0.402900
  147         n3      6    bbb     N1    147 -0.74090000  14.010000   ; qtot -0.338000
  148         c3      6    bbb     C3    148 0.51680000  12.010000   ; qtot 0.178800
  149         h1      6    bbb     H5    149 -0.05230000   1.008000   ; qtot 0.126500
  150         h1      6    bbb     H6    150 -0.05230000   1.008000   ; qtot 0.074200
  151         c3      6    bbb     C4    151 0.51680000  12.010000   ; qtot 0.591000
  152         h1      6    bbb     H7    152 -0.05230000   1.008000   ; qtot 0.538700
  153         h1      6    bbb     H8    153 -0.05230000   1.008000   ; qtot 0.486400
  154         c3      6    bbb     C5    154 -0.60390000  12.010000   ; qtot -0.117500
  155         hc      6    bbb     H9    155 0.16730000   1.008000   ; qtot 0.049800
  156         hc      6    bbb    H10    156 0.16730000   1.008000   ; qtot 0.217100
  157         c3      6    bbb     C6    157 -0.60390000  12.010000   ; qtot -0.386800
  158         hc      6    bbb    H11    158 0.16730000   1.008000   ; qtot -0.219500
  159         hc      6    bbb    H12    159 0.16730000   1.008000   ; qtot -0.052200
  160          c      6    bbb     C7    160 0.72110000  12.010000   ; qtot 0.668900
  161          c      6    bbb     C8    161 0.72110000  12.010000   ; qtot 1.390000
  162          o      6    bbb     O1    162 -0.61950000  16.000000   ; qtot 0.770500
  163          o      6    bbb     O2    163 -0.61950000  16.000000   ; qtot 0.151000
  164          n      6    bbb     N4    164 -0.46580000  14.010000   ; qtot -0.314800
  165         hn      6    bbb    H21    165 0.31480000   1.008000   ; qtot -0.000000
; residue    7 bbb rtp bbb q -0.0
  166         c3      7    bbb     C1    166 0.44180000  12.010000   ; qtot 0.441800
  167         h1      7    bbb     H1    167 -0.03530000   1.008000   ; qtot 0.406500
  168         h1      7    bbb     H2    168 -0.03530000   1.008000   ; qtot 0.371200
  169         c3      7    bbb     C2    169 -0.28250000  12.010000   ; qtot 0.088700
  170         h1      7    bbb     H3    170 0.15710000   1.008000   ; qtot 0.245800
  171         h1      7    bbb     H4    171 0.15710000   1.008000   ; qtot 0.402900
  172         n3      7    bbb     N1    172 -0.74090000  14.010000   ; qtot -0.338000
  173         c3      7    bbb     C3    173 0.51680000  12.010000   ; qtot 0.178800
  174         h1      7    bbb     H5    174 -0.05230000   1.008000   ; qtot 0.126500
  175         h1      7    bbb     H6    175 -0.05230000   1.008000   ; qtot 0.074200
  176         c3      7    bbb     C4    176 0.51680000  12.010000   ; qtot 0.591000
  177         h1      7    bbb     H7    177 -0.05230000   1.008000   ; qtot 0.538700
  178         h1      7    bbb     H8    178 -0.05230000   1.008000   ; qtot 0.486400
  179         c3      7    bbb     C5    179 -0.60390000  12.010000   ; qtot -0.117500
  180         hc      7    bbb     H9    180 0.16730000   1.008000   ; qtot 0.049800
  181         hc      7    bbb    H10    181 0.16730000   1.008000   ; qtot 0.217100
  182         c3      7    bbb     C6    182 -0.60390000  12.010000   ; qtot -0.386800
  183         hc      7    bbb    H11    183 0.16730000   1.008000   ; qtot -0.219500
  184         hc      7    bbb    H12    184 0.16730000   1.008000   ; qtot -0.052200
  185          c      7    bbb     C7    185 0.72110000  12.010000   ; qtot 0.668900
  186          c      7    bbb     C8    186 0.72110000  12.010000   ; qtot 1.390000
  187          o      7    bbb     O1    187 -0.61950000  16.000000   ; qtot 0.770500
  188          o      7    bbb     O2    188 -0.61950000  16.000000   ; qtot 0.151000
  189          n      7    bbb     N4    189 -0.46580000  14.010000   ; qtot -0.314800
  190         hn      7    bbb    H21    190 0.31480000   1.008000   ; qtot -0.000000
; residue    8 bbb rtp bbb q -0.0
  191         c3      8    bbb     C1    191 0.44180000  12.010000   ; qtot 0.441800
  192         h1      8    bbb     H1    192 -0.03530000   1.008000   ; qtot 0.406500
  193         h1      8    bbb     H2    193 -0.03530000   1.008000   ; qtot 0.371200
  194         c3      8    bbb     C2    194 -0.28250000  12.010000   ; qtot 0.088700
  195         h1      8    bbb     H3    195 0.15710000   1.008000   ; qtot 0.245800
  196         h1      8    bbb     H4    196 0.15710000   1.008000   ; qtot 0.402900
  197         n3      8    bbb     N1    197 -0.74090000  14.010000   ; qtot -0.338000
  198         c3      8    bbb     C3    198 0.51680000  12.010000   ; qtot 0.178800
  199         h1      8    bbb     H5    199 -0.05230000   1.008000   ; qtot 0.126500
  200         h1      8    bbb     H6    200 -0.05230000   1.008000   ; qtot 0.074200
  201         c3      8    bbb     C4    201 0.51680000  12.010000   ; qtot 0.591000
  202         h1      8    bbb     H7    202 -0.05230000   1.008000   ; qtot 0.538700
  203         h1      8    bbb     H8    203 -0.05230000   1.008000   ; qtot 0.486400
  204         c3      8    bbb     C5    204 -0.60390000  12.010000   ; qtot -0.117500
  205         hc      8    bbb     H9    205 0.16730000   1.008000   ; qtot 0.049800
  206         hc      8    bbb    H10    206 0.16730000   1.008000   ; qtot 0.217100
  207         c3      8    bbb     C6    207 -0.60390000  12.010000   ; qtot -0.386800
  208         hc      8    bbb    H11    208 0.16730000   1.008000   ; qtot -0.219500
  209         hc      8    bbb    H12    209 0.16730000   1.008000   ; qtot -0.052200
  210          c      8    bbb     C7    210 0.72110000  12.010000   ; qtot 0.668900
  211          c      8    bbb     C8    211 0.72110000  12.010000   ; qtot 1.390000
  212          o      8    bbb     O1    212 -0.61950000  16.000000   ; qtot 0.770500
  213          o      8    bbb     O2    213 -0.61950000  16.000000   ; qtot 0.151000
  214          n      8    bbb     N4    214 -0.46580000  14.010000   ; qtot -0.314800
  215         hn      8    bbb    H21    215 0.31480000   1.008000   ; qtot -0.000000
; residue    9 bbb rtp bbb q -0.0
  216         c3      9    bbb     C1    216 0.44180000  12.010000   ; qtot 0.441800
  217         h1      9    bbb     H1    217 -0.03530000   1.008000   ; qtot 0.406500
  218         h1      9    bbb     H2    218 -0.03530000   1.008000   ; qtot 0.371200
  219         c3      9    bbb     C2    219 -0.28250000  12.010000   ; qtot 0.088700
  220         h1      9    bbb     H3    220 0.15710000   1.008000   ; qtot 0.245800
  221         h1      9    bbb     H4    221 0.15710000   1.008000   ; qtot 0.402900
  222         n3      9    bbb     N1    222 -0.74090000  14.010000   ; qtot -0.338000
  223         c3      9    bbb     C3    223 0.51680000  12.010000   ; qtot 0.178800
  224         h1      9    bbb     H5    224 -0.05230000   1.008000   ; qtot 0.126500
  225         h1      9    bbb     H6    225 -0.05230000   1.008000   ; qtot 0.074200
  226         c3      9    bbb     C4    226 0.51680000  12.010000   ; qtot 0.591000
  227         h1      9    bbb     H7    227 -0.05230000   1.008000   ; qtot 0.538700
  228         h1      9    bbb     H8    228 -0.05230000   1.008000   ; qtot 0.486400
  229         c3      9    bbb     C5    229 -0.60390000  12.010000   ; qtot -0.117500
  230         hc      9    bbb     H9    230 0.16730000   1.008000   ; qtot 0.049800
  231         hc      9    bbb    H10    231 0.16730000   1.008000   ; qtot 0.217100
  232         c3      9    bbb     C6    232 -0.60390000  12.010000   ; qtot -0.386800
  233         hc      9    bbb    H11    233 0.16730000   1.008000   ; qtot -0.219500
  234         hc      9    bbb    H12    234 0.16730000   1.008000   ; qtot -0.052200
  235          c      9    bbb     C7    235 0.72110000  12.010000   ; qtot 0.668900
  236          c      9    bbb     C8    236 0.72110000  12.010000   ; qtot 1.390000
  237          o      9    bbb     O1    237 -0.61950000  16.000000   ; qtot 0.770500
  238          o      9    bbb     O2    238 -0.61950000  16.000000   ; qtot 0.151000
  239          n      9    bbb     N4    239 -0.46580000  14.010000   ; qtot -0.314800
  240         hn      9    bbb    H21    240 0.31480000   1.008000   ; qtot -0.000000
; residue   10 bbb rtp bbb q -0.0
  241         c3     10    bbb     C1    241 0.44180000  12.010000   ; qtot 0.441800
  242         h1     10    bbb     H1    242 -0.03530000   1.008000   ; qtot 0.406500
  243         h1     10    bbb     H2    243 -0.03530000   1.008000   ; qtot 0.371200
  244         c3     10    bbb     C2    244 -0.28250000  12.010000   ; qtot 0.088700
  245         h1     10    bbb     H3    245 0.15710000   1.008000   ; qtot 0.245800
  246         h1     10    bbb     H4    246 0.15710000   1.008000   ; qtot 0.402900
  247         n3     10    bbb     N1    247 -0.74090000  14.010000   ; qtot -0.338000
  248         c3     10    bbb     C3    248 0.51680000  12.010000   ; qtot 0.178800
  249         h1     10    bbb     H5    249 -0.05230000   1.008000   ; qtot 0.126500
  250         h1     10    bbb     H6    250 -0.05230000   1.008000   ; qtot 0.074200
  251         c3     10    bbb     C4    251 0.51680000  12.010000   ; qtot 0.591000
  252         h1     10    bbb     H7    252 -0.05230000   1.008000   ; qtot 0.538700
  253         h1     10    bbb     H8    253 -0.05230000   1.008000   ; qtot 0.486400
  254         c3     10    bbb     C5    254 -0.60390000  12.010000   ; qtot -0.117500
  255         hc     10    bbb     H9    255 0.16730000   1.008000   ; qtot 0.049800
  256         hc     10    bbb    H10    256 0.16730000   1.008000   ; qtot 0.217100
  257         c3     10    bbb     C6    257 -0.60390000  12.010000   ; qtot -0.386800
  258         hc     10    bbb    H11    258 0.16730000   1.008000   ; qtot -0.219500
  259         hc     10    bbb    H12    259 0.16730000   1.008000   ; qtot -0.052200
  260          c     10    bbb     C7    260 0.72110000  12.010000   ; qtot 0.668900
  261          c     10    bbb     C8    261 0.72110000  12.010000   ; qtot 1.390000
  262          o     10    bbb     O1    262 -0.61950000  16.000000   ; qtot 0.770500
  263          o     10    bbb     O2    263 -0.61950000  16.000000   ; qtot 0.151000
  264          n     10    bbb     N4    264 -0.46580000  14.010000   ; qtot -0.314800
  265         hn     10    bbb    H21    265 0.31480000   1.008000   ; qtot -0.000000
; residue   11 bbb rtp bbb q -0.0
  266         c3     11    bbb     C1    266 0.44180000  12.010000   ; qtot 0.441800
  267         h1     11    bbb     H1    267 -0.03530000   1.008000   ; qtot 0.406500
  268         h1     11    bbb     H2    268 -0.03530000   1.008000   ; qtot 0.371200
  269         c3     11    bbb     C2    269 -0.28250000  12.010000   ; qtot 0.088700
  270         h1     11    bbb     H3    270 0.15710000   1.008000   ; qtot 0.245800
  271         h1     11    bbb     H4    271 0.15710000   1.008000   ; qtot 0.402900
  272         n3     11    bbb     N1    272 -0.74090000  14.010000   ; qtot -0.338000
  273         c3     11    bbb     C3    273 0.51680000  12.010000   ; qtot 0.178800
  274         h1     11    bbb     H5    274 -0.05230000   1.008000   ; qtot 0.126500
  275         h1     11    bbb     H6    275 -0.05230000   1.008000   ; qtot 0.074200
  276         c3     11    bbb     C4    276 0.51680000  12.010000   ; qtot 0.591000
  277         h1     11    bbb     H7    277 -0.05230000   1.008000   ; qtot 0.538700
  278         h1     11    bbb     H8    278 -0.05230000   1.008000   ; qtot 0.486400
  279         c3     11    bbb     C5    279 -0.60390000  12.010000   ; qtot -0.117500
  280         hc     11    bbb     H9    280 0.16730000   1.008000   ; qtot 0.049800
  281         hc     11    bbb    H10    281 0.16730000   1.008000   ; qtot 0.217100
  282         c3     11    bbb     C6    282 -0.60390000  12.010000   ; qtot -0.386800
  283         hc     11    bbb    H11    283 0.16730000   1.008000   ; qtot -0.219500
  284         hc     11    bbb    H12    284 0.16730000   1.008000   ; qtot -0.052200
  285          c     11    bbb     C7    285 0.72110000  12.010000   ; qtot 0.668900
  286          c     11    bbb     C8    286 0.72110000  12.010000   ; qtot 1.390000
  287          o     11    bbb     O1    287 -0.61950000  16.000000   ; qtot 0.770500
  288          o     11    bbb     O2    288 -0.61950000  16.000000   ; qtot 0.151000
  289          n     11    bbb     N4    289 -0.46580000  14.010000   ; qtot -0.314800
  290         hn     11    bbb    H21    290 0.31480000   1.008000   ; qtot -0.000000
; residue   12 bbb rtp bbb q -0.0
  291         c3     12    bbb     C1    291 0.44180000  12.010000   ; qtot 0.441800
  292         h1     12    bbb     H1    292 -0.03530000   1.008000   ; qtot 0.406500
  293         h1     12    bbb     H2    293 -0.03530000   1.008000   ; qtot 0.371200
  294         c3     12    bbb     C2    294 -0.28250000  12.010000   ; qtot 0.088700
  295         h1     12    bbb     H3    295 0.15710000   1.008000   ; qtot 0.245800
  296         h1     12    bbb     H4    296 0.15710000   1.008000   ; qtot 0.402900
  297         n3     12    bbb     N1    297 -0.74090000  14.010000   ; qtot -0.338000
  298         c3     12    bbb     C3    298 0.51680000  12.010000   ; qtot 0.178800
  299         h1     12    bbb     H5    299 -0.05230000   1.008000   ; qtot 0.126500
  300         h1     12    bbb     H6    300 -0.05230000   1.008000   ; qtot 0.074200
  301         c3     12    bbb     C4    301 0.51680000  12.010000   ; qtot 0.591000
  302         h1     12    bbb     H7    302 -0.05230000   1.008000   ; qtot 0.538700
  303         h1     12    bbb     H8    303 -0.05230000   1.008000   ; qtot 0.486400
  304         c3     12    bbb     C5    304 -0.60390000  12.010000   ; qtot -0.117500
  305         hc     12    bbb     H9    305 0.16730000   1.008000   ; qtot 0.049800
  306         hc     12    bbb    H10    306 0.16730000   1.008000   ; qtot 0.217100
  307         c3     12    bbb     C6    307 -0.60390000  12.010000   ; qtot -0.386800
  308         hc     12    bbb    H11    308 0.16730000   1.008000   ; qtot -0.219500
  309         hc     12    bbb    H12    309 0.16730000   1.008000   ; qtot -0.052200
  310          c     12    bbb     C7    310 0.72110000  12.010000   ; qtot 0.668900
  311          c     12    bbb     C8    311 0.72110000  12.010000   ; qtot 1.390000
  312          o     12    bbb     O1    312 -0.61950000  16.000000   ; qtot 0.770500
  313          o     12    bbb     O2    313 -0.61950000  16.000000   ; qtot 0.151000
  314          n     12    bbb     N4    314 -0.46580000  14.010000   ; qtot -0.314800
  315         hn     12    bbb    H21    315 0.31480000   1.008000   ; qtot -0.000000
; residue   13 bbb rtp bbb q -0.0
  316         c3     13    bbb     C1    316 0.44180000  12.010000   ; qtot 0.441800
  317         h1     13    bbb     H1    317 -0.03530000   1.008000   ; qtot 0.406500
  318         h1     13    bbb     H2    318 -0.03530000   1.008000   ; qtot 0.371200
  319         c3     13    bbb     C2    319 -0.28250000  12.010000   ; qtot 0.088700
  320         h1     13    bbb     H3    320 0.15710000   1.008000   ; qtot 0.245800
  321         h1     13    bbb     H4    321 0.15710000   1.008000   ; qtot 0.402900
  322         n3     13    bbb     N1    322 -0.74090000  14.010000   ; qtot -0.338000
  323         c3     13    bbb     C3    323 0.51680000  12.010000   ; qtot 0.178800
  324         h1     13    bbb     H5    324 -0.05230000   1.008000   ; qtot 0.126500
  325         h1     13    bbb     H6    325 -0.05230000   1.008000   ; qtot 0.074200
  326         c3     13    bbb     C4    326 0.51680000  12.010000   ; qtot 0.591000
  327         h1     13    bbb     H7    327 -0.05230000   1.008000   ; qtot 0.538700
  328         h1     13    bbb     H8    328 -0.05230000   1.008000   ; qtot 0.486400
  329         c3     13    bbb     C5    329 -0.60390000  12.010000   ; qtot -0.117500
  330         hc     13    bbb     H9    330 0.16730000   1.008000   ; qtot 0.049800
  331         hc     13    bbb    H10    331 0.16730000   1.008000   ; qtot 0.217100
  332         c3     13    bbb     C6    332 -0.60390000  12.010000   ; qtot -0.386800
  333         hc     13    bbb    H11    333 0.16730000   1.008000   ; qtot -0.219500
  334         hc     13    bbb    H12    334 0.16730000   1.008000   ; qtot -0.052200
  335          c     13    bbb     C7    335 0.72110000  12.010000   ; qtot 0.668900
  336          c     13    bbb     C8    336 0.72110000  12.010000   ; qtot 1.390000
  337          o     13    bbb     O1    337 -0.61950000  16.000000   ; qtot 0.770500
  338          o     13    bbb     O2    338 -0.61950000  16.000000   ; qtot 0.151000
  339          n     13    bbb     N4    339 -0.46580000  14.010000   ; qtot -0.314800
  340         hn     13    bbb    H21    340 0.31480000   1.008000   ; qtot -0.000000
; residue   14 bbb rtp bbb q -0.0
  341         c3     14    bbb     C1    341 0.44180000  12.010000   ; qtot 0.441800
  342         h1     14    bbb     H1    342 -0.03530000   1.008000   ; qtot 0.406500
  343         h1     14    bbb     H2    343 -0.03530000   1.008000   ; qtot 0.371200
  344         c3     14    bbb     C2    344 -0.28250000  12.010000   ; qtot 0.088700
  345         h1     14    bbb     H3    345 0.15710000   1.008000   ; qtot 0.245800
  346         h1     14    bbb     H4    346 0.15710000   1.008000   ; qtot 0.402900
  347         n3     14    bbb     N1    347 -0.74090000  14.010000   ; qtot -0.338000
  348         c3     14    bbb     C3    348 0.51680000  12.010000   ; qtot 0.178800
  349         h1     14    bbb     H5    349 -0.05230000   1.008000   ; qtot 0.126500
  350         h1     14    bbb     H6    350 -0.05230000   1.008000   ; qtot 0.074200
  351         c3     14    bbb     C4    351 0.51680000  12.010000   ; qtot 0.591000
  352         h1     14    bbb     H7    352 -0.05230000   1.008000   ; qtot 0.538700
  353         h1     14    bbb     H8    353 -0.05230000   1.008000   ; qtot 0.486400
  354         c3     14    bbb     C5    354 -0.60390000  12.010000   ; qtot -0.117500
  355         hc     14    bbb     H9    355 0.16730000   1.008000   ; qtot 0.049800
  356         hc     14    bbb    H10    356 0.16730000   1.008000   ; qtot 0.217100
  357         c3     14    bbb     C6    357 -0.60390000  12.010000   ; qtot -0.386800
  358         hc     14    bbb    H11    358 0.16730000   1.008000   ; qtot -0.219500
  359         hc     14    bbb    H12    359 0.16730000   1.008000   ; qtot -0.052200
  360          c     14    bbb     C7    360 0.72110000  12.010000   ; qtot 0.668900
  361          c     14    bbb     C8    361 0.72110000  12.010000   ; qtot 1.390000
  362          o     14    bbb     O1    362 -0.61950000  16.000000   ; qtot 0.770500
  363          o     14    bbb     O2    363 -0.61950000  16.000000   ; qtot 0.151000
  364          n     14    bbb     N4    364 -0.46580000  14.010000   ; qtot -0.314800
  365         hn     14    bbb    H21    365 0.31480000   1.008000   ; qtot -0.000000
; residue   15 bbb rtp bbb q -0.0
  366         c3     15    bbb     C1    366 0.44180000  12.010000   ; qtot 0.441800
  367         h1     15    bbb     H1    367 -0.03530000   1.008000   ; qtot 0.406500
  368         h1     15    bbb     H2    368 -0.03530000   1.008000   ; qtot 0.371200
  369         c3     15    bbb     C2    369 -0.28250000  12.010000   ; qtot 0.088700
  370         h1     15    bbb     H3    370 0.15710000   1.008000   ; qtot 0.245800
  371         h1     15    bbb     H4    371 0.15710000   1.008000   ; qtot 0.402900
  372         n3     15    bbb     N1    372 -0.74090000  14.010000   ; qtot -0.338000
  373         c3     15    bbb     C3    373 0.51680000  12.010000   ; qtot 0.178800
  374         h1     15    bbb     H5    374 -0.05230000   1.008000   ; qtot 0.126500
  375         h1     15    bbb     H6    375 -0.05230000   1.008000   ; qtot 0.074200
  376         c3     15    bbb     C4    376 0.51680000  12.010000   ; qtot 0.591000
  377         h1     15    bbb     H7    377 -0.05230000   1.008000   ; qtot 0.538700
  378         h1     15    bbb     H8    378 -0.05230000   1.008000   ; qtot 0.486400
  379         c3     15    bbb     C5    379 -0.60390000  12.010000   ; qtot -0.117500
  380         hc     15    bbb     H9    380 0.16730000   1.008000   ; qtot 0.049800
  381         hc     15    bbb    H10    381 0.16730000   1.008000   ; qtot 0.217100
  382         c3     15    bbb     C6    382 -0.60390000  12.010000   ; qtot -0.386800
  383         hc     15    bbb    H11    383 0.16730000   1.008000   ; qtot -0.219500
  384         hc     15    bbb    H12    384 0.16730000   1.008000   ; qtot -0.052200
  385          c     15    bbb     C7    385 0.72110000  12.010000   ; qtot 0.668900
  386          c     15    bbb     C8    386 0.72110000  12.010000   ; qtot 1.390000
  387          o     15    bbb     O1    387 -0.61950000  16.000000   ; qtot 0.770500
  388          o     15    bbb     O2    388 -0.61950000  16.000000   ; qtot 0.151000
  389          n     15    bbb     N4    389 -0.46580000  14.010000   ; qtot -0.314800
  390         hn     15    bbb    H21    390 0.31480000   1.008000   ; qtot -0.000000
; residue   16 bbb rtp bbb q -0.0
  391         c3     16    bbb     C1    391 0.44180000  12.010000   ; qtot 0.441800
  392         h1     16    bbb     H1    392 -0.03530000   1.008000   ; qtot 0.406500
  393         h1     16    bbb     H2    393 -0.03530000   1.008000   ; qtot 0.371200
  394         c3     16    bbb     C2    394 -0.28250000  12.010000   ; qtot 0.088700
  395         h1     16    bbb     H3    395 0.15710000   1.008000   ; qtot 0.245800
  396         h1     16    bbb     H4    396 0.15710000   1.008000   ; qtot 0.402900
  397         n3     16    bbb     N1    397 -0.74090000  14.010000   ; qtot -0.338000
  398         c3     16    bbb     C3    398 0.51680000  12.010000   ; qtot 0.178800
  399         h1     16    bbb     H5    399 -0.05230000   1.008000   ; qtot 0.126500
  400         h1     16    bbb     H6    400 -0.05230000   1.008000   ; qtot 0.074200
  401         c3     16    bbb     C4    401 0.51680000  12.010000   ; qtot 0.591000
  402         h1     16    bbb     H7    402 -0.05230000   1.008000   ; qtot 0.538700
  403         h1     16    bbb     H8    403 -0.05230000   1.008000   ; qtot 0.486400
  404         c3     16    bbb     C5    404 -0.60390000  12.010000   ; qtot -0.117500
  405         hc     16    bbb     H9    405 0.16730000   1.008000   ; qtot 0.049800
  406         hc     16    bbb    H10    406 0.16730000   1.008000   ; qtot 0.217100
  407         c3     16    bbb     C6    407 -0.60390000  12.010000   ; qtot -0.386800
  408         hc     16    bbb    H11    408 0.16730000   1.008000   ; qtot -0.219500
  409         hc     16    bbb    H12    409 0.16730000   1.008000   ; qtot -0.052200
  410          c     16    bbb     C7    410 0.72110000  12.010000   ; qtot 0.668900
  411          c     16    bbb     C8    411 0.72110000  12.010000   ; qtot 1.390000
  412          o     16    bbb     O1    412 -0.61950000  16.000000   ; qtot 0.770500
  413          o     16    bbb     O2    413 -0.61950000  16.000000   ; qtot 0.151000
  414          n     16    bbb     N4    414 -0.46580000  14.010000   ; qtot -0.314800
  415         hn     16    bbb    H21    415 0.31480000   1.008000   ; qtot -0.000000
; residue   17 bbb rtp bbb q -0.0
  416         c3     17    bbb     C1    416 0.44180000  12.010000   ; qtot 0.441800
  417         h1     17    bbb     H1    417 -0.03530000   1.008000   ; qtot 0.406500
  418         h1     17    bbb     H2    418 -0.03530000   1.008000   ; qtot 0.371200
  419         c3     17    bbb     C2    419 -0.28250000  12.010000   ; qtot 0.088700
  420         h1     17    bbb     H3    420 0.15710000   1.008000   ; qtot 0.245800
  421         h1     17    bbb     H4    421 0.15710000   1.008000   ; qtot 0.402900
  422         n3     17    bbb     N1    422 -0.74090000  14.010000   ; qtot -0.338000
  423         c3     17    bbb     C3    423 0.51680000  12.010000   ; qtot 0.178800
  424         h1     17    bbb     H5    424 -0.05230000   1.008000   ; qtot 0.126500
  425         h1     17    bbb     H6    425 -0.05230000   1.008000   ; qtot 0.074200
  426         c3     17    bbb     C4    426 0.51680000  12.010000   ; qtot 0.591000
  427         h1     17    bbb     H7    427 -0.05230000   1.008000   ; qtot 0.538700
  428         h1     17    bbb     H8    428 -0.05230000   1.008000   ; qtot 0.486400
  429         c3     17    bbb     C5    429 -0.60390000  12.010000   ; qtot -0.117500
  430         hc     17    bbb     H9    430 0.16730000   1.008000   ; qtot 0.049800
  431         hc     17    bbb    H10    431 0.16730000   1.008000   ; qtot 0.217100
  432         c3     17    bbb     C6    432 -0.60390000  12.010000   ; qtot -0.386800
  433         hc     17    bbb    H11    433 0.16730000   1.008000   ; qtot -0.219500
  434         hc     17    bbb    H12    434 0.16730000   1.008000   ; qtot -0.052200
  435          c     17    bbb     C7    435 0.72110000  12.010000   ; qtot 0.668900
  436          c     17    bbb     C8    436 0.72110000  12.010000   ; qtot 1.390000
  437          o     17    bbb     O1    437 -0.61950000  16.000000   ; qtot 0.770500
  438          o     17    bbb     O2    438 -0.61950000  16.000000   ; qtot 0.151000
  439          n     17    bbb     N4    439 -0.46580000  14.010000   ; qtot -0.314800
  440         hn     17    bbb    H21    440 0.31480000   1.008000   ; qtot -0.000000
; residue   18 bbb rtp bbb q -0.0
  441         c3     18    bbb     C1    441 0.44180000  12.010000   ; qtot 0.441800
  442         h1     18    bbb     H1    442 -0.03530000   1.008000   ; qtot 0.406500
  443         h1     18    bbb     H2    443 -0.03530000   1.008000   ; qtot 0.371200
  444         c3     18    bbb     C2    444 -0.28250000  12.010000   ; qtot 0.088700
  445         h1     18    bbb     H3    445 0.15710000   1.008000   ; qtot 0.245800
  446         h1     18    bbb     H4    446 0.15710000   1.008000   ; qtot 0.402900
  447         n3     18    bbb     N1    447 -0.74090000  14.010000   ; qtot -0.338000
  448         c3     18    bbb     C3    448 0.51680000  12.010000   ; qtot 0.178800
  449         h1     18    bbb     H5    449 -0.05230000   1.008000   ; qtot 0.126500
  450         h1     18    bbb     H6    450 -0.05230000   1.008000   ; qtot 0.074200
  451         c3     18    bbb     C4    451 0.51680000  12.010000   ; qtot 0.591000
  452         h1     18    bbb     H7    452 -0.05230000   1.008000   ; qtot 0.538700
  453         h1     18    bbb     H8    453 -0.05230000   1.008000   ; qtot 0.486400
  454         c3     18    bbb     C5    454 -0.60390000  12.010000   ; qtot -0.117500
  455         hc     18    bbb     H9    455 0.16730000   1.008000   ; qtot 0.049800
  456         hc     18    bbb    H10    456 0.16730000   1.008000   ; qtot 0.217100
  457         c3     18    bbb     C6    457 -0.60390000  12.010000   ; qtot -0.386800
  458         hc     18    bbb    H11    458 0.16730000   1.008000   ; qtot -0.219500
  459         hc     18    bbb    H12    459 0.16730000   1.008000   ; qtot -0.052200
  460          c     18    bbb     C7    460 0.72110000  12.010000   ; qtot 0.668900
  461          c     18    bbb     C8    461 0.72110000  12.010000   ; qtot 1.390000
  462          o     18    bbb     O1    462 -0.61950000  16.000000   ; qtot 0.770500
  463          o     18    bbb     O2    463 -0.61950000  16.000000   ; qtot 0.151000
  464          n     18    bbb     N4    464 -0.46580000  14.010000   ; qtot -0.314800
  465         hn     18    bbb    H21    465 0.31480000   1.008000   ; qtot -0.000000
; residue   19 bbb rtp bbb q -0.0
  466         c3     19    bbb     C1    466 0.44180000  12.010000   ; qtot 0.441800
  467         h1     19    bbb     H1    467 -0.03530000   1.008000   ; qtot 0.406500
  468         h1     19    bbb     H2    468 -0.03530000   1.008000   ; qtot 0.371200
  469         c3     19    bbb     C2    469 -0.28250000  12.010000   ; qtot 0.088700
  470         h1     19    bbb     H3    470 0.15710000   1.008000   ; qtot 0.245800
  471         h1     19    bbb     H4    471 0.15710000   1.008000   ; qtot 0.402900
  472         n3     19    bbb     N1    472 -0.74090000  14.010000   ; qtot -0.338000
  473         c3     19    bbb     C3    473 0.51680000  12.010000   ; qtot 0.178800
  474         h1     19    bbb     H5    474 -0.05230000   1.008000   ; qtot 0.126500
  475         h1     19    bbb     H6    475 -0.05230000   1.008000   ; qtot 0.074200
  476         c3     19    bbb     C4    476 0.51680000  12.010000   ; qtot 0.591000
  477         h1     19    bbb     H7    477 -0.05230000   1.008000   ; qtot 0.538700
  478         h1     19    bbb     H8    478 -0.05230000   1.008000   ; qtot 0.486400
  479         c3     19    bbb     C5    479 -0.60390000  12.010000   ; qtot -0.117500
  480         hc     19    bbb     H9    480 0.16730000   1.008000   ; qtot 0.049800
  481         hc     19    bbb    H10    481 0.16730000   1.008000   ; qtot 0.217100
  482         c3     19    bbb     C6    482 -0.60390000  12.010000   ; qtot -0.386800
  483         hc     19    bbb    H11    483 0.16730000   1.008000   ; qtot -0.219500
  484         hc     19    bbb    H12    484 0.16730000   1.008000   ; qtot -0.052200
  485          c     19    bbb     C7    485 0.72110000  12.010000   ; qtot 0.668900
  486          c     19    bbb     C8    486 0.72110000  12.010000   ; qtot 1.390000
  487          o     19    bbb     O1    487 -0.61950000  16.000000   ; qtot 0.770500
  488          o     19    bbb     O2    488 -0.61950000  16.000000   ; qtot 0.151000
  489          n     19    bbb     N4    489 -0.46580000  14.010000   ; qtot -0.314800
  490         hn     19    bbb    H21    490 0.31480000   1.008000   ; qtot -0.000000
; residue   20 bbb rtp bbb q -0.0
  491         c3     20    bbb     C1    491 0.44180000  12.010000   ; qtot 0.441800
  492         h1     20    bbb     H1    492 -0.03530000   1.008000   ; qtot 0.406500
  493         h1     20    bbb     H2    493 -0.03530000   1.008000   ; qtot 0.371200
  494         c3     20    bbb     C2    494 -0.28250000  12.010000   ; qtot 0.088700
  495         h1     20    bbb     H3    495 0.15710000   1.008000   ; qtot 0.245800
  496         h1     20    bbb     H4    496 0.15710000   1.008000   ; qtot 0.402900
  497         n3     20    bbb     N1    497 -0.74090000  14.010000   ; qtot -0.338000
  498         c3     20    bbb     C3    498 0.51680000  12.010000   ; qtot 0.178800
  499         h1     20    bbb     H5    499 -0.05230000   1.008000   ; qtot 0.126500
  500         h1     20    bbb     H6    500 -0.05230000   1.008000   ; qtot 0.074200
  501         c3     20    bbb     C4    501 0.51680000  12.010000   ; qtot 0.591000
  502         h1     20    bbb     H7    502 -0.05230000   1.008000   ; qtot 0.538700
  503         h1     20    bbb     H8    503 -0.05230000   1.008000   ; qtot 0.486400
  504         c3     20    bbb     C5    504 -0.60390000  12.010000   ; qtot -0.117500
  505         hc     20    bbb     H9    505 0.16730000   1.008000   ; qtot 0.049800
  506         hc     20    bbb    H10    506 0.16730000   1.008000   ; qtot 0.217100
  507         c3     20    bbb     C6    507 -0.60390000  12.010000   ; qtot -0.386800
  508         hc     20    bbb    H11    508 0.16730000   1.008000   ; qtot -0.219500
  509         hc     20    bbb    H12    509 0.16730000   1.008000   ; qtot -0.052200
  510          c     20    bbb     C7    510 0.72110000  12.010000   ; qtot 0.668900
  511          c     20    bbb     C8    511 0.72110000  12.010000   ; qtot 1.390000
  512          o     20    bbb     O1    512 -0.61950000  16.000000   ; qtot 0.770500
  513          o     20    bbb     O2    513 -0.61950000  16.000000   ; qtot 0.151000
  514          n     20    bbb     N4    514 -0.46580000  14.010000   ; qtot -0.314800
  515         hn     20    bbb    H21    515 0.31480000   1.008000   ; qtot -0.000000
; residue   21 bbb rtp bbb q -0.0
  516         c3     21    bbb     C1    516 0.44180000  12.010000   ; qtot 0.441800
  517         h1     21    bbb     H1    517 -0.03530000   1.008000   ; qtot 0.406500
  518         h1     21    bbb     H2    518 -0.03530000   1.008000   ; qtot 0.371200
  519         c3     21    bbb     C2    519 -0.28250000  12.010000   ; qtot 0.088700
  520         h1     21    bbb     H3    520 0.15710000   1.008000   ; qtot 0.245800
  521         h1     21    bbb     H4    521 0.15710000   1.008000   ; qtot 0.402900
  522         n3     21    bbb     N1    522 -0.74090000  14.010000   ; qtot -0.338000
  523         c3     21    bbb     C3    523 0.51680000  12.010000   ; qtot 0.178800
  524         h1     21    bbb     H5    524 -0.05230000   1.008000   ; qtot 0.126500
  525         h1     21    bbb     H6    525 -0.05230000   1.008000   ; qtot 0.074200
  526         c3     21    bbb     C4    526 0.51680000  12.010000   ; qtot 0.591000
  527         h1     21    bbb     H7    527 -0.05230000   1.008000   ; qtot 0.538700
  528         h1     21    bbb     H8    528 -0.05230000   1.008000   ; qtot 0.486400
  529         c3     21    bbb     C5    529 -0.60390000  12.010000   ; qtot -0.117500
  530         hc     21    bbb     H9    530 0.16730000   1.008000   ; qtot 0.049800
  531         hc     21    bbb    H10    531 0.16730000   1.008000   ; qtot 0.217100
  532         c3     21    bbb     C6    532 -0.60390000  12.010000   ; qtot -0.386800
  533         hc     21    bbb    H11    533 0.16730000   1.008000   ; qtot -0.219500
  534         hc     21    bbb    H12    534 0.16730000   1.008000   ; qtot -0.052200
  535          c     21    bbb     C7    535 0.72110000  12.010000   ; qtot 0.668900
  536          c     21    bbb     C8    536 0.72110000  12.010000   ; qtot 1.390000
  537          o     21    bbb     O1    537 -0.61950000  16.000000   ; qtot 0.770500
  538          o     21    bbb     O2    538 -0.61950000  16.000000   ; qtot 0.151000
  539          n     21    bbb     N4    539 -0.46580000  14.010000   ; qtot -0.314800
  540         hn     21    bbb    H21    540 0.31480000   1.008000   ; qtot -0.000000
; residue   22 bbb rtp bbb q -0.0
  541         c3     22    bbb     C1    541 0.44180000  12.010000   ; qtot 0.441800
  542         h1     22    bbb     H1    542 -0.03530000   1.008000   ; qtot 0.406500
  543         h1     22    bbb     H2    543 -0.03530000   1.008000   ; qtot 0.371200
  544         c3     22    bbb     C2    544 -0.28250000  12.010000   ; qtot 0.088700
  545         h1     22    bbb     H3    545 0.15710000   1.008000   ; qtot 0.245800
  546         h1     22    bbb     H4    546 0.15710000   1.008000   ; qtot 0.402900
  547         n3     22    bbb     N1    547 -0.74090000  14.010000   ; qtot -0.338000
  548         c3     22    bbb     C3    548 0.51680000  12.010000   ; qtot 0.178800
  549         h1     22    bbb     H5    549 -0.05230000   1.008000   ; qtot 0.126500
  550         h1     22    bbb     H6    550 -0.05230000   1.008000   ; qtot 0.074200
  551         c3     22    bbb     C4    551 0.51680000  12.010000   ; qtot 0.591000
  552         h1     22    bbb     H7    552 -0.05230000   1.008000   ; qtot 0.538700
  553         h1     22    bbb     H8    553 -0.05230000   1.008000   ; qtot 0.486400
  554         c3     22    bbb     C5    554 -0.60390000  12.010000   ; qtot -0.117500
  555         hc     22    bbb     H9    555 0.16730000   1.008000   ; qtot 0.049800
  556         hc     22    bbb    H10    556 0.16730000   1.008000   ; qtot 0.217100
  557         c3     22    bbb     C6    557 -0.60390000  12.010000   ; qtot -0.386800
  558         hc     22    bbb    H11    558 0.16730000   1.008000   ; qtot -0.219500
  559         hc     22    bbb    H12    559 0.16730000   1.008000   ; qtot -0.052200
  560          c     22    bbb     C7    560 0.72110000  12.010000   ; qtot 0.668900
  561          c     22    bbb     C8    561 0.72110000  12.010000   ; qtot 1.390000
  562          o     22    bbb     O1    562 -0.61950000  16.000000   ; qtot 0.770500
  563          o     22    bbb     O2    563 -0.61950000  16.000000   ; qtot 0.151000
  564          n     22    bbb     N4    564 -0.46580000  14.010000   ; qtot -0.314800
  565         hn     22    bbb    H21    565 0.31480000   1.008000   ; qtot -0.000000
; residue   23 bbb rtp bbb q -0.0
  566         c3     23    bbb     C1    566 0.44180000  12.010000   ; qtot 0.441800
  567         h1     23    bbb     H1    567 -0.03530000   1.008000   ; qtot 0.406500
  568         h1     23    bbb     H2    568 -0.03530000   1.008000   ; qtot 0.371200
  569         c3     23    bbb     C2    569 -0.28250000  12.010000   ; qtot 0.088700
  570         h1     23    bbb     H3    570 0.15710000   1.008000   ; qtot 0.245800
  571         h1     23    bbb     H4    571 0.15710000   1.008000   ; qtot 0.402900
  572         n3     23    bbb     N1    572 -0.74090000  14.010000   ; qtot -0.338000
  573         c3     23    bbb     C3    573 0.51680000  12.010000   ; qtot 0.178800
  574         h1     23    bbb     H5    574 -0.05230000   1.008000   ; qtot 0.126500
  575         h1     23    bbb     H6    575 -0.05230000   1.008000   ; qtot 0.074200
  576         c3     23    bbb     C4    576 0.51680000  12.010000   ; qtot 0.591000
  577         h1     23    bbb     H7    577 -0.05230000   1.008000   ; qtot 0.538700
  578         h1     23    bbb     H8    578 -0.05230000   1.008000   ; qtot 0.486400
  579         c3     23    bbb     C5    579 -0.60390000  12.010000   ; qtot -0.117500
  580         hc     23    bbb     H9    580 0.16730000   1.008000   ; qtot 0.049800
  581         hc     23    bbb    H10    581 0.16730000   1.008000   ; qtot 0.217100
  582         c3     23    bbb     C6    582 -0.60390000  12.010000   ; qtot -0.386800
  583         hc     23    bbb    H11    583 0.16730000   1.008000   ; qtot -0.219500
  584         hc     23    bbb    H12    584 0.16730000   1.008000   ; qtot -0.052200
  585          c     23    bbb     C7    585 0.72110000  12.010000   ; qtot 0.668900
  586          c     23    bbb     C8    586 0.72110000  12.010000   ; qtot 1.390000
  587          o     23    bbb     O1    587 -0.61950000  16.000000   ; qtot 0.770500
  588          o     23    bbb     O2    588 -0.61950000  16.000000   ; qtot 0.151000
  589          n     23    bbb     N4    589 -0.46580000  14.010000   ; qtot -0.314800
  590         hn     23    bbb    H21    590 0.31480000   1.008000   ; qtot -0.000000
; residue   24 bbb rtp bbb q -0.0
  591         c3     24    bbb     C1    591 0.44180000  12.010000   ; qtot 0.441800
  592         h1     24    bbb     H1    592 -0.03530000   1.008000   ; qtot 0.406500
  593         h1     24    bbb     H2    593 -0.03530000   1.008000   ; qtot 0.371200
  594         c3     24    bbb     C2    594 -0.28250000  12.010000   ; qtot 0.088700
  595         h1     24    bbb     H3    595 0.15710000   1.008000   ; qtot 0.245800
  596         h1     24    bbb     H4    596 0.15710000   1.008000   ; qtot 0.402900
  597         n3     24    bbb     N1    597 -0.74090000  14.010000   ; qtot -0.338000
  598         c3     24    bbb     C3    598 0.51680000  12.010000   ; qtot 0.178800
  599         h1     24    bbb     H5    599 -0.05230000   1.008000   ; qtot 0.126500
  600         h1     24    bbb     H6    600 -0.05230000   1.008000   ; qtot 0.074200
  601         c3     24    bbb     C4    601 0.51680000  12.010000   ; qtot 0.591000
  602         h1     24    bbb     H7    602 -0.05230000   1.008000   ; qtot 0.538700
  603         h1     24    bbb     H8    603 -0.05230000   1.008000   ; qtot 0.486400
  604         c3     24    bbb     C5    604 -0.60390000  12.010000   ; qtot -0.117500
  605         hc     24    bbb     H9    605 0.16730000   1.008000   ; qtot 0.049800
  606         hc     24    bbb    H10    606 0.16730000   1.008000   ; qtot 0.217100
  607         c3     24    bbb     C6    607 -0.60390000  12.010000   ; qtot -0.386800
  608         hc     24    bbb    H11    608 0.16730000   1.008000   ; qtot -0.219500
  609         hc     24    bbb    H12    609 0.16730000   1.008000   ; qtot -0.052200
  610          c     24    bbb     C7    610 0.72110000  12.010000   ; qtot 0.668900
  611          c     24    bbb     C8    611 0.72110000  12.010000   ; qtot 1.390000
  612          o     24    bbb     O1    612 -0.61950000  16.000000   ; qtot 0.770500
  613          o     24    bbb     O2    613 -0.61950000  16.000000   ; qtot 0.151000
  614          n     24    bbb     N4    614 -0.46580000  14.010000   ; qtot -0.314800
  615         hn     24    bbb    H21    615 0.31480000   1.008000   ; qtot -0.000000
; residue   25 bbb rtp bbb q -0.0
  616         c3     25    bbb     C1    616 0.44180000  12.010000   ; qtot 0.441800
  617         h1     25    bbb     H1    617 -0.03530000   1.008000   ; qtot 0.406500
  618         h1     25    bbb     H2    618 -0.03530000   1.008000   ; qtot 0.371200
  619         c3     25    bbb     C2    619 -0.28250000  12.010000   ; qtot 0.088700
  620         h1     25    bbb     H3    620 0.15710000   1.008000   ; qtot 0.245800
  621         h1     25    bbb     H4    621 0.15710000   1.008000   ; qtot 0.402900
  622         n3     25    bbb     N1    622 -0.74090000  14.010000   ; qtot -0.338000
  623         c3     25    bbb     C3    623 0.51680000  12.010000   ; qtot 0.178800
  624         h1     25    bbb     H5    624 -0.05230000   1.008000   ; qtot 0.126500
  625         h1     25    bbb     H6    625 -0.05230000   1.008000   ; qtot 0.074200
  626         c3     25    bbb     C4    626 0.51680000  12.010000   ; qtot 0.591000
  627         h1     25    bbb     H7    627 -0.05230000   1.008000   ; qtot 0.538700
  628         h1     25    bbb     H8    628 -0.05230000   1.008000   ; qtot 0.486400
  629         c3     25    bbb     C5    629 -0.60390000  12.010000   ; qtot -0.117500
  630         hc     25    bbb     H9    630 0.16730000   1.008000   ; qtot 0.049800
  631         hc     25    bbb    H10    631 0.16730000   1.008000   ; qtot 0.217100
  632         c3     25    bbb     C6    632 -0.60390000  12.010000   ; qtot -0.386800
  633         hc     25    bbb    H11    633 0.16730000   1.008000   ; qtot -0.219500
  634         hc     25    bbb    H12    634 0.16730000   1.008000   ; qtot -0.052200
  635          c     25    bbb     C7    635 0.72110000  12.010000   ; qtot 0.668900
  636          c     25    bbb     C8    636 0.72110000  12.010000   ; qtot 1.390000
  637          o     25    bbb     O1    637 -0.61950000  16.000000   ; qtot 0.770500
  638          o     25    bbb     O2    638 -0.61950000  16.000000   ; qtot 0.151000
  639          n     25    bbb     N4    639 -0.46580000  14.010000   ; qtot -0.314800
  640         hn     25    bbb    H21    640 0.31480000   1.008000   ; qtot -0.000000
; residue   26 bbb rtp bbb q -0.0
  641         c3     26    bbb     C1    641 0.44180000  12.010000   ; qtot 0.441800
  642         h1     26    bbb     H1    642 -0.03530000   1.008000   ; qtot 0.406500
  643         h1     26    bbb     H2    643 -0.03530000   1.008000   ; qtot 0.371200
  644         c3     26    bbb     C2    644 -0.28250000  12.010000   ; qtot 0.088700
  645         h1     26    bbb     H3    645 0.15710000   1.008000   ; qtot 0.245800
  646         h1     26    bbb     H4    646 0.15710000   1.008000   ; qtot 0.402900
  647         n3     26    bbb     N1    647 -0.74090000  14.010000   ; qtot -0.338000
  648         c3     26    bbb     C3    648 0.51680000  12.010000   ; qtot 0.178800
  649         h1     26    bbb     H5    649 -0.05230000   1.008000   ; qtot 0.126500
  650         h1     26    bbb     H6    650 -0.05230000   1.008000   ; qtot 0.074200
  651         c3     26    bbb     C4    651 0.51680000  12.010000   ; qtot 0.591000
  652         h1     26    bbb     H7    652 -0.05230000   1.008000   ; qtot 0.538700
  653         h1     26    bbb     H8    653 -0.05230000   1.008000   ; qtot 0.486400
  654         c3     26    bbb     C5    654 -0.60390000  12.010000   ; qtot -0.117500
  655         hc     26    bbb     H9    655 0.16730000   1.008000   ; qtot 0.049800
  656         hc     26    bbb    H10    656 0.16730000   1.008000   ; qtot 0.217100
  657         c3     26    bbb     C6    657 -0.60390000  12.010000   ; qtot -0.386800
  658         hc     26    bbb    H11    658 0.16730000   1.008000   ; qtot -0.219500
  659         hc     26    bbb    H12    659 0.16730000   1.008000   ; qtot -0.052200
  660          c     26    bbb     C7    660 0.72110000  12.010000   ; qtot 0.668900
  661          c     26    bbb     C8    661 0.72110000  12.010000   ; qtot 1.390000
  662          o     26    bbb     O1    662 -0.61950000  16.000000   ; qtot 0.770500
  663          o     26    bbb     O2    663 -0.61950000  16.000000   ; qtot 0.151000
  664          n     26    bbb     N4    664 -0.46580000  14.010000   ; qtot -0.314800
  665         hn     26    bbb    H21    665 0.31480000   1.008000   ; qtot -0.000000
; residue   27 bbb rtp bbb q -0.0
  666         c3     27    bbb     C1    666 0.44180000  12.010000   ; qtot 0.441800
  667         h1     27    bbb     H1    667 -0.03530000   1.008000   ; qtot 0.406500
  668         h1     27    bbb     H2    668 -0.03530000   1.008000   ; qtot 0.371200
  669         c3     27    bbb     C2    669 -0.28250000  12.010000   ; qtot 0.088700
  670         h1     27    bbb     H3    670 0.15710000   1.008000   ; qtot 0.245800
  671         h1     27    bbb     H4    671 0.15710000   1.008000   ; qtot 0.402900
  672         n3     27    bbb     N1    672 -0.74090000  14.010000   ; qtot -0.338000
  673         c3     27    bbb     C3    673 0.51680000  12.010000   ; qtot 0.178800
  674         h1     27    bbb     H5    674 -0.05230000   1.008000   ; qtot 0.126500
  675         h1     27    bbb     H6    675 -0.05230000   1.008000   ; qtot 0.074200
  676         c3     27    bbb     C4    676 0.51680000  12.010000   ; qtot 0.591000
  677         h1     27    bbb     H7    677 -0.05230000   1.008000   ; qtot 0.538700
  678         h1     27    bbb     H8    678 -0.05230000   1.008000   ; qtot 0.486400
  679         c3     27    bbb     C5    679 -0.60390000  12.010000   ; qtot -0.117500
  680         hc     27    bbb     H9    680 0.16730000   1.008000   ; qtot 0.049800
  681         hc     27    bbb    H10    681 0.16730000   1.008000   ; qtot 0.217100
  682         c3     27    bbb     C6    682 -0.60390000  12.010000   ; qtot -0.386800
  683         hc     27    bbb    H11    683 0.16730000   1.008000   ; qtot -0.219500
  684         hc     27    bbb    H12    684 0.16730000   1.008000   ; qtot -0.052200
  685          c     27    bbb     C7    685 0.72110000  12.010000   ; qtot 0.668900
  686          c     27    bbb     C8    686 0.72110000  12.010000   ; qtot 1.390000
  687          o     27    bbb     O1    687 -0.61950000  16.000000   ; qtot 0.770500
  688          o     27    bbb     O2    688 -0.61950000  16.000000   ; qtot 0.151000
  689          n     27    bbb     N4    689 -0.46580000  14.010000   ; qtot -0.314800
  690         hn     27    bbb    H21    690 0.31480000   1.008000   ; qtot -0.000000
; residue   28 bbb rtp bbb q -0.0
  691         c3     28    bbb     C1    691 0.44180000  12.010000   ; qtot 0.441800
  692         h1     28    bbb     H1    692 -0.03530000   1.008000   ; qtot 0.406500
  693         h1     28    bbb     H2    693 -0.03530000   1.008000   ; qtot 0.371200
  694         c3     28    bbb     C2    694 -0.28250000  12.010000   ; qtot 0.088700
  695         h1     28    bbb     H3    695 0.15710000   1.008000   ; qtot 0.245800
  696         h1     28    bbb     H4    696 0.15710000   1.008000   ; qtot 0.402900
  697         n3     28    bbb     N1    697 -0.74090000  14.010000   ; qtot -0.338000
  698         c3     28    bbb     C3    698 0.51680000  12.010000   ; qtot 0.178800
  699         h1     28    bbb     H5    699 -0.05230000   1.008000   ; qtot 0.126500
  700         h1     28    bbb     H6    700 -0.05230000   1.008000   ; qtot 0.074200
  701         c3     28    bbb     C4    701 0.51680000  12.010000   ; qtot 0.591000
  702         h1     28    bbb     H7    702 -0.05230000   1.008000   ; qtot 0.538700
  703         h1     28    bbb     H8    703 -0.05230000   1.008000   ; qtot 0.486400
  704         c3     28    bbb     C5    704 -0.60390000  12.010000   ; qtot -0.117500
  705         hc     28    bbb     H9    705 0.16730000   1.008000   ; qtot 0.049800
  706         hc     28    bbb    H10    706 0.16730000   1.008000   ; qtot 0.217100
  707         c3     28    bbb     C6    707 -0.60390000  12.010000   ; qtot -0.386800
  708         hc     28    bbb    H11    708 0.16730000   1.008000   ; qtot -0.219500
  709         hc     28    bbb    H12    709 0.16730000   1.008000   ; qtot -0.052200
  710          c     28    bbb     C7    710 0.72110000  12.010000   ; qtot 0.668900
  711          c     28    bbb     C8    711 0.72110000  12.010000   ; qtot 1.390000
  712          o     28    bbb     O1    712 -0.61950000  16.000000   ; qtot 0.770500
  713          o     28    bbb     O2    713 -0.61950000  16.000000   ; qtot 0.151000
  714          n     28    bbb     N4    714 -0.46580000  14.010000   ; qtot -0.314800
  715         hn     28    bbb    H21    715 0.31480000   1.008000   ; qtot -0.000000
; residue   29 bbb rtp bbb q -0.0
  716         c3     29    bbb     C1    716 0.44180000  12.010000   ; qtot 0.441800
  717         h1     29    bbb     H1    717 -0.03530000   1.008000   ; qtot 0.406500
  718         h1     29    bbb     H2    718 -0.03530000   1.008000   ; qtot 0.371200
  719         c3     29    bbb     C2    719 -0.28250000  12.010000   ; qtot 0.088700
  720         h1     29    bbb     H3    720 0.15710000   1.008000   ; qtot 0.245800
  721         h1     29    bbb     H4    721 0.15710000   1.008000   ; qtot 0.402900
  722         n3     29    bbb     N1    722 -0.74090000  14.010000   ; qtot -0.338000
  723         c3     29    bbb     C3    723 0.51680000  12.010000   ; qtot 0.178800
  724         h1     29    bbb     H5    724 -0.05230000   1.008000   ; qtot 0.126500
  725         h1     29    bbb     H6    725 -0.05230000   1.008000   ; qtot 0.074200
  726         c3     29    bbb     C4    726 0.51680000  12.010000   ; qtot 0.591000
  727         h1     29    bbb     H7    727 -0.05230000   1.008000   ; qtot 0.538700
  728         h1     29    bbb     H8    728 -0.05230000   1.008000   ; qtot 0.486400
  729         c3     29    bbb     C5    729 -0.60390000  12.010000   ; qtot -0.117500
  730         hc     29    bbb     H9    730 0.16730000   1.008000   ; qtot 0.049800
  731         hc     29    bbb    H10    731 0.16730000   1.008000   ; qtot 0.217100
  732         c3     29    bbb     C6    732 -0.60390000  12.010000   ; qtot -0.386800
  733         hc     29    bbb    H11    733 0.16730000   1.008000   ; qtot -0.219500
  734         hc     29    bbb    H12    734 0.16730000   1.008000   ; qtot -0.052200
  735          c     29    bbb     C7    735 0.72110000  12.010000   ; qtot 0.668900
  736          c     29    bbb     C8    736 0.72110000  12.010000   ; qtot 1.390000
  737          o     29    bbb     O1    737 -0.61950000  16.000000   ; qtot 0.770500
  738          o     29    bbb     O2    738 -0.61950000  16.000000   ; qtot 0.151000
  739          n     29    bbb     N4    739 -0.46580000  14.010000   ; qtot -0.314800
  740         hn     29    bbb    H21    740 0.31480000   1.008000   ; qtot -0.000000
; residue   30 bbb rtp bbb q -0.0
  741         c3     30    bbb     C1    741 0.44180000  12.010000   ; qtot 0.441800
  742         h1     30    bbb     H1    742 -0.03530000   1.008000   ; qtot 0.406500
  743         h1     30    bbb     H2    743 -0.03530000   1.008000   ; qtot 0.371200
  744         c3     30    bbb     C2    744 -0.28250000  12.010000   ; qtot 0.088700
  745         h1     30    bbb     H3    745 0.15710000   1.008000   ; qtot 0.245800
  746         h1     30    bbb     H4    746 0.15710000   1.008000   ; qtot 0.402900
  747         n3     30    bbb     N1    747 -0.74090000  14.010000   ; qtot -0.338000
  748         c3     30    bbb     C3    748 0.51680000  12.010000   ; qtot 0.178800
  749         h1     30    bbb     H5    749 -0.05230000   1.008000   ; qtot 0.126500
  750         h1     30    bbb     H6    750 -0.05230000   1.008000   ; qtot 0.074200
  751         c3     30    bbb     C4    751 0.51680000  12.010000   ; qtot 0.591000
  752         h1     30    bbb     H7    752 -0.05230000   1.008000   ; qtot 0.538700
  753         h1     30    bbb     H8    753 -0.05230000   1.008000   ; qtot 0.486400
  754         c3     30    bbb     C5    754 -0.60390000  12.010000   ; qtot -0.117500
  755         hc     30    bbb     H9    755 0.16730000   1.008000   ; qtot 0.049800
  756         hc     30    bbb    H10    756 0.16730000   1.008000   ; qtot 0.217100
  757         c3     30    bbb     C6    757 -0.60390000  12.010000   ; qtot -0.386800
  758         hc     30    bbb    H11    758 0.16730000   1.008000   ; qtot -0.219500
  759         hc     30    bbb    H12    759 0.16730000   1.008000   ; qtot -0.052200
  760          c     30    bbb     C7    760 0.72110000  12.010000   ; qtot 0.668900
  761          c     30    bbb     C8    761 0.72110000  12.010000   ; qtot 1.390000
  762          o     30    bbb     O1    762 -0.61950000  16.000000   ; qtot 0.770500
  763          o     30    bbb     O2    763 -0.61950000  16.000000   ; qtot 0.151000
  764          n     30    bbb     N4    764 -0.46580000  14.010000   ; qtot -0.314800
  765         hn     30    bbb    H21    765 0.31480000   1.008000   ; qtot -0.000000
; residue   31 bbb rtp bbb q -0.0
  766         c3     31    bbb     C1    766 0.44180000  12.010000   ; qtot 0.441800
  767         h1     31    bbb     H1    767 -0.03530000   1.008000   ; qtot 0.406500
  768         h1     31    bbb     H2    768 -0.03530000   1.008000   ; qtot 0.371200
  769         c3     31    bbb     C2    769 -0.28250000  12.010000   ; qtot 0.088700
  770         h1     31    bbb     H3    770 0.15710000   1.008000   ; qtot 0.245800
  771         h1     31    bbb     H4    771 0.15710000   1.008000   ; qtot 0.402900
  772         n3     31    bbb     N1    772 -0.74090000  14.010000   ; qtot -0.338000
  773         c3     31    bbb     C3    773 0.51680000  12.010000   ; qtot 0.178800
  774         h1     31    bbb     H5    774 -0.05230000   1.008000   ; qtot 0.126500
  775         h1     31    bbb     H6    775 -0.05230000   1.008000   ; qtot 0.074200
  776         c3     31    bbb     C4    776 0.51680000  12.010000   ; qtot 0.591000
  777         h1     31    bbb     H7    777 -0.05230000   1.008000   ; qtot 0.538700
  778         h1     31    bbb     H8    778 -0.05230000   1.008000   ; qtot 0.486400
  779         c3     31    bbb     C5    779 -0.60390000  12.010000   ; qtot -0.117500
  780         hc     31    bbb     H9    780 0.16730000   1.008000   ; qtot 0.049800
  781         hc     31    bbb    H10    781 0.16730000   1.008000   ; qtot 0.217100
  782         c3     31    bbb     C6    782 -0.60390000  12.010000   ; qtot -0.386800
  783         hc     31    bbb    H11    783 0.16730000   1.008000   ; qtot -0.219500
  784         hc     31    bbb    H12    784 0.16730000   1.008000   ; qtot -0.052200
  785          c     31    bbb     C7    785 0.72110000  12.010000   ; qtot 0.668900
  786          c     31    bbb     C8    786 0.72110000  12.010000   ; qtot 1.390000
  787          o     31    bbb     O1    787 -0.61950000  16.000000   ; qtot 0.770500
  788          o     31    bbb     O2    788 -0.61950000  16.000000   ; qtot 0.151000
  789          n     31    bbb     N4    789 -0.46580000  14.010000   ; qtot -0.314800
  790         hn     31    bbb    H21    790 0.31480000   1.008000   ; qtot -0.000000
; residue   32 bbb rtp bbb q -0.0
  791         c3     32    bbb     C1    791 0.44180000  12.010000   ; qtot 0.441800
  792         h1     32    bbb     H1    792 -0.03530000   1.008000   ; qtot 0.406500
  793         h1     32    bbb     H2    793 -0.03530000   1.008000   ; qtot 0.371200
  794         c3     32    bbb     C2    794 -0.28250000  12.010000   ; qtot 0.088700
  795         h1     32    bbb     H3    795 0.15710000   1.008000   ; qtot 0.245800
  796         h1     32    bbb     H4    796 0.15710000   1.008000   ; qtot 0.402900
  797         n3     32    bbb     N1    797 -0.74090000  14.010000   ; qtot -0.338000
  798         c3     32    bbb     C3    798 0.51680000  12.010000   ; qtot 0.178800
  799         h1     32    bbb     H5    799 -0.05230000   1.008000   ; qtot 0.126500
  800         h1     32    bbb     H6    800 -0.05230000   1.008000   ; qtot 0.074200
  801         c3     32    bbb     C4    801 0.51680000  12.010000   ; qtot 0.591000
  802         h1     32    bbb     H7    802 -0.05230000   1.008000   ; qtot 0.538700
  803         h1     32    bbb     H8    803 -0.05230000   1.008000   ; qtot 0.486400
  804         c3     32    bbb     C5    804 -0.60390000  12.010000   ; qtot -0.117500
  805         hc     32    bbb     H9    805 0.16730000   1.008000   ; qtot 0.049800
  806         hc     32    bbb    H10    806 0.16730000   1.008000   ; qtot 0.217100
  807         c3     32    bbb     C6    807 -0.60390000  12.010000   ; qtot -0.386800
  808         hc     32    bbb    H11    808 0.16730000   1.008000   ; qtot -0.219500
  809         hc     32    bbb    H12    809 0.16730000   1.008000   ; qtot -0.052200
  810          c     32    bbb     C7    810 0.72110000  12.010000   ; qtot 0.668900
  811          c     32    bbb     C8    811 0.72110000  12.010000   ; qtot 1.390000
  812          o     32    bbb     O1    812 -0.61950000  16.000000   ; qtot 0.770500
  813          o     32    bbb     O2    813 -0.61950000  16.000000   ; qtot 0.151000
  814          n     32    bbb     N4    814 -0.46580000  14.010000   ; qtot -0.314800
  815         hn     32    bbb    H21    815 0.31480000   1.008000   ; qtot -0.000000
; residue   33 bbb rtp bbb q -0.0
  816         c3     33    bbb     C1    816 0.44180000  12.010000   ; qtot 0.441800
  817         h1     33    bbb     H1    817 -0.03530000   1.008000   ; qtot 0.406500
  818         h1     33    bbb     H2    818 -0.03530000   1.008000   ; qtot 0.371200
  819         c3     33    bbb     C2    819 -0.28250000  12.010000   ; qtot 0.088700
  820         h1     33    bbb     H3    820 0.15710000   1.008000   ; qtot 0.245800
  821         h1     33    bbb     H4    821 0.15710000   1.008000   ; qtot 0.402900
  822         n3     33    bbb     N1    822 -0.74090000  14.010000   ; qtot -0.338000
  823         c3     33    bbb     C3    823 0.51680000  12.010000   ; qtot 0.178800
  824         h1     33    bbb     H5    824 -0.05230000   1.008000   ; qtot 0.126500
  825         h1     33    bbb     H6    825 -0.05230000   1.008000   ; qtot 0.074200
  826         c3     33    bbb     C4    826 0.51680000  12.010000   ; qtot 0.591000
  827         h1     33    bbb     H7    827 -0.05230000   1.008000   ; qtot 0.538700
  828         h1     33    bbb     H8    828 -0.05230000   1.008000   ; qtot 0.486400
  829         c3     33    bbb     C5    829 -0.60390000  12.010000   ; qtot -0.117500
  830         hc     33    bbb     H9    830 0.16730000   1.008000   ; qtot 0.049800
  831         hc     33    bbb    H10    831 0.16730000   1.008000   ; qtot 0.217100
  832         c3     33    bbb     C6    832 -0.60390000  12.010000   ; qtot -0.386800
  833         hc     33    bbb    H11    833 0.16730000   1.008000   ; qtot -0.219500
  834         hc     33    bbb    H12    834 0.16730000   1.008000   ; qtot -0.052200
  835          c     33    bbb     C7    835 0.72110000  12.010000   ; qtot 0.668900
  836          c     33    bbb     C8    836 0.72110000  12.010000   ; qtot 1.390000
  837          o     33    bbb     O1    837 -0.61950000  16.000000   ; qtot 0.770500
  838          o     33    bbb     O2    838 -0.61950000  16.000000   ; qtot 0.151000
  839          n     33    bbb     N4    839 -0.46580000  14.010000   ; qtot -0.314800
  840         hn     33    bbb    H21    840 0.31480000   1.008000   ; qtot -0.000000
; residue   34 bbb rtp bbb q -0.0
  841         c3     34    bbb     C1    841 0.44180000  12.010000   ; qtot 0.441800
  842         h1     34    bbb     H1    842 -0.03530000   1.008000   ; qtot 0.406500
  843         h1     34    bbb     H2    843 -0.03530000   1.008000   ; qtot 0.371200
  844         c3     34    bbb     C2    844 -0.28250000  12.010000   ; qtot 0.088700
  845         h1     34    bbb     H3    845 0.15710000   1.008000   ; qtot 0.245800
  846         h1     34    bbb     H4    846 0.15710000   1.008000   ; qtot 0.402900
  847         n3     34    bbb     N1    847 -0.74090000  14.010000   ; qtot -0.338000
  848         c3     34    bbb     C3    848 0.51680000  12.010000   ; qtot 0.178800
  849         h1     34    bbb     H5    849 -0.05230000   1.008000   ; qtot 0.126500
  850         h1     34    bbb     H6    850 -0.05230000   1.008000   ; qtot 0.074200
  851         c3     34    bbb     C4    851 0.51680000  12.010000   ; qtot 0.591000
  852         h1     34    bbb     H7    852 -0.05230000   1.008000   ; qtot 0.538700
  853         h1     34    bbb     H8    853 -0.05230000   1.008000   ; qtot 0.486400
  854         c3     34    bbb     C5    854 -0.60390000  12.010000   ; qtot -0.117500
  855         hc     34    bbb     H9    855 0.16730000   1.008000   ; qtot 0.049800
  856         hc     34    bbb    H10    856 0.16730000   1.008000   ; qtot 0.217100
  857         c3     34    bbb     C6    857 -0.60390000  12.010000   ; qtot -0.386800
  858         hc     34    bbb    H11    858 0.16730000   1.008000   ; qtot -0.219500
  859         hc     34    bbb    H12    859 0.16730000   1.008000   ; qtot -0.052200
  860          c     34    bbb     C7    860 0.72110000  12.010000   ; qtot 0.668900
  861          c     34    bbb     C8    861 0.72110000  12.010000   ; qtot 1.390000
  862          o     34    bbb     O1    862 -0.61950000  16.000000   ; qtot 0.770500
  863          o     34    bbb     O2    863 -0.61950000  16.000000   ; qtot 0.151000
  864          n     34    bbb     N4    864 -0.46580000  14.010000   ; qtot -0.314800
  865         hn     34    bbb    H21    865 0.31480000   1.008000   ; qtot -0.000000
; residue   35 bbb rtp bbb q -0.0
  866         c3     35    bbb     C1    866 0.44180000  12.010000   ; qtot 0.441800
  867         h1     35    bbb     H1    867 -0.03530000   1.008000   ; qtot 0.406500
  868         h1     35    bbb     H2    868 -0.03530000   1.008000   ; qtot 0.371200
  869         c3     35    bbb     C2    869 -0.28250000  12.010000   ; qtot 0.088700
  870         h1     35    bbb     H3    870 0.15710000   1.008000   ; qtot 0.245800
  871         h1     35    bbb     H4    871 0.15710000   1.008000   ; qtot 0.402900
  872         n3     35    bbb     N1    872 -0.74090000  14.010000   ; qtot -0.338000
  873         c3     35    bbb     C3    873 0.51680000  12.010000   ; qtot 0.178800
  874         h1     35    bbb     H5    874 -0.05230000   1.008000   ; qtot 0.126500
  875         h1     35    bbb     H6    875 -0.05230000   1.008000   ; qtot 0.074200
  876         c3     35    bbb     C4    876 0.51680000  12.010000   ; qtot 0.591000
  877         h1     35    bbb     H7    877 -0.05230000   1.008000   ; qtot 0.538700
  878         h1     35    bbb     H8    878 -0.05230000   1.008000   ; qtot 0.486400
  879         c3     35    bbb     C5    879 -0.60390000  12.010000   ; qtot -0.117500
  880         hc     35    bbb     H9    880 0.16730000   1.008000   ; qtot 0.049800
  881         hc     35    bbb    H10    881 0.16730000   1.008000   ; qtot 0.217100
  882         c3     35    bbb     C6    882 -0.60390000  12.010000   ; qtot -0.386800
  883         hc     35    bbb    H11    883 0.16730000   1.008000   ; qtot -0.219500
  884         hc     35    bbb    H12    884 0.16730000   1.008000   ; qtot -0.052200
  885          c     35    bbb     C7    885 0.72110000  12.010000   ; qtot 0.668900
  886          c     35    bbb     C8    886 0.72110000  12.010000   ; qtot 1.390000
  887          o     35    bbb     O1    887 -0.61950000  16.000000   ; qtot 0.770500
  888          o     35    bbb     O2    888 -0.61950000  16.000000   ; qtot 0.151000
  889          n     35    bbb     N4    889 -0.46580000  14.010000   ; qtot -0.314800
  890         hn     35    bbb    H21    890 0.31480000   1.008000   ; qtot -0.000000
; residue   36 bbb rtp bbb q -0.0
  891         c3     36    bbb     C1    891 0.44180000  12.010000   ; qtot 0.441800
  892         h1     36    bbb     H1    892 -0.03530000   1.008000   ; qtot 0.406500
  893         h1     36    bbb     H2    893 -0.03530000   1.008000   ; qtot 0.371200
  894         c3     36    bbb     C2    894 -0.28250000  12.010000   ; qtot 0.088700
  895         h1     36    bbb     H3    895 0.15710000   1.008000   ; qtot 0.245800
  896         h1     36    bbb     H4    896 0.15710000   1.008000   ; qtot 0.402900
  897         n3     36    bbb     N1    897 -0.74090000  14.010000   ; qtot -0.338000
  898         c3     36    bbb     C3    898 0.51680000  12.010000   ; qtot 0.178800
  899         h1     36    bbb     H5    899 -0.05230000   1.008000   ; qtot 0.126500
  900         h1     36    bbb     H6    900 -0.05230000   1.008000   ; qtot 0.074200
  901         c3     36    bbb     C4    901 0.51680000  12.010000   ; qtot 0.591000
  902         h1     36    bbb     H7    902 -0.05230000   1.008000   ; qtot 0.538700
  903         h1     36    bbb     H8    903 -0.05230000   1.008000   ; qtot 0.486400
  904         c3     36    bbb     C5    904 -0.60390000  12.010000   ; qtot -0.117500
  905         hc     36    bbb     H9    905 0.16730000   1.008000   ; qtot 0.049800
  906         hc     36    bbb    H10    906 0.16730000   1.008000   ; qtot 0.217100
  907         c3     36    bbb     C6    907 -0.60390000  12.010000   ; qtot -0.386800
  908         hc     36    bbb    H11    908 0.16730000   1.008000   ; qtot -0.219500
  909         hc     36    bbb    H12    909 0.16730000   1.008000   ; qtot -0.052200
  910          c     36    bbb     C7    910 0.72110000  12.010000   ; qtot 0.668900
  911          c     36    bbb     C8    911 0.72110000  12.010000   ; qtot 1.390000
  912          o     36    bbb     O1    912 -0.61950000  16.000000   ; qtot 0.770500
  913          o     36    bbb     O2    913 -0.61950000  16.000000   ; qtot 0.151000
  914          n     36    bbb     N4    914 -0.46580000  14.010000   ; qtot -0.314800
  915         hn     36    bbb    H21    915 0.31480000   1.008000   ; qtot -0.000000
; residue   37 bbb rtp bbb q -0.0
  916         c3     37    bbb     C1    916 0.44180000  12.010000   ; qtot 0.441800
  917         h1     37    bbb     H1    917 -0.03530000   1.008000   ; qtot 0.406500
  918         h1     37    bbb     H2    918 -0.03530000   1.008000   ; qtot 0.371200
  919         c3     37    bbb     C2    919 -0.28250000  12.010000   ; qtot 0.088700
  920         h1     37    bbb     H3    920 0.15710000   1.008000   ; qtot 0.245800
  921         h1     37    bbb     H4    921 0.15710000   1.008000   ; qtot 0.402900
  922         n3     37    bbb     N1    922 -0.74090000  14.010000   ; qtot -0.338000
  923         c3     37    bbb     C3    923 0.51680000  12.010000   ; qtot 0.178800
  924         h1     37    bbb     H5    924 -0.05230000   1.008000   ; qtot 0.126500
  925         h1     37    bbb     H6    925 -0.05230000   1.008000   ; qtot 0.074200
  926         c3     37    bbb     C4    926 0.51680000  12.010000   ; qtot 0.591000
  927         h1     37    bbb     H7    927 -0.05230000   1.008000   ; qtot 0.538700
  928         h1     37    bbb     H8    928 -0.05230000   1.008000   ; qtot 0.486400
  929         c3     37    bbb     C5    929 -0.60390000  12.010000   ; qtot -0.117500
  930         hc     37    bbb     H9    930 0.16730000   1.008000   ; qtot 0.049800
  931         hc     37    bbb    H10    931 0.16730000   1.008000   ; qtot 0.217100
  932         c3     37    bbb     C6    932 -0.60390000  12.010000   ; qtot -0.386800
  933         hc     37    bbb    H11    933 0.16730000   1.008000   ; qtot -0.219500
  934         hc     37    bbb    H12    934 0.16730000   1.008000   ; qtot -0.052200
  935          c     37    bbb     C7    935 0.72110000  12.010000   ; qtot 0.668900
  936          c     37    bbb     C8    936 0.72110000  12.010000   ; qtot 1.390000
  937          o     37    bbb     O1    937 -0.61950000  16.000000   ; qtot 0.770500
  938          o     37    bbb     O2    938 -0.61950000  16.000000   ; qtot 0.151000
  939          n     37    bbb     N4    939 -0.46580000  14.010000   ; qtot -0.314800
  940         hn     37    bbb    H21    940 0.31480000   1.008000   ; qtot -0.000000
; residue   38 bbb rtp bbb q -0.0
  941         c3     38    bbb     C1    941 0.44180000  12.010000   ; qtot 0.441800
  942         h1     38    bbb     H1    942 -0.03530000   1.008000   ; qtot 0.406500
  943         h1     38    bbb     H2    943 -0.03530000   1.008000   ; qtot 0.371200
  944         c3     38    bbb     C2    944 -0.28250000  12.010000   ; qtot 0.088700
  945         h1     38    bbb     H3    945 0.15710000   1.008000   ; qtot 0.245800
  946         h1     38    bbb     H4    946 0.15710000   1.008000   ; qtot 0.402900
  947         n3     38    bbb     N1    947 -0.74090000  14.010000   ; qtot -0.338001
  948         c3     38    bbb     C3    948 0.51680000  12.010000   ; qtot 0.178799
  949         h1     38    bbb     H5    949 -0.05230000   1.008000   ; qtot 0.126499
  950         h1     38    bbb     H6    950 -0.05230000   1.008000   ; qtot 0.074199
  951         c3     38    bbb     C4    951 0.51680000  12.010000   ; qtot 0.590999
  952         h1     38    bbb     H7    952 -0.05230000   1.008000   ; qtot 0.538699
  953         h1     38    bbb     H8    953 -0.05230000   1.008000   ; qtot 0.486399
  954         c3     38    bbb     C5    954 -0.60390000  12.010000   ; qtot -0.117501
  955         hc     38    bbb     H9    955 0.16730000   1.008000   ; qtot 0.049799
  956         hc     38    bbb    H10    956 0.16730000   1.008000   ; qtot 0.217099
  957         c3     38    bbb     C6    957 -0.60390000  12.010000   ; qtot -0.386801
  958         hc     38    bbb    H11    958 0.16730000   1.008000   ; qtot -0.219501
  959         hc     38    bbb    H12    959 0.16730000   1.008000   ; qtot -0.052201
  960          c     38    bbb     C7    960 0.72110000  12.010000   ; qtot 0.668899
  961          c     38    bbb     C8    961 0.72110000  12.010000   ; qtot 1.389999
  962          o     38    bbb     O1    962 -0.61950000  16.000000   ; qtot 0.770499
  963          o     38    bbb     O2    963 -0.61950000  16.000000   ; qtot 0.150999
  964          n     38    bbb     N4    964 -0.46580000  14.010000   ; qtot -0.314801
  965         hn     38    bbb    H21    965 0.31480000   1.008000   ; qtot -0.000001
; residue   39 bbb rtp bbb q -0.0
  966         c3     39    bbb     C1    966 0.44180000  12.010000   ; qtot 0.441799
  967         h1     39    bbb     H1    967 -0.03530000   1.008000   ; qtot 0.406499
  968         h1     39    bbb     H2    968 -0.03530000   1.008000   ; qtot 0.371199
  969         c3     39    bbb     C2    969 -0.28250000  12.010000   ; qtot 0.088699
  970         h1     39    bbb     H3    970 0.15710000   1.008000   ; qtot 0.245799
  971         h1     39    bbb     H4    971 0.15710000   1.008000   ; qtot 0.402899
  972         n3     39    bbb     N1    972 -0.74090000  14.010000   ; qtot -0.338001
  973         c3     39    bbb     C3    973 0.51680000  12.010000   ; qtot 0.178799
  974         h1     39    bbb     H5    974 -0.05230000   1.008000   ; qtot 0.126499
  975         h1     39    bbb     H6    975 -0.05230000   1.008000   ; qtot 0.074199
  976         c3     39    bbb     C4    976 0.51680000  12.010000   ; qtot 0.590999
  977         h1     39    bbb     H7    977 -0.05230000   1.008000   ; qtot 0.538699
  978         h1     39    bbb     H8    978 -0.05230000   1.008000   ; qtot 0.486399
  979         c3     39    bbb     C5    979 -0.60390000  12.010000   ; qtot -0.117501
  980         hc     39    bbb     H9    980 0.16730000   1.008000   ; qtot 0.049799
  981         hc     39    bbb    H10    981 0.16730000   1.008000   ; qtot 0.217099
  982         c3     39    bbb     C6    982 -0.60390000  12.010000   ; qtot -0.386801
  983         hc     39    bbb    H11    983 0.16730000   1.008000   ; qtot -0.219501
  984         hc     39    bbb    H12    984 0.16730000   1.008000   ; qtot -0.052201
  985          c     39    bbb     C7    985 0.72110000  12.010000   ; qtot 0.668899
  986          c     39    bbb     C8    986 0.72110000  12.010000   ; qtot 1.389999
  987          o     39    bbb     O1    987 -0.61950000  16.000000   ; qtot 0.770499
  988          o     39    bbb     O2    988 -0.61950000  16.000000   ; qtot 0.150999
  989          n     39    bbb     N4    989 -0.46580000  14.010000   ; qtot -0.314801
  990         hn     39    bbb    H21    990 0.31480000   1.008000   ; qtot -0.000001
; residue   40 bbb rtp bbb q -0.0
  991         c3     40    bbb     C1    991 0.44180000  12.010000   ; qtot 0.441799
  992         h1     40    bbb     H1    992 -0.03530000   1.008000   ; qtot 0.406499
  993         h1     40    bbb     H2    993 -0.03530000   1.008000   ; qtot 0.371199
  994         c3     40    bbb     C2    994 -0.28250000  12.010000   ; qtot 0.088699
  995         h1     40    bbb     H3    995 0.15710000   1.008000   ; qtot 0.245799
  996         h1     40    bbb     H4    996 0.15710000   1.008000   ; qtot 0.402899
  997         n3     40    bbb     N1    997 -0.74090000  14.010000   ; qtot -0.338001
  998         c3     40    bbb     C3    998 0.51680000  12.010000   ; qtot 0.178799
  999         h1     40    bbb     H5    999 -0.05230000   1.008000   ; qtot 0.126499
 1000         h1     40    bbb     H6   1000 -0.05230000   1.008000   ; qtot 0.074199
 1001         c3     40    bbb     C4   1001 0.51680000  12.010000   ; qtot 0.590999
 1002         h1     40    bbb     H7   1002 -0.05230000   1.008000   ; qtot 0.538699
 1003         h1     40    bbb     H8   1003 -0.05230000   1.008000   ; qtot 0.486399
 1004         c3     40    bbb     C5   1004 -0.60390000  12.010000   ; qtot -0.117501
 1005         hc     40    bbb     H9   1005 0.16730000   1.008000   ; qtot 0.049799
 1006         hc     40    bbb    H10   1006 0.16730000   1.008000   ; qtot 0.217099
 1007         c3     40    bbb     C6   1007 -0.60390000  12.010000   ; qtot -0.386801
 1008         hc     40    bbb    H11   1008 0.16730000   1.008000   ; qtot -0.219501
 1009         hc     40    bbb    H12   1009 0.16730000   1.008000   ; qtot -0.052201
 1010          c     40    bbb     C7   1010 0.72110000  12.010000   ; qtot 0.668899
 1011          c     40    bbb     C8   1011 0.72110000  12.010000   ; qtot 1.389999
 1012          o     40    bbb     O1   1012 -0.61950000  16.000000   ; qtot 0.770499
 1013          o     40    bbb     O2   1013 -0.61950000  16.000000   ; qtot 0.150999
 1014          n     40    bbb     N4   1014 -0.46580000  14.010000   ; qtot -0.314801
 1015         hn     40    bbb    H21   1015 0.31480000   1.008000   ; qtot -0.000001
; residue   41 bbb rtp bbb q -0.0
 1016         c3     41    bbb     C1   1016 0.44180000  12.010000   ; qtot 0.441799
 1017         h1     41    bbb     H1   1017 -0.03530000   1.008000   ; qtot 0.406499
 1018         h1     41    bbb     H2   1018 -0.03530000   1.008000   ; qtot 0.371199
 1019         c3     41    bbb     C2   1019 -0.28250000  12.010000   ; qtot 0.088699
 1020         h1     41    bbb     H3   1020 0.15710000   1.008000   ; qtot 0.245799
 1021         h1     41    bbb     H4   1021 0.15710000   1.008000   ; qtot 0.402899
 1022         n3     41    bbb     N1   1022 -0.74090000  14.010000   ; qtot -0.338001
 1023         c3     41    bbb     C3   1023 0.51680000  12.010000   ; qtot 0.178799
 1024         h1     41    bbb     H5   1024 -0.05230000   1.008000   ; qtot 0.126499
 1025         h1     41    bbb     H6   1025 -0.05230000   1.008000   ; qtot 0.074199
 1026         c3     41    bbb     C4   1026 0.51680000  12.010000   ; qtot 0.590999
 1027         h1     41    bbb     H7   1027 -0.05230000   1.008000   ; qtot 0.538699
 1028         h1     41    bbb     H8   1028 -0.05230000   1.008000   ; qtot 0.486399
 1029         c3     41    bbb     C5   1029 -0.60390000  12.010000   ; qtot -0.117501
 1030         hc     41    bbb     H9   1030 0.16730000   1.008000   ; qtot 0.049799
 1031         hc     41    bbb    H10   1031 0.16730000   1.008000   ; qtot 0.217099
 1032         c3     41    bbb     C6   1032 -0.60390000  12.010000   ; qtot -0.386801
 1033         hc     41    bbb    H11   1033 0.16730000   1.008000   ; qtot -0.219501
 1034         hc     41    bbb    H12   1034 0.16730000   1.008000   ; qtot -0.052201
 1035          c     41    bbb     C7   1035 0.72110000  12.010000   ; qtot 0.668899
 1036          c     41    bbb     C8   1036 0.72110000  12.010000   ; qtot 1.389999
 1037          o     41    bbb     O1   1037 -0.61950000  16.000000   ; qtot 0.770499
 1038          o     41    bbb     O2   1038 -0.61950000  16.000000   ; qtot 0.150999
 1039          n     41    bbb     N4   1039 -0.46580000  14.010000   ; qtot -0.314801
 1040         hn     41    bbb    H21   1040 0.31480000   1.008000   ; qtot -0.000001
; residue   42 bbb rtp bbb q -0.0
 1041         c3     42    bbb     C1   1041 0.44180000  12.010000   ; qtot 0.441799
 1042         h1     42    bbb     H1   1042 -0.03530000   1.008000   ; qtot 0.406499
 1043         h1     42    bbb     H2   1043 -0.03530000   1.008000   ; qtot 0.371199
 1044         c3     42    bbb     C2   1044 -0.28250000  12.010000   ; qtot 0.088699
 1045         h1     42    bbb     H3   1045 0.15710000   1.008000   ; qtot 0.245799
 1046         h1     42    bbb     H4   1046 0.15710000   1.008000   ; qtot 0.402899
 1047         n3     42    bbb     N1   1047 -0.74090000  14.010000   ; qtot -0.338001
 1048         c3     42    bbb     C3   1048 0.51680000  12.010000   ; qtot 0.178799
 1049         h1     42    bbb     H5   1049 -0.05230000   1.008000   ; qtot 0.126499
 1050         h1     42    bbb     H6   1050 -0.05230000   1.008000   ; qtot 0.074199
 1051         c3     42    bbb     C4   1051 0.51680000  12.010000   ; qtot 0.590999
 1052         h1     42    bbb     H7   1052 -0.05230000   1.008000   ; qtot 0.538699
 1053         h1     42    bbb     H8   1053 -0.05230000   1.008000   ; qtot 0.486399
 1054         c3     42    bbb     C5   1054 -0.60390000  12.010000   ; qtot -0.117501
 1055         hc     42    bbb     H9   1055 0.16730000   1.008000   ; qtot 0.049799
 1056         hc     42    bbb    H10   1056 0.16730000   1.008000   ; qtot 0.217099
 1057         c3     42    bbb     C6   1057 -0.60390000  12.010000   ; qtot -0.386801
 1058         hc     42    bbb    H11   1058 0.16730000   1.008000   ; qtot -0.219501
 1059         hc     42    bbb    H12   1059 0.16730000   1.008000   ; qtot -0.052201
 1060          c     42    bbb     C7   1060 0.72110000  12.010000   ; qtot 0.668899
 1061          c     42    bbb     C8   1061 0.72110000  12.010000   ; qtot 1.389999
 1062          o     42    bbb     O1   1062 -0.61950000  16.000000   ; qtot 0.770499
 1063          o     42    bbb     O2   1063 -0.61950000  16.000000   ; qtot 0.150999
 1064          n     42    bbb     N4   1064 -0.46580000  14.010000   ; qtot -0.314801
 1065         hn     42    bbb    H21   1065 0.31480000   1.008000   ; qtot -0.000001
; residue   43 bbb rtp bbb q -0.0
 1066         c3     43    bbb     C1   1066 0.44180000  12.010000   ; qtot 0.441799
 1067         h1     43    bbb     H1   1067 -0.03530000   1.008000   ; qtot 0.406499
 1068         h1     43    bbb     H2   1068 -0.03530000   1.008000   ; qtot 0.371199
 1069         c3     43    bbb     C2   1069 -0.28250000  12.010000   ; qtot 0.088699
 1070         h1     43    bbb     H3   1070 0.15710000   1.008000   ; qtot 0.245799
 1071         h1     43    bbb     H4   1071 0.15710000   1.008000   ; qtot 0.402899
 1072         n3     43    bbb     N1   1072 -0.74090000  14.010000   ; qtot -0.338001
 1073         c3     43    bbb     C3   1073 0.51680000  12.010000   ; qtot 0.178799
 1074         h1     43    bbb     H5   1074 -0.05230000   1.008000   ; qtot 0.126499
 1075         h1     43    bbb     H6   1075 -0.05230000   1.008000   ; qtot 0.074199
 1076         c3     43    bbb     C4   1076 0.51680000  12.010000   ; qtot 0.590999
 1077         h1     43    bbb     H7   1077 -0.05230000   1.008000   ; qtot 0.538699
 1078         h1     43    bbb     H8   1078 -0.05230000   1.008000   ; qtot 0.486399
 1079         c3     43    bbb     C5   1079 -0.60390000  12.010000   ; qtot -0.117501
 1080         hc     43    bbb     H9   1080 0.16730000   1.008000   ; qtot 0.049799
 1081         hc     43    bbb    H10   1081 0.16730000   1.008000   ; qtot 0.217099
 1082         c3     43    bbb     C6   1082 -0.60390000  12.010000   ; qtot -0.386801
 1083         hc     43    bbb    H11   1083 0.16730000   1.008000   ; qtot -0.219501
 1084         hc     43    bbb    H12   1084 0.16730000   1.008000   ; qtot -0.052201
 1085          c     43    bbb     C7   1085 0.72110000  12.010000   ; qtot 0.668899
 1086          c     43    bbb     C8   1086 0.72110000  12.010000   ; qtot 1.389999
 1087          o     43    bbb     O1   1087 -0.61950000  16.000000   ; qtot 0.770499
 1088          o     43    bbb     O2   1088 -0.61950000  16.000000   ; qtot 0.150999
 1089          n     43    bbb     N4   1089 -0.46580000  14.010000   ; qtot -0.314801
 1090         hn     43    bbb    H21   1090 0.31480000   1.008000   ; qtot -0.000001
; residue   44 bbb rtp bbb q -0.0
 1091         c3     44    bbb     C1   1091 0.44180000  12.010000   ; qtot 0.441799
 1092         h1     44    bbb     H1   1092 -0.03530000   1.008000   ; qtot 0.406499
 1093         h1     44    bbb     H2   1093 -0.03530000   1.008000   ; qtot 0.371199
 1094         c3     44    bbb     C2   1094 -0.28250000  12.010000   ; qtot 0.088699
 1095         h1     44    bbb     H3   1095 0.15710000   1.008000   ; qtot 0.245799
 1096         h1     44    bbb     H4   1096 0.15710000   1.008000   ; qtot 0.402899
 1097         n3     44    bbb     N1   1097 -0.74090000  14.010000   ; qtot -0.338001
 1098         c3     44    bbb     C3   1098 0.51680000  12.010000   ; qtot 0.178799
 1099         h1     44    bbb     H5   1099 -0.05230000   1.008000   ; qtot 0.126499
 1100         h1     44    bbb     H6   1100 -0.05230000   1.008000   ; qtot 0.074199
 1101         c3     44    bbb     C4   1101 0.51680000  12.010000   ; qtot 0.590999
 1102         h1     44    bbb     H7   1102 -0.05230000   1.008000   ; qtot 0.538699
 1103         h1     44    bbb     H8   1103 -0.05230000   1.008000   ; qtot 0.486399
 1104         c3     44    bbb     C5   1104 -0.60390000  12.010000   ; qtot -0.117501
 1105         hc     44    bbb     H9   1105 0.16730000   1.008000   ; qtot 0.049799
 1106         hc     44    bbb    H10   1106 0.16730000   1.008000   ; qtot 0.217099
 1107         c3     44    bbb     C6   1107 -0.60390000  12.010000   ; qtot -0.386801
 1108         hc     44    bbb    H11   1108 0.16730000   1.008000   ; qtot -0.219501
 1109         hc     44    bbb    H12   1109 0.16730000   1.008000   ; qtot -0.052201
 1110          c     44    bbb     C7   1110 0.72110000  12.010000   ; qtot 0.668899
 1111          c     44    bbb     C8   1111 0.72110000  12.010000   ; qtot 1.389999
 1112          o     44    bbb     O1   1112 -0.61950000  16.000000   ; qtot 0.770499
 1113          o     44    bbb     O2   1113 -0.61950000  16.000000   ; qtot 0.150999
 1114          n     44    bbb     N4   1114 -0.46580000  14.010000   ; qtot -0.314801
 1115         hn     44    bbb    H21   1115 0.31480000   1.008000   ; qtot -0.000001
; residue   45 bbb rtp bbb q -0.0
 1116         c3     45    bbb     C1   1116 0.44180000  12.010000   ; qtot 0.441799
 1117         h1     45    bbb     H1   1117 -0.03530000   1.008000   ; qtot 0.406499
 1118         h1     45    bbb     H2   1118 -0.03530000   1.008000   ; qtot 0.371199
 1119         c3     45    bbb     C2   1119 -0.28250000  12.010000   ; qtot 0.088699
 1120         h1     45    bbb     H3   1120 0.15710000   1.008000   ; qtot 0.245799
 1121         h1     45    bbb     H4   1121 0.15710000   1.008000   ; qtot 0.402899
 1122         n3     45    bbb     N1   1122 -0.74090000  14.010000   ; qtot -0.338001
 1123         c3     45    bbb     C3   1123 0.51680000  12.010000   ; qtot 0.178799
 1124         h1     45    bbb     H5   1124 -0.05230000   1.008000   ; qtot 0.126499
 1125         h1     45    bbb     H6   1125 -0.05230000   1.008000   ; qtot 0.074199
 1126         c3     45    bbb     C4   1126 0.51680000  12.010000   ; qtot 0.590999
 1127         h1     45    bbb     H7   1127 -0.05230000   1.008000   ; qtot 0.538699
 1128         h1     45    bbb     H8   1128 -0.05230000   1.008000   ; qtot 0.486399
 1129         c3     45    bbb     C5   1129 -0.60390000  12.010000   ; qtot -0.117501
 1130         hc     45    bbb     H9   1130 0.16730000   1.008000   ; qtot 0.049799
 1131         hc     45    bbb    H10   1131 0.16730000   1.008000   ; qtot 0.217099
 1132         c3     45    bbb     C6   1132 -0.60390000  12.010000   ; qtot -0.386801
 1133         hc     45    bbb    H11   1133 0.16730000   1.008000   ; qtot -0.219501
 1134         hc     45    bbb    H12   1134 0.16730000   1.008000   ; qtot -0.052201
 1135          c     45    bbb     C7   1135 0.72110000  12.010000   ; qtot 0.668899
 1136          c     45    bbb     C8   1136 0.72110000  12.010000   ; qtot 1.389999
 1137          o     45    bbb     O1   1137 -0.61950000  16.000000   ; qtot 0.770499
 1138          o     45    bbb     O2   1138 -0.61950000  16.000000   ; qtot 0.150999
 1139          n     45    bbb     N4   1139 -0.46580000  14.010000   ; qtot -0.314801
 1140         hn     45    bbb    H21   1140 0.31480000   1.008000   ; qtot -0.000001
; residue   46 bbb rtp bbb q -0.0
 1141         c3     46    bbb     C1   1141 0.44180000  12.010000   ; qtot 0.441799
 1142         h1     46    bbb     H1   1142 -0.03530000   1.008000   ; qtot 0.406499
 1143         h1     46    bbb     H2   1143 -0.03530000   1.008000   ; qtot 0.371199
 1144         c3     46    bbb     C2   1144 -0.28250000  12.010000   ; qtot 0.088699
 1145         h1     46    bbb     H3   1145 0.15710000   1.008000   ; qtot 0.245799
 1146         h1     46    bbb     H4   1146 0.15710000   1.008000   ; qtot 0.402899
 1147         n3     46    bbb     N1   1147 -0.74090000  14.010000   ; qtot -0.338001
 1148         c3     46    bbb     C3   1148 0.51680000  12.010000   ; qtot 0.178799
 1149         h1     46    bbb     H5   1149 -0.05230000   1.008000   ; qtot 0.126499
 1150         h1     46    bbb     H6   1150 -0.05230000   1.008000   ; qtot 0.074199
 1151         c3     46    bbb     C4   1151 0.51680000  12.010000   ; qtot 0.590999
 1152         h1     46    bbb     H7   1152 -0.05230000   1.008000   ; qtot 0.538699
 1153         h1     46    bbb     H8   1153 -0.05230000   1.008000   ; qtot 0.486399
 1154         c3     46    bbb     C5   1154 -0.60390000  12.010000   ; qtot -0.117501
 1155         hc     46    bbb     H9   1155 0.16730000   1.008000   ; qtot 0.049799
 1156         hc     46    bbb    H10   1156 0.16730000   1.008000   ; qtot 0.217099
 1157         c3     46    bbb     C6   1157 -0.60390000  12.010000   ; qtot -0.386801
 1158         hc     46    bbb    H11   1158 0.16730000   1.008000   ; qtot -0.219501
 1159         hc     46    bbb    H12   1159 0.16730000   1.008000   ; qtot -0.052201
 1160          c     46    bbb     C7   1160 0.72110000  12.010000   ; qtot 0.668899
 1161          c     46    bbb     C8   1161 0.72110000  12.010000   ; qtot 1.389999
 1162          o     46    bbb     O1   1162 -0.61950000  16.000000   ; qtot 0.770499
 1163          o     46    bbb     O2   1163 -0.61950000  16.000000   ; qtot 0.150999
 1164          n     46    bbb     N4   1164 -0.46580000  14.010000   ; qtot -0.314801
 1165         hn     46    bbb    H21   1165 0.31480000   1.008000   ; qtot -0.000001
; residue   47 bbb rtp bbb q -0.0
 1166         c3     47    bbb     C1   1166 0.44180000  12.010000   ; qtot 0.441799
 1167         h1     47    bbb     H1   1167 -0.03530000   1.008000   ; qtot 0.406499
 1168         h1     47    bbb     H2   1168 -0.03530000   1.008000   ; qtot 0.371199
 1169         c3     47    bbb     C2   1169 -0.28250000  12.010000   ; qtot 0.088699
 1170         h1     47    bbb     H3   1170 0.15710000   1.008000   ; qtot 0.245799
 1171         h1     47    bbb     H4   1171 0.15710000   1.008000   ; qtot 0.402899
 1172         n3     47    bbb     N1   1172 -0.74090000  14.010000   ; qtot -0.338001
 1173         c3     47    bbb     C3   1173 0.51680000  12.010000   ; qtot 0.178799
 1174         h1     47    bbb     H5   1174 -0.05230000   1.008000   ; qtot 0.126499
 1175         h1     47    bbb     H6   1175 -0.05230000   1.008000   ; qtot 0.074199
 1176         c3     47    bbb     C4   1176 0.51680000  12.010000   ; qtot 0.590999
 1177         h1     47    bbb     H7   1177 -0.05230000   1.008000   ; qtot 0.538699
 1178         h1     47    bbb     H8   1178 -0.05230000   1.008000   ; qtot 0.486399
 1179         c3     47    bbb     C5   1179 -0.60390000  12.010000   ; qtot -0.117501
 1180         hc     47    bbb     H9   1180 0.16730000   1.008000   ; qtot 0.049799
 1181         hc     47    bbb    H10   1181 0.16730000   1.008000   ; qtot 0.217099
 1182         c3     47    bbb     C6   1182 -0.60390000  12.010000   ; qtot -0.386801
 1183         hc     47    bbb    H11   1183 0.16730000   1.008000   ; qtot -0.219501
 1184         hc     47    bbb    H12   1184 0.16730000   1.008000   ; qtot -0.052201
 1185          c     47    bbb     C7   1185 0.72110000  12.010000   ; qtot 0.668899
 1186          c     47    bbb     C8   1186 0.72110000  12.010000   ; qtot 1.389999
 1187          o     47    bbb     O1   1187 -0.61950000  16.000000   ; qtot 0.770499
 1188          o     47    bbb     O2   1188 -0.61950000  16.000000   ; qtot 0.150999
 1189          n     47    bbb     N4   1189 -0.46580000  14.010000   ; qtot -0.314801
 1190         hn     47    bbb    H21   1190 0.31480000   1.008000   ; qtot -0.000001
; residue   48 bbb rtp bbb q -0.0
 1191         c3     48    bbb     C1   1191 0.44180000  12.010000   ; qtot 0.441799
 1192         h1     48    bbb     H1   1192 -0.03530000   1.008000   ; qtot 0.406499
 1193         h1     48    bbb     H2   1193 -0.03530000   1.008000   ; qtot 0.371199
 1194         c3     48    bbb     C2   1194 -0.28250000  12.010000   ; qtot 0.088699
 1195         h1     48    bbb     H3   1195 0.15710000   1.008000   ; qtot 0.245799
 1196         h1     48    bbb     H4   1196 0.15710000   1.008000   ; qtot 0.402899
 1197         n3     48    bbb     N1   1197 -0.74090000  14.010000   ; qtot -0.338001
 1198         c3     48    bbb     C3   1198 0.51680000  12.010000   ; qtot 0.178799
 1199         h1     48    bbb     H5   1199 -0.05230000   1.008000   ; qtot 0.126499
 1200         h1     48    bbb     H6   1200 -0.05230000   1.008000   ; qtot 0.074199
 1201         c3     48    bbb     C4   1201 0.51680000  12.010000   ; qtot 0.590999
 1202         h1     48    bbb     H7   1202 -0.05230000   1.008000   ; qtot 0.538699
 1203         h1     48    bbb     H8   1203 -0.05230000   1.008000   ; qtot 0.486399
 1204         c3     48    bbb     C5   1204 -0.60390000  12.010000   ; qtot -0.117501
 1205         hc     48    bbb     H9   1205 0.16730000   1.008000   ; qtot 0.049799
 1206         hc     48    bbb    H10   1206 0.16730000   1.008000   ; qtot 0.217099
 1207         c3     48    bbb     C6   1207 -0.60390000  12.010000   ; qtot -0.386801
 1208         hc     48    bbb    H11   1208 0.16730000   1.008000   ; qtot -0.219501
 1209         hc     48    bbb    H12   1209 0.16730000   1.008000   ; qtot -0.052201
 1210          c     48    bbb     C7   1210 0.72110000  12.010000   ; qtot 0.668899
 1211          c     48    bbb     C8   1211 0.72110000  12.010000   ; qtot 1.389999
 1212          o     48    bbb     O1   1212 -0.61950000  16.000000   ; qtot 0.770499
 1213          o     48    bbb     O2   1213 -0.61950000  16.000000   ; qtot 0.150999
 1214          n     48    bbb     N4   1214 -0.46580000  14.010000   ; qtot -0.314801
 1215         hn     48    bbb    H21   1215 0.31480000   1.008000   ; qtot -0.000001
; residue   49 bbb rtp bbb q -0.0
 1216         c3     49    bbb     C1   1216 0.44180000  12.010000   ; qtot 0.441799
 1217         h1     49    bbb     H1   1217 -0.03530000   1.008000   ; qtot 0.406499
 1218         h1     49    bbb     H2   1218 -0.03530000   1.008000   ; qtot 0.371199
 1219         c3     49    bbb     C2   1219 -0.28250000  12.010000   ; qtot 0.088699
 1220         h1     49    bbb     H3   1220 0.15710000   1.008000   ; qtot 0.245799
 1221         h1     49    bbb     H4   1221 0.15710000   1.008000   ; qtot 0.402899
 1222         n3     49    bbb     N1   1222 -0.74090000  14.010000   ; qtot -0.338001
 1223         c3     49    bbb     C3   1223 0.51680000  12.010000   ; qtot 0.178799
 1224         h1     49    bbb     H5   1224 -0.05230000   1.008000   ; qtot 0.126499
 1225         h1     49    bbb     H6   1225 -0.05230000   1.008000   ; qtot 0.074199
 1226         c3     49    bbb     C4   1226 0.51680000  12.010000   ; qtot 0.590999
 1227         h1     49    bbb     H7   1227 -0.05230000   1.008000   ; qtot 0.538699
 1228         h1     49    bbb     H8   1228 -0.05230000   1.008000   ; qtot 0.486399
 1229         c3     49    bbb     C5   1229 -0.60390000  12.010000   ; qtot -0.117501
 1230         hc     49    bbb     H9   1230 0.16730000   1.008000   ; qtot 0.049799
 1231         hc     49    bbb    H10   1231 0.16730000   1.008000   ; qtot 0.217099
 1232         c3     49    bbb     C6   1232 -0.60390000  12.010000   ; qtot -0.386801
 1233         hc     49    bbb    H11   1233 0.16730000   1.008000   ; qtot -0.219501
 1234         hc     49    bbb    H12   1234 0.16730000   1.008000   ; qtot -0.052201
 1235          c     49    bbb     C7   1235 0.72110000  12.010000   ; qtot 0.668899
 1236          c     49    bbb     C8   1236 0.72110000  12.010000   ; qtot 1.389999
 1237          o     49    bbb     O1   1237 -0.61950000  16.000000   ; qtot 0.770499
 1238          o     49    bbb     O2   1238 -0.61950000  16.000000   ; qtot 0.150999
 1239          n     49    bbb     N4   1239 -0.46580000  14.010000   ; qtot -0.314801
 1240         hn     49    bbb    H21   1240 0.31480000   1.008000   ; qtot -0.000001
; residue   50 bbb rtp bbb q -0.0
 1241         c3     50    bbb     C1   1241 0.44180000  12.010000   ; qtot 0.441799
 1242         h1     50    bbb     H1   1242 -0.03530000   1.008000   ; qtot 0.406499
 1243         h1     50    bbb     H2   1243 -0.03530000   1.008000   ; qtot 0.371199
 1244         c3     50    bbb     C2   1244 -0.28250000  12.010000   ; qtot 0.088699
 1245         h1     50    bbb     H3   1245 0.15710000   1.008000   ; qtot 0.245799
 1246         h1     50    bbb     H4   1246 0.15710000   1.008000   ; qtot 0.402899
 1247         n3     50    bbb     N1   1247 -0.74090000  14.010000   ; qtot -0.338001
 1248         c3     50    bbb     C3   1248 0.51680000  12.010000   ; qtot 0.178799
 1249         h1     50    bbb     H5   1249 -0.05230000   1.008000   ; qtot 0.126499
 1250         h1     50    bbb     H6   1250 -0.05230000   1.008000   ; qtot 0.074199
 1251         c3     50    bbb     C4   1251 0.51680000  12.010000   ; qtot 0.590999
 1252         h1     50    bbb     H7   1252 -0.05230000   1.008000   ; qtot 0.538699
 1253         h1     50    bbb     H8   1253 -0.05230000   1.008000   ; qtot 0.486399
 1254         c3     50    bbb     C5   1254 -0.60390000  12.010000   ; qtot -0.117501
 1255         hc     50    bbb     H9   1255 0.16730000   1.008000   ; qtot 0.049799
 1256         hc     50    bbb    H10   1256 0.16730000   1.008000   ; qtot 0.217099
 1257         c3     50    bbb     C6   1257 -0.60390000  12.010000   ; qtot -0.386801
 1258         hc     50    bbb    H11   1258 0.16730000   1.008000   ; qtot -0.219501
 1259         hc     50    bbb    H12   1259 0.16730000   1.008000   ; qtot -0.052201
 1260          c     50    bbb     C7   1260 0.72110000  12.010000   ; qtot 0.668899
 1261          c     50    bbb     C8   1261 0.72110000  12.010000   ; qtot 1.389999
 1262          o     50    bbb     O1   1262 -0.61950000  16.000000   ; qtot 0.770499
 1263          o     50    bbb     O2   1263 -0.61950000  16.000000   ; qtot 0.150999
 1264          n     50    bbb     N4   1264 -0.46580000  14.010000   ; qtot -0.314801
 1265         hn     50    bbb    H21   1265 0.31480000   1.008000   ; qtot -0.000001
; residue   51 bbb rtp bbb q -0.0
 1266         c3     51    bbb     C1   1266 0.44180000  12.010000   ; qtot 0.441799
 1267         h1     51    bbb     H1   1267 -0.03530000   1.008000   ; qtot 0.406499
 1268         h1     51    bbb     H2   1268 -0.03530000   1.008000   ; qtot 0.371199
 1269         c3     51    bbb     C2   1269 -0.28250000  12.010000   ; qtot 0.088699
 1270         h1     51    bbb     H3   1270 0.15710000   1.008000   ; qtot 0.245799
 1271         h1     51    bbb     H4   1271 0.15710000   1.008000   ; qtot 0.402899
 1272         n3     51    bbb     N1   1272 -0.74090000  14.010000   ; qtot -0.338001
 1273         c3     51    bbb     C3   1273 0.51680000  12.010000   ; qtot 0.178799
 1274         h1     51    bbb     H5   1274 -0.05230000   1.008000   ; qtot 0.126499
 1275         h1     51    bbb     H6   1275 -0.05230000   1.008000   ; qtot 0.074199
 1276         c3     51    bbb     C4   1276 0.51680000  12.010000   ; qtot 0.590999
 1277         h1     51    bbb     H7   1277 -0.05230000   1.008000   ; qtot 0.538699
 1278         h1     51    bbb     H8   1278 -0.05230000   1.008000   ; qtot 0.486399
 1279         c3     51    bbb     C5   1279 -0.60390000  12.010000   ; qtot -0.117501
 1280         hc     51    bbb     H9   1280 0.16730000   1.008000   ; qtot 0.049799
 1281         hc     51    bbb    H10   1281 0.16730000   1.008000   ; qtot 0.217099
 1282         c3     51    bbb     C6   1282 -0.60390000  12.010000   ; qtot -0.386801
 1283         hc     51    bbb    H11   1283 0.16730000   1.008000   ; qtot -0.219501
 1284         hc     51    bbb    H12   1284 0.16730000   1.008000   ; qtot -0.052201
 1285          c     51    bbb     C7   1285 0.72110000  12.010000   ; qtot 0.668899
 1286          c     51    bbb     C8   1286 0.72110000  12.010000   ; qtot 1.389999
 1287          o     51    bbb     O1   1287 -0.61950000  16.000000   ; qtot 0.770499
 1288          o     51    bbb     O2   1288 -0.61950000  16.000000   ; qtot 0.150999
 1289          n     51    bbb     N4   1289 -0.46580000  14.010000   ; qtot -0.314801
 1290         hn     51    bbb    H21   1290 0.31480000   1.008000   ; qtot -0.000001
; residue   52 bbb rtp bbb q -0.0
 1291         c3     52    bbb     C1   1291 0.44180000  12.010000   ; qtot 0.441799
 1292         h1     52    bbb     H1   1292 -0.03530000   1.008000   ; qtot 0.406499
 1293         h1     52    bbb     H2   1293 -0.03530000   1.008000   ; qtot 0.371199
 1294         c3     52    bbb     C2   1294 -0.28250000  12.010000   ; qtot 0.088699
 1295         h1     52    bbb     H3   1295 0.15710000   1.008000   ; qtot 0.245799
 1296         h1     52    bbb     H4   1296 0.15710000   1.008000   ; qtot 0.402899
 1297         n3     52    bbb     N1   1297 -0.74090000  14.010000   ; qtot -0.338001
 1298         c3     52    bbb     C3   1298 0.51680000  12.010000   ; qtot 0.178799
 1299         h1     52    bbb     H5   1299 -0.05230000   1.008000   ; qtot 0.126499
 1300         h1     52    bbb     H6   1300 -0.05230000   1.008000   ; qtot 0.074199
 1301         c3     52    bbb     C4   1301 0.51680000  12.010000   ; qtot 0.590999
 1302         h1     52    bbb     H7   1302 -0.05230000   1.008000   ; qtot 0.538699
 1303         h1     52    bbb     H8   1303 -0.05230000   1.008000   ; qtot 0.486399
 1304         c3     52    bbb     C5   1304 -0.60390000  12.010000   ; qtot -0.117501
 1305         hc     52    bbb     H9   1305 0.16730000   1.008000   ; qtot 0.049799
 1306         hc     52    bbb    H10   1306 0.16730000   1.008000   ; qtot 0.217099
 1307         c3     52    bbb     C6   1307 -0.60390000  12.010000   ; qtot -0.386801
 1308         hc     52    bbb    H11   1308 0.16730000   1.008000   ; qtot -0.219501
 1309         hc     52    bbb    H12   1309 0.16730000   1.008000   ; qtot -0.052201
 1310          c     52    bbb     C7   1310 0.72110000  12.010000   ; qtot 0.668899
 1311          c     52    bbb     C8   1311 0.72110000  12.010000   ; qtot 1.389999
 1312          o     52    bbb     O1   1312 -0.61950000  16.000000   ; qtot 0.770499
 1313          o     52    bbb     O2   1313 -0.61950000  16.000000   ; qtot 0.150999
 1314          n     52    bbb     N4   1314 -0.46580000  14.010000   ; qtot -0.314801
 1315         hn     52    bbb    H21   1315 0.31480000   1.008000   ; qtot -0.000001
; residue   53 bbb rtp bbb q -0.0
 1316         c3     53    bbb     C1   1316 0.44180000  12.010000   ; qtot 0.441799
 1317         h1     53    bbb     H1   1317 -0.03530000   1.008000   ; qtot 0.406499
 1318         h1     53    bbb     H2   1318 -0.03530000   1.008000   ; qtot 0.371199
 1319         c3     53    bbb     C2   1319 -0.28250000  12.010000   ; qtot 0.088699
 1320         h1     53    bbb     H3   1320 0.15710000   1.008000   ; qtot 0.245799
 1321         h1     53    bbb     H4   1321 0.15710000   1.008000   ; qtot 0.402899
 1322         n3     53    bbb     N1   1322 -0.74090000  14.010000   ; qtot -0.338001
 1323         c3     53    bbb     C3   1323 0.51680000  12.010000   ; qtot 0.178799
 1324         h1     53    bbb     H5   1324 -0.05230000   1.008000   ; qtot 0.126499
 1325         h1     53    bbb     H6   1325 -0.05230000   1.008000   ; qtot 0.074199
 1326         c3     53    bbb     C4   1326 0.51680000  12.010000   ; qtot 0.590999
 1327         h1     53    bbb     H7   1327 -0.05230000   1.008000   ; qtot 0.538699
 1328         h1     53    bbb     H8   1328 -0.05230000   1.008000   ; qtot 0.486399
 1329         c3     53    bbb     C5   1329 -0.60390000  12.010000   ; qtot -0.117501
 1330         hc     53    bbb     H9   1330 0.16730000   1.008000   ; qtot 0.049799
 1331         hc     53    bbb    H10   1331 0.16730000   1.008000   ; qtot 0.217099
 1332         c3     53    bbb     C6   1332 -0.60390000  12.010000   ; qtot -0.386801
 1333         hc     53    bbb    H11   1333 0.16730000   1.008000   ; qtot -0.219501
 1334         hc     53    bbb    H12   1334 0.16730000   1.008000   ; qtot -0.052201
 1335          c     53    bbb     C7   1335 0.72110000  12.010000   ; qtot 0.668899
 1336          c     53    bbb     C8   1336 0.72110000  12.010000   ; qtot 1.389999
 1337          o     53    bbb     O1   1337 -0.61950000  16.000000   ; qtot 0.770499
 1338          o     53    bbb     O2   1338 -0.61950000  16.000000   ; qtot 0.150999
 1339          n     53    bbb     N4   1339 -0.46580000  14.010000   ; qtot -0.314801
 1340         hn     53    bbb    H21   1340 0.31480000   1.008000   ; qtot -0.000001
; residue   54 bbb rtp bbb q -0.0
 1341         c3     54    bbb     C1   1341 0.44180000  12.010000   ; qtot 0.441799
 1342         h1     54    bbb     H1   1342 -0.03530000   1.008000   ; qtot 0.406499
 1343         h1     54    bbb     H2   1343 -0.03530000   1.008000   ; qtot 0.371199
 1344         c3     54    bbb     C2   1344 -0.28250000  12.010000   ; qtot 0.088699
 1345         h1     54    bbb     H3   1345 0.15710000   1.008000   ; qtot 0.245799
 1346         h1     54    bbb     H4   1346 0.15710000   1.008000   ; qtot 0.402899
 1347         n3     54    bbb     N1   1347 -0.74090000  14.010000   ; qtot -0.338001
 1348         c3     54    bbb     C3   1348 0.51680000  12.010000   ; qtot 0.178799
 1349         h1     54    bbb     H5   1349 -0.05230000   1.008000   ; qtot 0.126499
 1350         h1     54    bbb     H6   1350 -0.05230000   1.008000   ; qtot 0.074199
 1351         c3     54    bbb     C4   1351 0.51680000  12.010000   ; qtot 0.590999
 1352         h1     54    bbb     H7   1352 -0.05230000   1.008000   ; qtot 0.538699
 1353         h1     54    bbb     H8   1353 -0.05230000   1.008000   ; qtot 0.486399
 1354         c3     54    bbb     C5   1354 -0.60390000  12.010000   ; qtot -0.117501
 1355         hc     54    bbb     H9   1355 0.16730000   1.008000   ; qtot 0.049799
 1356         hc     54    bbb    H10   1356 0.16730000   1.008000   ; qtot 0.217099
 1357         c3     54    bbb     C6   1357 -0.60390000  12.010000   ; qtot -0.386801
 1358         hc     54    bbb    H11   1358 0.16730000   1.008000   ; qtot -0.219501
 1359         hc     54    bbb    H12   1359 0.16730000   1.008000   ; qtot -0.052201
 1360          c     54    bbb     C7   1360 0.72110000  12.010000   ; qtot 0.668899
 1361          c     54    bbb     C8   1361 0.72110000  12.010000   ; qtot 1.389999
 1362          o     54    bbb     O1   1362 -0.61950000  16.000000   ; qtot 0.770499
 1363          o     54    bbb     O2   1363 -0.61950000  16.000000   ; qtot 0.150999
 1364          n     54    bbb     N4   1364 -0.46580000  14.010000   ; qtot -0.314801
 1365         hn     54    bbb    H21   1365 0.31480000   1.008000   ; qtot -0.000001
; residue   55 bbb rtp bbb q -0.0
 1366         c3     55    bbb     C1   1366 0.44180000  12.010000   ; qtot 0.441799
 1367         h1     55    bbb     H1   1367 -0.03530000   1.008000   ; qtot 0.406499
 1368         h1     55    bbb     H2   1368 -0.03530000   1.008000   ; qtot 0.371199
 1369         c3     55    bbb     C2   1369 -0.28250000  12.010000   ; qtot 0.088699
 1370         h1     55    bbb     H3   1370 0.15710000   1.008000   ; qtot 0.245799
 1371         h1     55    bbb     H4   1371 0.15710000   1.008000   ; qtot 0.402899
 1372         n3     55    bbb     N1   1372 -0.74090000  14.010000   ; qtot -0.338001
 1373         c3     55    bbb     C3   1373 0.51680000  12.010000   ; qtot 0.178799
 1374         h1     55    bbb     H5   1374 -0.05230000   1.008000   ; qtot 0.126499
 1375         h1     55    bbb     H6   1375 -0.05230000   1.008000   ; qtot 0.074199
 1376         c3     55    bbb     C4   1376 0.51680000  12.010000   ; qtot 0.590999
 1377         h1     55    bbb     H7   1377 -0.05230000   1.008000   ; qtot 0.538699
 1378         h1     55    bbb     H8   1378 -0.05230000   1.008000   ; qtot 0.486399
 1379         c3     55    bbb     C5   1379 -0.60390000  12.010000   ; qtot -0.117501
 1380         hc     55    bbb     H9   1380 0.16730000   1.008000   ; qtot 0.049799
 1381         hc     55    bbb    H10   1381 0.16730000   1.008000   ; qtot 0.217099
 1382         c3     55    bbb     C6   1382 -0.60390000  12.010000   ; qtot -0.386801
 1383         hc     55    bbb    H11   1383 0.16730000   1.008000   ; qtot -0.219501
 1384         hc     55    bbb    H12   1384 0.16730000   1.008000   ; qtot -0.052201
 1385          c     55    bbb     C7   1385 0.72110000  12.010000   ; qtot 0.668899
 1386          c     55    bbb     C8   1386 0.72110000  12.010000   ; qtot 1.389999
 1387          o     55    bbb     O1   1387 -0.61950000  16.000000   ; qtot 0.770499
 1388          o     55    bbb     O2   1388 -0.61950000  16.000000   ; qtot 0.150999
 1389          n     55    bbb     N4   1389 -0.46580000  14.010000   ; qtot -0.314801
 1390         hn     55    bbb    H21   1390 0.31480000   1.008000   ; qtot -0.000001
; residue   56 bbb rtp bbb q -0.0
 1391         c3     56    bbb     C1   1391 0.44180000  12.010000   ; qtot 0.441799
 1392         h1     56    bbb     H1   1392 -0.03530000   1.008000   ; qtot 0.406499
 1393         h1     56    bbb     H2   1393 -0.03530000   1.008000   ; qtot 0.371199
 1394         c3     56    bbb     C2   1394 -0.28250000  12.010000   ; qtot 0.088699
 1395         h1     56    bbb     H3   1395 0.15710000   1.008000   ; qtot 0.245799
 1396         h1     56    bbb     H4   1396 0.15710000   1.008000   ; qtot 0.402899
 1397         n3     56    bbb     N1   1397 -0.74090000  14.010000   ; qtot -0.338001
 1398         c3     56    bbb     C3   1398 0.51680000  12.010000   ; qtot 0.178799
 1399         h1     56    bbb     H5   1399 -0.05230000   1.008000   ; qtot 0.126499
 1400         h1     56    bbb     H6   1400 -0.05230000   1.008000   ; qtot 0.074199
 1401         c3     56    bbb     C4   1401 0.51680000  12.010000   ; qtot 0.590999
 1402         h1     56    bbb     H7   1402 -0.05230000   1.008000   ; qtot 0.538699
 1403         h1     56    bbb     H8   1403 -0.05230000   1.008000   ; qtot 0.486399
 1404         c3     56    bbb     C5   1404 -0.60390000  12.010000   ; qtot -0.117501
 1405         hc     56    bbb     H9   1405 0.16730000   1.008000   ; qtot 0.049799
 1406         hc     56    bbb    H10   1406 0.16730000   1.008000   ; qtot 0.217099
 1407         c3     56    bbb     C6   1407 -0.60390000  12.010000   ; qtot -0.386801
 1408         hc     56    bbb    H11   1408 0.16730000   1.008000   ; qtot -0.219501
 1409         hc     56    bbb    H12   1409 0.16730000   1.008000   ; qtot -0.052201
 1410          c     56    bbb     C7   1410 0.72110000  12.010000   ; qtot 0.668899
 1411          c     56    bbb     C8   1411 0.72110000  12.010000   ; qtot 1.389999
 1412          o     56    bbb     O1   1412 -0.61950000  16.000000   ; qtot 0.770499
 1413          o     56    bbb     O2   1413 -0.61950000  16.000000   ; qtot 0.150999
 1414          n     56    bbb     N4   1414 -0.46580000  14.010000   ; qtot -0.314801
 1415         hn     56    bbb    H21   1415 0.31480000   1.008000   ; qtot -0.000001
; residue   57 bbb rtp bbb q -0.0
 1416         c3     57    bbb     C1   1416 0.44180000  12.010000   ; qtot 0.441799
 1417         h1     57    bbb     H1   1417 -0.03530000   1.008000   ; qtot 0.406499
 1418         h1     57    bbb     H2   1418 -0.03530000   1.008000   ; qtot 0.371199
 1419         c3     57    bbb     C2   1419 -0.28250000  12.010000   ; qtot 0.088699
 1420         h1     57    bbb     H3   1420 0.15710000   1.008000   ; qtot 0.245799
 1421         h1     57    bbb     H4   1421 0.15710000   1.008000   ; qtot 0.402899
 1422         n3     57    bbb     N1   1422 -0.74090000  14.010000   ; qtot -0.338001
 1423         c3     57    bbb     C3   1423 0.51680000  12.010000   ; qtot 0.178799
 1424         h1     57    bbb     H5   1424 -0.05230000   1.008000   ; qtot 0.126499
 1425         h1     57    bbb     H6   1425 -0.05230000   1.008000   ; qtot 0.074199
 1426         c3     57    bbb     C4   1426 0.51680000  12.010000   ; qtot 0.590999
 1427         h1     57    bbb     H7   1427 -0.05230000   1.008000   ; qtot 0.538699
 1428         h1     57    bbb     H8   1428 -0.05230000   1.008000   ; qtot 0.486399
 1429         c3     57    bbb     C5   1429 -0.60390000  12.010000   ; qtot -0.117501
 1430         hc     57    bbb     H9   1430 0.16730000   1.008000   ; qtot 0.049799
 1431         hc     57    bbb    H10   1431 0.16730000   1.008000   ; qtot 0.217099
 1432         c3     57    bbb     C6   1432 -0.60390000  12.010000   ; qtot -0.386801
 1433         hc     57    bbb    H11   1433 0.16730000   1.008000   ; qtot -0.219501
 1434         hc     57    bbb    H12   1434 0.16730000   1.008000   ; qtot -0.052201
 1435          c     57    bbb     C7   1435 0.72110000  12.010000   ; qtot 0.668899
 1436          c     57    bbb     C8   1436 0.72110000  12.010000   ; qtot 1.389999
 1437          o     57    bbb     O1   1437 -0.61950000  16.000000   ; qtot 0.770499
 1438          o     57    bbb     O2   1438 -0.61950000  16.000000   ; qtot 0.150999
 1439          n     57    bbb     N4   1439 -0.46580000  14.010000   ; qtot -0.314801
 1440         hn     57    bbb    H21   1440 0.31480000   1.008000   ; qtot -0.000001
; residue   58 bbb rtp bbb q -0.0
 1441         c3     58    bbb     C1   1441 0.44180000  12.010000   ; qtot 0.441799
 1442         h1     58    bbb     H1   1442 -0.03530000   1.008000   ; qtot 0.406499
 1443         h1     58    bbb     H2   1443 -0.03530000   1.008000   ; qtot 0.371199
 1444         c3     58    bbb     C2   1444 -0.28250000  12.010000   ; qtot 0.088699
 1445         h1     58    bbb     H3   1445 0.15710000   1.008000   ; qtot 0.245799
 1446         h1     58    bbb     H4   1446 0.15710000   1.008000   ; qtot 0.402899
 1447         n3     58    bbb     N1   1447 -0.74090000  14.010000   ; qtot -0.338001
 1448         c3     58    bbb     C3   1448 0.51680000  12.010000   ; qtot 0.178799
 1449         h1     58    bbb     H5   1449 -0.05230000   1.008000   ; qtot 0.126499
 1450         h1     58    bbb     H6   1450 -0.05230000   1.008000   ; qtot 0.074199
 1451         c3     58    bbb     C4   1451 0.51680000  12.010000   ; qtot 0.590999
 1452         h1     58    bbb     H7   1452 -0.05230000   1.008000   ; qtot 0.538699
 1453         h1     58    bbb     H8   1453 -0.05230000   1.008000   ; qtot 0.486399
 1454         c3     58    bbb     C5   1454 -0.60390000  12.010000   ; qtot -0.117501
 1455         hc     58    bbb     H9   1455 0.16730000   1.008000   ; qtot 0.049799
 1456         hc     58    bbb    H10   1456 0.16730000   1.008000   ; qtot 0.217099
 1457         c3     58    bbb     C6   1457 -0.60390000  12.010000   ; qtot -0.386801
 1458         hc     58    bbb    H11   1458 0.16730000   1.008000   ; qtot -0.219501
 1459         hc     58    bbb    H12   1459 0.16730000   1.008000   ; qtot -0.052201
 1460          c     58    bbb     C7   1460 0.72110000  12.010000   ; qtot 0.668899
 1461          c     58    bbb     C8   1461 0.72110000  12.010000   ; qtot 1.389999
 1462          o     58    bbb     O1   1462 -0.61950000  16.000000   ; qtot 0.770499
 1463          o     58    bbb     O2   1463 -0.61950000  16.000000   ; qtot 0.150999
 1464          n     58    bbb     N4   1464 -0.46580000  14.010000   ; qtot -0.314801
 1465         hn     58    bbb    H21   1465 0.31480000   1.008000   ; qtot -0.000001
; residue   59 bbb rtp bbb q -0.0
 1466         c3     59    bbb     C1   1466 0.44180000  12.010000   ; qtot 0.441799
 1467         h1     59    bbb     H1   1467 -0.03530000   1.008000   ; qtot 0.406499
 1468         h1     59    bbb     H2   1468 -0.03530000   1.008000   ; qtot 0.371199
 1469         c3     59    bbb     C2   1469 -0.28250000  12.010000   ; qtot 0.088699
 1470         h1     59    bbb     H3   1470 0.15710000   1.008000   ; qtot 0.245799
 1471         h1     59    bbb     H4   1471 0.15710000   1.008000   ; qtot 0.402899
 1472         n3     59    bbb     N1   1472 -0.74090000  14.010000   ; qtot -0.338001
 1473         c3     59    bbb     C3   1473 0.51680000  12.010000   ; qtot 0.178799
 1474         h1     59    bbb     H5   1474 -0.05230000   1.008000   ; qtot 0.126499
 1475         h1     59    bbb     H6   1475 -0.05230000   1.008000   ; qtot 0.074199
 1476         c3     59    bbb     C4   1476 0.51680000  12.010000   ; qtot 0.590999
 1477         h1     59    bbb     H7   1477 -0.05230000   1.008000   ; qtot 0.538699
 1478         h1     59    bbb     H8   1478 -0.05230000   1.008000   ; qtot 0.486399
 1479         c3     59    bbb     C5   1479 -0.60390000  12.010000   ; qtot -0.117501
 1480         hc     59    bbb     H9   1480 0.16730000   1.008000   ; qtot 0.049799
 1481         hc     59    bbb    H10   1481 0.16730000   1.008000   ; qtot 0.217099
 1482         c3     59    bbb     C6   1482 -0.60390000  12.010000   ; qtot -0.386801
 1483         hc     59    bbb    H11   1483 0.16730000   1.008000   ; qtot -0.219501
 1484         hc     59    bbb    H12   1484 0.16730000   1.008000   ; qtot -0.052201
 1485          c     59    bbb     C7   1485 0.72110000  12.010000   ; qtot 0.668899
 1486          c     59    bbb     C8   1486 0.72110000  12.010000   ; qtot 1.389999
 1487          o     59    bbb     O1   1487 -0.61950000  16.000000   ; qtot 0.770499
 1488          o     59    bbb     O2   1488 -0.61950000  16.000000   ; qtot 0.150999
 1489          n     59    bbb     N4   1489 -0.46580000  14.010000   ; qtot -0.314801
 1490         hn     59    bbb    H21   1490 0.31480000   1.008000   ; qtot -0.000001
; residue   60 bbb rtp bbb q -0.0
 1491         c3     60    bbb     C1   1491 0.44180000  12.010000   ; qtot 0.441799
 1492         h1     60    bbb     H1   1492 -0.03530000   1.008000   ; qtot 0.406499
 1493         h1     60    bbb     H2   1493 -0.03530000   1.008000   ; qtot 0.371199
 1494         c3     60    bbb     C2   1494 -0.28250000  12.010000   ; qtot 0.088699
 1495         h1     60    bbb     H3   1495 0.15710000   1.008000   ; qtot 0.245799
 1496         h1     60    bbb     H4   1496 0.15710000   1.008000   ; qtot 0.402899
 1497         n3     60    bbb     N1   1497 -0.74090000  14.010000   ; qtot -0.338001
 1498         c3     60    bbb     C3   1498 0.51680000  12.010000   ; qtot 0.178799
 1499         h1     60    bbb     H5   1499 -0.05230000   1.008000   ; qtot 0.126499
 1500         h1     60    bbb     H6   1500 -0.05230000   1.008000   ; qtot 0.074199
 1501         c3     60    bbb     C4   1501 0.51680000  12.010000   ; qtot 0.590999
 1502         h1     60    bbb     H7   1502 -0.05230000   1.008000   ; qtot 0.538699
 1503         h1     60    bbb     H8   1503 -0.05230000   1.008000   ; qtot 0.486399
 1504         c3     60    bbb     C5   1504 -0.60390000  12.010000   ; qtot -0.117501
 1505         hc     60    bbb     H9   1505 0.16730000   1.008000   ; qtot 0.049799
 1506         hc     60    bbb    H10   1506 0.16730000   1.008000   ; qtot 0.217099
 1507         c3     60    bbb     C6   1507 -0.60390000  12.010000   ; qtot -0.386801
 1508         hc     60    bbb    H11   1508 0.16730000   1.008000   ; qtot -0.219501
 1509         hc     60    bbb    H12   1509 0.16730000   1.008000   ; qtot -0.052201
 1510          c     60    bbb     C7   1510 0.72110000  12.010000   ; qtot 0.668899
 1511          c     60    bbb     C8   1511 0.72110000  12.010000   ; qtot 1.389999
 1512          o     60    bbb     O1   1512 -0.61950000  16.000000   ; qtot 0.770499
 1513          o     60    bbb     O2   1513 -0.61950000  16.000000   ; qtot 0.150999
 1514          n     60    bbb     N4   1514 -0.46580000  14.010000   ; qtot -0.314801
 1515         hn     60    bbb    H21   1515 0.31480000   1.008000   ; qtot -0.000001
; residue   61 bbb rtp bbb q -0.0
 1516         c3     61    bbb     C1   1516 0.44180000  12.010000   ; qtot 0.441799
 1517         h1     61    bbb     H1   1517 -0.03530000   1.008000   ; qtot 0.406499
 1518         h1     61    bbb     H2   1518 -0.03530000   1.008000   ; qtot 0.371199
 1519         c3     61    bbb     C2   1519 -0.28250000  12.010000   ; qtot 0.088699
 1520         h1     61    bbb     H3   1520 0.15710000   1.008000   ; qtot 0.245799
 1521         h1     61    bbb     H4   1521 0.15710000   1.008000   ; qtot 0.402899
 1522         n3     61    bbb     N1   1522 -0.74090000  14.010000   ; qtot -0.338001
 1523         c3     61    bbb     C3   1523 0.51680000  12.010000   ; qtot 0.178799
 1524         h1     61    bbb     H5   1524 -0.05230000   1.008000   ; qtot 0.126499
 1525         h1     61    bbb     H6   1525 -0.05230000   1.008000   ; qtot 0.074199
 1526         c3     61    bbb     C4   1526 0.51680000  12.010000   ; qtot 0.590999
 1527         h1     61    bbb     H7   1527 -0.05230000   1.008000   ; qtot 0.538699
 1528         h1     61    bbb     H8   1528 -0.05230000   1.008000   ; qtot 0.486399
 1529         c3     61    bbb     C5   1529 -0.60390000  12.010000   ; qtot -0.117501
 1530         hc     61    bbb     H9   1530 0.16730000   1.008000   ; qtot 0.049799
 1531         hc     61    bbb    H10   1531 0.16730000   1.008000   ; qtot 0.217099
 1532         c3     61    bbb     C6   1532 -0.60390000  12.010000   ; qtot -0.386801
 1533         hc     61    bbb    H11   1533 0.16730000   1.008000   ; qtot -0.219501
 1534         hc     61    bbb    H12   1534 0.16730000   1.008000   ; qtot -0.052201
 1535          c     61    bbb     C7   1535 0.72110000  12.010000   ; qtot 0.668899
 1536          c     61    bbb     C8   1536 0.72110000  12.010000   ; qtot 1.389999
 1537          o     61    bbb     O1   1537 -0.61950000  16.000000   ; qtot 0.770499
 1538          o     61    bbb     O2   1538 -0.61950000  16.000000   ; qtot 0.150999
 1539          n     61    bbb     N4   1539 -0.46580000  14.010000   ; qtot -0.314801
 1540         hn     61    bbb    H21   1540 0.31480000   1.008000   ; qtot -0.000001
; residue   62 ccc rtp ccc q -0.0
 1541          n     62    ccc     N1   1541 -0.46580000  14.010000   ; qtot -0.465801
 1542         hn     62    ccc     H4   1542 0.31480000   1.008000   ; qtot -0.151001
 1543         c3     62    ccc     C3   1543 -0.28250000  12.010000   ; qtot -0.433501
 1544         h1     62    ccc     H5   1544 0.15710000   1.008000   ; qtot -0.276401
 1545         c3     62    ccc     C4   1545 0.44180000  12.010000   ; qtot 0.165399
 1546         h1     62    ccc     H6   1546 0.15710000   1.008000   ; qtot 0.322499
 1547         h1     62    ccc     H7   1547 -0.03530000   1.008000   ; qtot 0.287199
 1548         h1     62    ccc     H8   1548 -0.03530000   1.008000   ; qtot 0.251899
 1549         n3     62    ccc     N2   1549 -0.74090000  14.010000   ; qtot -0.489001
 1550         c3     62    ccc     C5   1550 0.51680000  12.010000   ; qtot 0.027799
 1551         c3     62    ccc     C6   1551 0.51680000  12.010000   ; qtot 0.544599
 1552         h1     62    ccc     H9   1552 -0.05230000   1.008000   ; qtot 0.492299
 1553         c3     62    ccc     C7   1553 -0.60390000  12.010000   ; qtot -0.111601
 1554         h1     62    ccc    H10   1554 -0.05230000   1.008000   ; qtot -0.163901
 1555         hc     62    ccc    H11   1555 0.16730000   1.008000   ; qtot 0.003399
 1556         hc     62    ccc    H12   1556 0.16730000   1.008000   ; qtot 0.170699
 1557          c     62    ccc     C8   1557 0.72110000  12.010000   ; qtot 0.891799
 1558          o     62    ccc     O2   1558 -0.61950000  16.000000   ; qtot 0.272299
 1559         h1     62    ccc    H13   1559 -0.05230000   1.008000   ; qtot 0.219999
 1560         h1     62    ccc    H14   1560 -0.05230000   1.008000   ; qtot 0.167699
 1561         c3     62    ccc     C9   1561 -0.60390000  12.010000   ; qtot -0.436201
 1562         hc     62    ccc    H15   1562 0.16730000   1.008000   ; qtot -0.268901
 1563         hc     62    ccc    H16   1563 0.16730000   1.008000   ; qtot -0.101601
 1564          c     62    ccc    C10   1564 0.72110000  12.010000   ; qtot 0.619499
 1565          o     62    ccc     O4   1565 -0.61950000  16.000000   ; qtot -0.000001
 1566         c3     62    ccc    C11   1566 0.08518000  12.010000   ; qtot 0.085179
 1567         c3     62    ccc    C12   1567 0.07918000  12.010000   ; qtot 0.164359
 1568         h1     62    ccc    H17   1568 0.06978000   1.008000   ; qtot 0.234139
 1569         c3     62    ccc    C13   1569 0.07918000  12.010000   ; qtot 0.313319
 1570         c3     62    ccc    C14   1570 0.03578000  12.010000   ; qtot 0.349099
 1571         c3     62    ccc    C15   1571 0.33498000  12.010000   ; qtot 0.684079
 1572         h1     62    ccc    H18   1572 0.06178000   1.008000   ; qtot 0.745859
 1573         h1     62    ccc    H19   1573 0.11278000   1.008000   ; qtot 0.858639
 1574         h2     62    ccc    H20   1574 0.12178000   1.008000   ; qtot 0.980419
 1575         oh     62    ccc     O1   1575 -0.56972000  16.000000   ; qtot 0.410699
 1576         oh     62    ccc     O6   1576 -0.57772000  16.000000   ; qtot -0.167021
 1577         c3     62    ccc    C16   1577 0.14548000  12.010000   ; qtot -0.021541
 1578         ho     62    ccc    H21   1578 0.40508000   1.008000   ; qtot 0.383539
 1579         hn     62    ccc    H22   1579 0.31758000   1.008000   ; qtot 0.701119
 1580         h1     62    ccc    H23   1580 0.06278000   1.008000   ; qtot 0.763899
 1581         h1     62    ccc    H24   1581 0.06278000   1.008000   ; qtot 0.826679
 1582         oh     62    ccc     O7   1582 -0.59472000  16.000000   ; qtot 0.231959
 1583         ho     62    ccc    H25   1583 0.41908000   1.008000   ; qtot 0.651039
 1584         os     62    ccc     O8   1584 -0.44552000  16.000000   ; qtot 0.205519
 1585         ho     62    ccc    H26   1585 0.41908000   1.008000   ; qtot 0.624599
 1586         h1     62    ccc    H27   1586 0.08578000   1.008000   ; qtot 0.710379
 1587         oh     62    ccc     O9   1587 -0.58672000  16.000000   ; qtot 0.123659
 1588         ho     62    ccc    H28   1588 0.41908000   1.008000   ; qtot 0.542739
 1589         n3     62    ccc     N3   1589 -0.54282000  14.010000   ; qtot -0.000081
 1590         c3     62    ccc    C17   1590 0.08518000  12.010000   ; qtot 0.085099
 1591         c3     62    ccc    C18   1591 0.07918000  12.010000   ; qtot 0.164279
 1592         h1     62    ccc    H29   1592 0.06978000   1.008000   ; qtot 0.234059
 1593         c3     62    ccc    C19   1593 0.07918000  12.010000   ; qtot 0.313239
 1594         c3     62    ccc    C20   1594 0.03578000  12.010000   ; qtot 0.349019
 1595         c3     62    ccc    C21   1595 0.33498000  12.010000   ; qtot 0.683999
 1596         h1     62    ccc    H30   1596 0.06178000   1.008000   ; qtot 0.745779
 1597         h1     62    ccc    H31   1597 0.11278000   1.008000   ; qtot 0.858559
 1598         h2     62    ccc    H32   1598 0.12178000   1.008000   ; qtot 0.980339
 1599         oh     62    ccc    O10   1599 -0.56972000  16.000000   ; qtot 0.410619
 1600         oh     62    ccc    O11   1600 -0.57772000  16.000000   ; qtot -0.167101
 1601         c3     62    ccc    C22   1601 0.14548000  12.010000   ; qtot -0.021621
 1602         ho     62    ccc    H33   1602 0.40508000   1.008000   ; qtot 0.383459
 1603         hn     62    ccc    H34   1603 0.31758000   1.008000   ; qtot 0.701039
 1604         h1     62    ccc    H35   1604 0.06278000   1.008000   ; qtot 0.763819
 1605         h1     62    ccc    H36   1605 0.06278000   1.008000   ; qtot 0.826599
 1606         oh     62    ccc    O12   1606 -0.59472000  16.000000   ; qtot 0.231879
 1607         ho     62    ccc    H37   1607 0.41908000   1.008000   ; qtot 0.650959
 1608         os     62    ccc    O13   1608 -0.44552000  16.000000   ; qtot 0.205439
 1609         ho     62    ccc    H38   1609 0.41908000   1.008000   ; qtot 0.624519
 1610         h1     62    ccc    H39   1610 0.08578000   1.008000   ; qtot 0.710299
 1611         oh     62    ccc     O5   1611 -0.58672000  16.000000   ; qtot 0.123579
 1612         ho     62    ccc    H40   1612 0.41908000   1.008000   ; qtot 0.542659
 1613         n3     62    ccc     N4   1613 -0.54282000  14.010000   ; qtot -0.000161
; residue   63 ccc rtp ccc q -0.0
 1614          n     63    ccc     N1   1614 -0.46580000  14.010000   ; qtot -0.465961
 1615         hn     63    ccc     H4   1615 0.31480000   1.008000   ; qtot -0.151161
 1616         c3     63    ccc     C3   1616 -0.28250000  12.010000   ; qtot -0.433661
 1617         h1     63    ccc     H5   1617 0.15710000   1.008000   ; qtot -0.276561
 1618         c3     63    ccc     C4   1618 0.44180000  12.010000   ; qtot 0.165239
 1619         h1     63    ccc     H6   1619 0.15710000   1.008000   ; qtot 0.322339
 1620         h1     63    ccc     H7   1620 -0.03530000   1.008000   ; qtot 0.287039
 1621         h1     63    ccc     H8   1621 -0.03530000   1.008000   ; qtot 0.251739
 1622         n3     63    ccc     N2   1622 -0.74090000  14.010000   ; qtot -0.489161
 1623         c3     63    ccc     C5   1623 0.51680000  12.010000   ; qtot 0.027639
 1624         c3     63    ccc     C6   1624 0.51680000  12.010000   ; qtot 0.544439
 1625         h1     63    ccc     H9   1625 -0.05230000   1.008000   ; qtot 0.492139
 1626         c3     63    ccc     C7   1626 -0.60390000  12.010000   ; qtot -0.111761
 1627         h1     63    ccc    H10   1627 -0.05230000   1.008000   ; qtot -0.164061
 1628         hc     63    ccc    H11   1628 0.16730000   1.008000   ; qtot 0.003239
 1629         hc     63    ccc    H12   1629 0.16730000   1.008000   ; qtot 0.170539
 1630          c     63    ccc     C8   1630 0.72110000  12.010000   ; qtot 0.891639
 1631          o     63    ccc     O2   1631 -0.61950000  16.000000   ; qtot 0.272139
 1632         h1     63    ccc    H13   1632 -0.05230000   1.008000   ; qtot 0.219839
 1633         h1     63    ccc    H14   1633 -0.05230000   1.008000   ; qtot 0.167539
 1634         c3     63    ccc     C9   1634 -0.60390000  12.010000   ; qtot -0.436361
 1635         hc     63    ccc    H15   1635 0.16730000   1.008000   ; qtot -0.269061
 1636         hc     63    ccc    H16   1636 0.16730000   1.008000   ; qtot -0.101761
 1637          c     63    ccc    C10   1637 0.72110000  12.010000   ; qtot 0.619339
 1638          o     63    ccc     O4   1638 -0.61950000  16.000000   ; qtot -0.000161
 1639         c3     63    ccc    C11   1639 0.08518000  12.010000   ; qtot 0.085019
 1640         c3     63    ccc    C12   1640 0.07918000  12.010000   ; qtot 0.164199
 1641         h1     63    ccc    H17   1641 0.06978000   1.008000   ; qtot 0.233979
 1642         c3     63    ccc    C13   1642 0.07918000  12.010000   ; qtot 0.313159
 1643         c3     63    ccc    C14   1643 0.03578000  12.010000   ; qtot 0.348939
 1644         c3     63    ccc    C15   1644 0.33498000  12.010000   ; qtot 0.683919
 1645         h1     63    ccc    H18   1645 0.06178000   1.008000   ; qtot 0.745699
 1646         h1     63    ccc    H19   1646 0.11278000   1.008000   ; qtot 0.858479
 1647         h2     63    ccc    H20   1647 0.12178000   1.008000   ; qtot 0.980259
 1648         oh     63    ccc     O1   1648 -0.56972000  16.000000   ; qtot 0.410539
 1649         oh     63    ccc     O6   1649 -0.57772000  16.000000   ; qtot -0.167181
 1650         c3     63    ccc    C16   1650 0.14548000  12.010000   ; qtot -0.021701
 1651         ho     63    ccc    H21   1651 0.40508000   1.008000   ; qtot 0.383379
 1652         hn     63    ccc    H22   1652 0.31758000   1.008000   ; qtot 0.700959
 1653         h1     63    ccc    H23   1653 0.06278000   1.008000   ; qtot 0.763739
 1654         h1     63    ccc    H24   1654 0.06278000   1.008000   ; qtot 0.826519
 1655         oh     63    ccc     O7   1655 -0.59472000  16.000000   ; qtot 0.231799
 1656         ho     63    ccc    H25   1656 0.41908000   1.008000   ; qtot 0.650879
 1657         os     63    ccc     O8   1657 -0.44552000  16.000000   ; qtot 0.205359
 1658         ho     63    ccc    H26   1658 0.41908000   1.008000   ; qtot 0.624439
 1659         h1     63    ccc    H27   1659 0.08578000   1.008000   ; qtot 0.710219
 1660         oh     63    ccc     O9   1660 -0.58672000  16.000000   ; qtot 0.123499
 1661         ho     63    ccc    H28   1661 0.41908000   1.008000   ; qtot 0.542579
 1662         n3     63    ccc     N3   1662 -0.54282000  14.010000   ; qtot -0.000241
 1663         c3     63    ccc    C17   1663 0.08518000  12.010000   ; qtot 0.084939
 1664         c3     63    ccc    C18   1664 0.07918000  12.010000   ; qtot 0.164119
 1665         h1     63    ccc    H29   1665 0.06978000   1.008000   ; qtot 0.233899
 1666         c3     63    ccc    C19   1666 0.07918000  12.010000   ; qtot 0.313079
 1667         c3     63    ccc    C20   1667 0.03578000  12.010000   ; qtot 0.348859
 1668         c3     63    ccc    C21   1668 0.33498000  12.010000   ; qtot 0.683839
 1669         h1     63    ccc    H30   1669 0.06178000   1.008000   ; qtot 0.745619
 1670         h1     63    ccc    H31   1670 0.11278000   1.008000   ; qtot 0.858399
 1671         h2     63    ccc    H32   1671 0.12178000   1.008000   ; qtot 0.980179
 1672         oh     63    ccc    O10   1672 -0.56972000  16.000000   ; qtot 0.410459
 1673         oh     63    ccc    O11   1673 -0.57772000  16.000000   ; qtot -0.167261
 1674         c3     63    ccc    C22   1674 0.14548000  12.010000   ; qtot -0.021781
 1675         ho     63    ccc    H33   1675 0.40508000   1.008000   ; qtot 0.383299
 1676         hn     63    ccc    H34   1676 0.31758000   1.008000   ; qtot 0.700879
 1677         h1     63    ccc    H35   1677 0.06278000   1.008000   ; qtot 0.763659
 1678         h1     63    ccc    H36   1678 0.06278000   1.008000   ; qtot 0.826439
 1679         oh     63    ccc    O12   1679 -0.59472000  16.000000   ; qtot 0.231719
 1680         ho     63    ccc    H37   1680 0.41908000   1.008000   ; qtot 0.650799
 1681         os     63    ccc    O13   1681 -0.44552000  16.000000   ; qtot 0.205279
 1682         ho     63    ccc    H38   1682 0.41908000   1.008000   ; qtot 0.624359
 1683         h1     63    ccc    H39   1683 0.08578000   1.008000   ; qtot 0.710139
 1684         oh     63    ccc     O5   1684 -0.58672000  16.000000   ; qtot 0.123419
 1685         ho     63    ccc    H40   1685 0.41908000   1.008000   ; qtot 0.542499
 1686         n3     63    ccc     N4   1686 -0.54282000  14.010000   ; qtot -0.000321
; residue   64 ccc rtp ccc q -0.0
 1687          n     64    ccc     N1   1687 -0.46580000  14.010000   ; qtot -0.466121
 1688         hn     64    ccc     H4   1688 0.31480000   1.008000   ; qtot -0.151321
 1689         c3     64    ccc     C3   1689 -0.28250000  12.010000   ; qtot -0.433821
 1690         h1     64    ccc     H5   1690 0.15710000   1.008000   ; qtot -0.276721
 1691         c3     64    ccc     C4   1691 0.44180000  12.010000   ; qtot 0.165079
 1692         h1     64    ccc     H6   1692 0.15710000   1.008000   ; qtot 0.322179
 1693         h1     64    ccc     H7   1693 -0.03530000   1.008000   ; qtot 0.286879
 1694         h1     64    ccc     H8   1694 -0.03530000   1.008000   ; qtot 0.251579
 1695         n3     64    ccc     N2   1695 -0.74090000  14.010000   ; qtot -0.489321
 1696         c3     64    ccc     C5   1696 0.51680000  12.010000   ; qtot 0.027479
 1697         c3     64    ccc     C6   1697 0.51680000  12.010000   ; qtot 0.544279
 1698         h1     64    ccc     H9   1698 -0.05230000   1.008000   ; qtot 0.491979
 1699         c3     64    ccc     C7   1699 -0.60390000  12.010000   ; qtot -0.111921
 1700         h1     64    ccc    H10   1700 -0.05230000   1.008000   ; qtot -0.164221
 1701         hc     64    ccc    H11   1701 0.16730000   1.008000   ; qtot 0.003079
 1702         hc     64    ccc    H12   1702 0.16730000   1.008000   ; qtot 0.170379
 1703          c     64    ccc     C8   1703 0.72110000  12.010000   ; qtot 0.891479
 1704          o     64    ccc     O2   1704 -0.61950000  16.000000   ; qtot 0.271979
 1705         h1     64    ccc    H13   1705 -0.05230000   1.008000   ; qtot 0.219679
 1706         h1     64    ccc    H14   1706 -0.05230000   1.008000   ; qtot 0.167379
 1707         c3     64    ccc     C9   1707 -0.60390000  12.010000   ; qtot -0.436521
 1708         hc     64    ccc    H15   1708 0.16730000   1.008000   ; qtot -0.269221
 1709         hc     64    ccc    H16   1709 0.16730000   1.008000   ; qtot -0.101921
 1710          c     64    ccc    C10   1710 0.72110000  12.010000   ; qtot 0.619179
 1711          o     64    ccc     O4   1711 -0.61950000  16.000000   ; qtot -0.000321
 1712         c3     64    ccc    C11   1712 0.08518000  12.010000   ; qtot 0.084859
 1713         c3     64    ccc    C12   1713 0.07918000  12.010000   ; qtot 0.164039
 1714         h1     64    ccc    H17   1714 0.06978000   1.008000   ; qtot 0.233819
 1715         c3     64    ccc    C13   1715 0.07918000  12.010000   ; qtot 0.312999
 1716         c3     64    ccc    C14   1716 0.03578000  12.010000   ; qtot 0.348779
 1717         c3     64    ccc    C15   1717 0.33498000  12.010000   ; qtot 0.683759
 1718         h1     64    ccc    H18   1718 0.06178000   1.008000   ; qtot 0.745539
 1719         h1     64    ccc    H19   1719 0.11278000   1.008000   ; qtot 0.858319
 1720         h2     64    ccc    H20   1720 0.12178000   1.008000   ; qtot 0.980099
 1721         oh     64    ccc     O1   1721 -0.56972000  16.000000   ; qtot 0.410379
 1722         oh     64    ccc     O6   1722 -0.57772000  16.000000   ; qtot -0.167341
 1723         c3     64    ccc    C16   1723 0.14548000  12.010000   ; qtot -0.021861
 1724         ho     64    ccc    H21   1724 0.40508000   1.008000   ; qtot 0.383219
 1725         hn     64    ccc    H22   1725 0.31758000   1.008000   ; qtot 0.700799
 1726         h1     64    ccc    H23   1726 0.06278000   1.008000   ; qtot 0.763579
 1727         h1     64    ccc    H24   1727 0.06278000   1.008000   ; qtot 0.826359
 1728         oh     64    ccc     O7   1728 -0.59472000  16.000000   ; qtot 0.231639
 1729         ho     64    ccc    H25   1729 0.41908000   1.008000   ; qtot 0.650719
 1730         os     64    ccc     O8   1730 -0.44552000  16.000000   ; qtot 0.205199
 1731         ho     64    ccc    H26   1731 0.41908000   1.008000   ; qtot 0.624279
 1732         h1     64    ccc    H27   1732 0.08578000   1.008000   ; qtot 0.710059
 1733         oh     64    ccc     O9   1733 -0.58672000  16.000000   ; qtot 0.123339
 1734         ho     64    ccc    H28   1734 0.41908000   1.008000   ; qtot 0.542419
 1735         n3     64    ccc     N3   1735 -0.54282000  14.010000   ; qtot -0.000401
 1736         c3     64    ccc    C17   1736 0.08518000  12.010000   ; qtot 0.084779
 1737         c3     64    ccc    C18   1737 0.07918000  12.010000   ; qtot 0.163959
 1738         h1     64    ccc    H29   1738 0.06978000   1.008000   ; qtot 0.233739
 1739         c3     64    ccc    C19   1739 0.07918000  12.010000   ; qtot 0.312919
 1740         c3     64    ccc    C20   1740 0.03578000  12.010000   ; qtot 0.348699
 1741         c3     64    ccc    C21   1741 0.33498000  12.010000   ; qtot 0.683679
 1742         h1     64    ccc    H30   1742 0.06178000   1.008000   ; qtot 0.745459
 1743         h1     64    ccc    H31   1743 0.11278000   1.008000   ; qtot 0.858239
 1744         h2     64    ccc    H32   1744 0.12178000   1.008000   ; qtot 0.980019
 1745         oh     64    ccc    O10   1745 -0.56972000  16.000000   ; qtot 0.410299
 1746         oh     64    ccc    O11   1746 -0.57772000  16.000000   ; qtot -0.167421
 1747         c3     64    ccc    C22   1747 0.14548000  12.010000   ; qtot -0.021941
 1748         ho     64    ccc    H33   1748 0.40508000   1.008000   ; qtot 0.383139
 1749         hn     64    ccc    H34   1749 0.31758000   1.008000   ; qtot 0.700719
 1750         h1     64    ccc    H35   1750 0.06278000   1.008000   ; qtot 0.763499
 1751         h1     64    ccc    H36   1751 0.06278000   1.008000   ; qtot 0.826279
 1752         oh     64    ccc    O12   1752 -0.59472000  16.000000   ; qtot 0.231559
 1753         ho     64    ccc    H37   1753 0.41908000   1.008000   ; qtot 0.650639
 1754         os     64    ccc    O13   1754 -0.44552000  16.000000   ; qtot 0.205119
 1755         ho     64    ccc    H38   1755 0.41908000   1.008000   ; qtot 0.624199
 1756         h1     64    ccc    H39   1756 0.08578000   1.008000   ; qtot 0.709979
 1757         oh     64    ccc     O5   1757 -0.58672000  16.000000   ; qtot 0.123259
 1758         ho     64    ccc    H40   1758 0.41908000   1.008000   ; qtot 0.542339
 1759         n3     64    ccc     N4   1759 -0.54282000  14.010000   ; qtot -0.000481
; residue   65 ccc rtp ccc q -0.0
 1760          n     65    ccc     N1   1760 -0.46580000  14.010000   ; qtot -0.466281
 1761         hn     65    ccc     H4   1761 0.31480000   1.008000   ; qtot -0.151481
 1762         c3     65    ccc     C3   1762 -0.28250000  12.010000   ; qtot -0.433981
 1763         h1     65    ccc     H5   1763 0.15710000   1.008000   ; qtot -0.276881
 1764         c3     65    ccc     C4   1764 0.44180000  12.010000   ; qtot 0.164919
 1765         h1     65    ccc     H6   1765 0.15710000   1.008000   ; qtot 0.322019
 1766         h1     65    ccc     H7   1766 -0.03530000   1.008000   ; qtot 0.286719
 1767         h1     65    ccc     H8   1767 -0.03530000   1.008000   ; qtot 0.251419
 1768         n3     65    ccc     N2   1768 -0.74090000  14.010000   ; qtot -0.489481
 1769         c3     65    ccc     C5   1769 0.51680000  12.010000   ; qtot 0.027319
 1770         c3     65    ccc     C6   1770 0.51680000  12.010000   ; qtot 0.544119
 1771         h1     65    ccc     H9   1771 -0.05230000   1.008000   ; qtot 0.491819
 1772         c3     65    ccc     C7   1772 -0.60390000  12.010000   ; qtot -0.112081
 1773         h1     65    ccc    H10   1773 -0.05230000   1.008000   ; qtot -0.164381
 1774         hc     65    ccc    H11   1774 0.16730000   1.008000   ; qtot 0.002919
 1775         hc     65    ccc    H12   1775 0.16730000   1.008000   ; qtot 0.170219
 1776          c     65    ccc     C8   1776 0.72110000  12.010000   ; qtot 0.891319
 1777          o     65    ccc     O2   1777 -0.61950000  16.000000   ; qtot 0.271819
 1778         h1     65    ccc    H13   1778 -0.05230000   1.008000   ; qtot 0.219519
 1779         h1     65    ccc    H14   1779 -0.05230000   1.008000   ; qtot 0.167219
 1780         c3     65    ccc     C9   1780 -0.60390000  12.010000   ; qtot -0.436681
 1781         hc     65    ccc    H15   1781 0.16730000   1.008000   ; qtot -0.269381
 1782         hc     65    ccc    H16   1782 0.16730000   1.008000   ; qtot -0.102081
 1783          c     65    ccc    C10   1783 0.72110000  12.010000   ; qtot 0.619019
 1784          o     65    ccc     O4   1784 -0.61950000  16.000000   ; qtot -0.000481
 1785         c3     65    ccc    C11   1785 0.08518000  12.010000   ; qtot 0.084699
 1786         c3     65    ccc    C12   1786 0.07918000  12.010000   ; qtot 0.163879
 1787         h1     65    ccc    H17   1787 0.06978000   1.008000   ; qtot 0.233659
 1788         c3     65    ccc    C13   1788 0.07918000  12.010000   ; qtot 0.312839
 1789         c3     65    ccc    C14   1789 0.03578000  12.010000   ; qtot 0.348619
 1790         c3     65    ccc    C15   1790 0.33498000  12.010000   ; qtot 0.683599
 1791         h1     65    ccc    H18   1791 0.06178000   1.008000   ; qtot 0.745379
 1792         h1     65    ccc    H19   1792 0.11278000   1.008000   ; qtot 0.858159
 1793         h2     65    ccc    H20   1793 0.12178000   1.008000   ; qtot 0.979939
 1794         oh     65    ccc     O1   1794 -0.56972000  16.000000   ; qtot 0.410219
 1795         oh     65    ccc     O6   1795 -0.57772000  16.000000   ; qtot -0.167501
 1796         c3     65    ccc    C16   1796 0.14548000  12.010000   ; qtot -0.022021
 1797         ho     65    ccc    H21   1797 0.40508000   1.008000   ; qtot 0.383059
 1798         hn     65    ccc    H22   1798 0.31758000   1.008000   ; qtot 0.700639
 1799         h1     65    ccc    H23   1799 0.06278000   1.008000   ; qtot 0.763419
 1800         h1     65    ccc    H24   1800 0.06278000   1.008000   ; qtot 0.826199
 1801         oh     65    ccc     O7   1801 -0.59472000  16.000000   ; qtot 0.231479
 1802         ho     65    ccc    H25   1802 0.41908000   1.008000   ; qtot 0.650559
 1803         os     65    ccc     O8   1803 -0.44552000  16.000000   ; qtot 0.205039
 1804         ho     65    ccc    H26   1804 0.41908000   1.008000   ; qtot 0.624119
 1805         h1     65    ccc    H27   1805 0.08578000   1.008000   ; qtot 0.709899
 1806         oh     65    ccc     O9   1806 -0.58672000  16.000000   ; qtot 0.123179
 1807         ho     65    ccc    H28   1807 0.41908000   1.008000   ; qtot 0.542259
 1808         n3     65    ccc     N3   1808 -0.54282000  14.010000   ; qtot -0.000561
 1809         c3     65    ccc    C17   1809 0.08518000  12.010000   ; qtot 0.084619
 1810         c3     65    ccc    C18   1810 0.07918000  12.010000   ; qtot 0.163799
 1811         h1     65    ccc    H29   1811 0.06978000   1.008000   ; qtot 0.233579
 1812         c3     65    ccc    C19   1812 0.07918000  12.010000   ; qtot 0.312759
 1813         c3     65    ccc    C20   1813 0.03578000  12.010000   ; qtot 0.348539
 1814         c3     65    ccc    C21   1814 0.33498000  12.010000   ; qtot 0.683519
 1815         h1     65    ccc    H30   1815 0.06178000   1.008000   ; qtot 0.745299
 1816         h1     65    ccc    H31   1816 0.11278000   1.008000   ; qtot 0.858079
 1817         h2     65    ccc    H32   1817 0.12178000   1.008000   ; qtot 0.979859
 1818         oh     65    ccc    O10   1818 -0.56972000  16.000000   ; qtot 0.410139
 1819         oh     65    ccc    O11   1819 -0.57772000  16.000000   ; qtot -0.167581
 1820         c3     65    ccc    C22   1820 0.14548000  12.010000   ; qtot -0.022101
 1821         ho     65    ccc    H33   1821 0.40508000   1.008000   ; qtot 0.382979
 1822         hn     65    ccc    H34   1822 0.31758000   1.008000   ; qtot 0.700559
 1823         h1     65    ccc    H35   1823 0.06278000   1.008000   ; qtot 0.763339
 1824         h1     65    ccc    H36   1824 0.06278000   1.008000   ; qtot 0.826119
 1825         oh     65    ccc    O12   1825 -0.59472000  16.000000   ; qtot 0.231399
 1826         ho     65    ccc    H37   1826 0.41908000   1.008000   ; qtot 0.650479
 1827         os     65    ccc    O13   1827 -0.44552000  16.000000   ; qtot 0.204959
 1828         ho     65    ccc    H38   1828 0.41908000   1.008000   ; qtot 0.624039
 1829         h1     65    ccc    H39   1829 0.08578000   1.008000   ; qtot 0.709819
 1830         oh     65    ccc     O5   1830 -0.58672000  16.000000   ; qtot 0.123099
 1831         ho     65    ccc    H40   1831 0.41908000   1.008000   ; qtot 0.542179
 1832         n3     65    ccc     N4   1832 -0.54282000  14.010000   ; qtot -0.000641
; residue   66 ccc rtp ccc q -0.0
 1833          n     66    ccc     N1   1833 -0.46580000  14.010000   ; qtot -0.466441
 1834         hn     66    ccc     H4   1834 0.31480000   1.008000   ; qtot -0.151641
 1835         c3     66    ccc     C3   1835 -0.28250000  12.010000   ; qtot -0.434141
 1836         h1     66    ccc     H5   1836 0.15710000   1.008000   ; qtot -0.277041
 1837         c3     66    ccc     C4   1837 0.44180000  12.010000   ; qtot 0.164759
 1838         h1     66    ccc     H6   1838 0.15710000   1.008000   ; qtot 0.321859
 1839         h1     66    ccc     H7   1839 -0.03530000   1.008000   ; qtot 0.286559
 1840         h1     66    ccc     H8   1840 -0.03530000   1.008000   ; qtot 0.251259
 1841         n3     66    ccc     N2   1841 -0.74090000  14.010000   ; qtot -0.489641
 1842         c3     66    ccc     C5   1842 0.51680000  12.010000   ; qtot 0.027159
 1843         c3     66    ccc     C6   1843 0.51680000  12.010000   ; qtot 0.543959
 1844         h1     66    ccc     H9   1844 -0.05230000   1.008000   ; qtot 0.491659
 1845         c3     66    ccc     C7   1845 -0.60390000  12.010000   ; qtot -0.112241
 1846         h1     66    ccc    H10   1846 -0.05230000   1.008000   ; qtot -0.164541
 1847         hc     66    ccc    H11   1847 0.16730000   1.008000   ; qtot 0.002759
 1848         hc     66    ccc    H12   1848 0.16730000   1.008000   ; qtot 0.170059
 1849          c     66    ccc     C8   1849 0.72110000  12.010000   ; qtot 0.891159
 1850          o     66    ccc     O2   1850 -0.61950000  16.000000   ; qtot 0.271659
 1851         h1     66    ccc    H13   1851 -0.05230000   1.008000   ; qtot 0.219359
 1852         h1     66    ccc    H14   1852 -0.05230000   1.008000   ; qtot 0.167059
 1853         c3     66    ccc     C9   1853 -0.60390000  12.010000   ; qtot -0.436841
 1854         hc     66    ccc    H15   1854 0.16730000   1.008000   ; qtot -0.269541
 1855         hc     66    ccc    H16   1855 0.16730000   1.008000   ; qtot -0.102241
 1856          c     66    ccc    C10   1856 0.72110000  12.010000   ; qtot 0.618859
 1857          o     66    ccc     O4   1857 -0.61950000  16.000000   ; qtot -0.000641
 1858         c3     66    ccc    C11   1858 0.08518000  12.010000   ; qtot 0.084539
 1859         c3     66    ccc    C12   1859 0.07918000  12.010000   ; qtot 0.163719
 1860         h1     66    ccc    H17   1860 0.06978000   1.008000   ; qtot 0.233499
 1861         c3     66    ccc    C13   1861 0.07918000  12.010000   ; qtot 0.312679
 1862         c3     66    ccc    C14   1862 0.03578000  12.010000   ; qtot 0.348459
 1863         c3     66    ccc    C15   1863 0.33498000  12.010000   ; qtot 0.683439
 1864         h1     66    ccc    H18   1864 0.06178000   1.008000   ; qtot 0.745219
 1865         h1     66    ccc    H19   1865 0.11278000   1.008000   ; qtot 0.857999
 1866         h2     66    ccc    H20   1866 0.12178000   1.008000   ; qtot 0.979779
 1867         oh     66    ccc     O1   1867 -0.56972000  16.000000   ; qtot 0.410059
 1868         oh     66    ccc     O6   1868 -0.57772000  16.000000   ; qtot -0.167661
 1869         c3     66    ccc    C16   1869 0.14548000  12.010000   ; qtot -0.022181
 1870         ho     66    ccc    H21   1870 0.40508000   1.008000   ; qtot 0.382899
 1871         hn     66    ccc    H22   1871 0.31758000   1.008000   ; qtot 0.700479
 1872         h1     66    ccc    H23   1872 0.06278000   1.008000   ; qtot 0.763259
 1873         h1     66    ccc    H24   1873 0.06278000   1.008000   ; qtot 0.826039
 1874         oh     66    ccc     O7   1874 -0.59472000  16.000000   ; qtot 0.231319
 1875         ho     66    ccc    H25   1875 0.41908000   1.008000   ; qtot 0.650399
 1876         os     66    ccc     O8   1876 -0.44552000  16.000000   ; qtot 0.204879
 1877         ho     66    ccc    H26   1877 0.41908000   1.008000   ; qtot 0.623959
 1878         h1     66    ccc    H27   1878 0.08578000   1.008000   ; qtot 0.709739
 1879         oh     66    ccc     O9   1879 -0.58672000  16.000000   ; qtot 0.123019
 1880         ho     66    ccc    H28   1880 0.41908000   1.008000   ; qtot 0.542099
 1881         n3     66    ccc     N3   1881 -0.54282000  14.010000   ; qtot -0.000721
 1882         c3     66    ccc    C17   1882 0.08518000  12.010000   ; qtot 0.084459
 1883         c3     66    ccc    C18   1883 0.07918000  12.010000   ; qtot 0.163639
 1884         h1     66    ccc    H29   1884 0.06978000   1.008000   ; qtot 0.233419
 1885         c3     66    ccc    C19   1885 0.07918000  12.010000   ; qtot 0.312599
 1886         c3     66    ccc    C20   1886 0.03578000  12.010000   ; qtot 0.348379
 1887         c3     66    ccc    C21   1887 0.33498000  12.010000   ; qtot 0.683359
 1888         h1     66    ccc    H30   1888 0.06178000   1.008000   ; qtot 0.745139
 1889         h1     66    ccc    H31   1889 0.11278000   1.008000   ; qtot 0.857919
 1890         h2     66    ccc    H32   1890 0.12178000   1.008000   ; qtot 0.979699
 1891         oh     66    ccc    O10   1891 -0.56972000  16.000000   ; qtot 0.409979
 1892         oh     66    ccc    O11   1892 -0.57772000  16.000000   ; qtot -0.167741
 1893         c3     66    ccc    C22   1893 0.14548000  12.010000   ; qtot -0.022261
 1894         ho     66    ccc    H33   1894 0.40508000   1.008000   ; qtot 0.382819
 1895         hn     66    ccc    H34   1895 0.31758000   1.008000   ; qtot 0.700399
 1896         h1     66    ccc    H35   1896 0.06278000   1.008000   ; qtot 0.763179
 1897         h1     66    ccc    H36   1897 0.06278000   1.008000   ; qtot 0.825959
 1898         oh     66    ccc    O12   1898 -0.59472000  16.000000   ; qtot 0.231239
 1899         ho     66    ccc    H37   1899 0.41908000   1.008000   ; qtot 0.650319
 1900         os     66    ccc    O13   1900 -0.44552000  16.000000   ; qtot 0.204799
 1901         ho     66    ccc    H38   1901 0.41908000   1.008000   ; qtot 0.623879
 1902         h1     66    ccc    H39   1902 0.08578000   1.008000   ; qtot 0.709659
 1903         oh     66    ccc     O5   1903 -0.58672000  16.000000   ; qtot 0.122939
 1904         ho     66    ccc    H40   1904 0.41908000   1.008000   ; qtot 0.542019
 1905         n3     66    ccc     N4   1905 -0.54282000  14.010000   ; qtot -0.000801
; residue   67 ccc rtp ccc q -0.0
 1906          n     67    ccc     N1   1906 -0.46580000  14.010000   ; qtot -0.466601
 1907         hn     67    ccc     H4   1907 0.31480000   1.008000   ; qtot -0.151801
 1908         c3     67    ccc     C3   1908 -0.28250000  12.010000   ; qtot -0.434301
 1909         h1     67    ccc     H5   1909 0.15710000   1.008000   ; qtot -0.277201
 1910         c3     67    ccc     C4   1910 0.44180000  12.010000   ; qtot 0.164599
 1911         h1     67    ccc     H6   1911 0.15710000   1.008000   ; qtot 0.321699
 1912         h1     67    ccc     H7   1912 -0.03530000   1.008000   ; qtot 0.286399
 1913         h1     67    ccc     H8   1913 -0.03530000   1.008000   ; qtot 0.251099
 1914         n3     67    ccc     N2   1914 -0.74090000  14.010000   ; qtot -0.489801
 1915         c3     67    ccc     C5   1915 0.51680000  12.010000   ; qtot 0.026999
 1916         c3     67    ccc     C6   1916 0.51680000  12.010000   ; qtot 0.543799
 1917         h1     67    ccc     H9   1917 -0.05230000   1.008000   ; qtot 0.491499
 1918         c3     67    ccc     C7   1918 -0.60390000  12.010000   ; qtot -0.112401
 1919         h1     67    ccc    H10   1919 -0.05230000   1.008000   ; qtot -0.164701
 1920         hc     67    ccc    H11   1920 0.16730000   1.008000   ; qtot 0.002599
 1921         hc     67    ccc    H12   1921 0.16730000   1.008000   ; qtot 0.169899
 1922          c     67    ccc     C8   1922 0.72110000  12.010000   ; qtot 0.890999
 1923          o     67    ccc     O2   1923 -0.61950000  16.000000   ; qtot 0.271499
 1924         h1     67    ccc    H13   1924 -0.05230000   1.008000   ; qtot 0.219199
 1925         h1     67    ccc    H14   1925 -0.05230000   1.008000   ; qtot 0.166899
 1926         c3     67    ccc     C9   1926 -0.60390000  12.010000   ; qtot -0.437001
 1927         hc     67    ccc    H15   1927 0.16730000   1.008000   ; qtot -0.269701
 1928         hc     67    ccc    H16   1928 0.16730000   1.008000   ; qtot -0.102401
 1929          c     67    ccc    C10   1929 0.72110000  12.010000   ; qtot 0.618699
 1930          o     67    ccc     O4   1930 -0.61950000  16.000000   ; qtot -0.000801
 1931         c3     67    ccc    C11   1931 0.08518000  12.010000   ; qtot 0.084379
 1932         c3     67    ccc    C12   1932 0.07918000  12.010000   ; qtot 0.163559
 1933         h1     67    ccc    H17   1933 0.06978000   1.008000   ; qtot 0.233339
 1934         c3     67    ccc    C13   1934 0.07918000  12.010000   ; qtot 0.312519
 1935         c3     67    ccc    C14   1935 0.03578000  12.010000   ; qtot 0.348299
 1936         c3     67    ccc    C15   1936 0.33498000  12.010000   ; qtot 0.683279
 1937         h1     67    ccc    H18   1937 0.06178000   1.008000   ; qtot 0.745059
 1938         h1     67    ccc    H19   1938 0.11278000   1.008000   ; qtot 0.857839
 1939         h2     67    ccc    H20   1939 0.12178000   1.008000   ; qtot 0.979619
 1940         oh     67    ccc     O1   1940 -0.56972000  16.000000   ; qtot 0.409899
 1941         oh     67    ccc     O6   1941 -0.57772000  16.000000   ; qtot -0.167821
 1942         c3     67    ccc    C16   1942 0.14548000  12.010000   ; qtot -0.022341
 1943         ho     67    ccc    H21   1943 0.40508000   1.008000   ; qtot 0.382739
 1944         hn     67    ccc    H22   1944 0.31758000   1.008000   ; qtot 0.700319
 1945         h1     67    ccc    H23   1945 0.06278000   1.008000   ; qtot 0.763099
 1946         h1     67    ccc    H24   1946 0.06278000   1.008000   ; qtot 0.825879
 1947         oh     67    ccc     O7   1947 -0.59472000  16.000000   ; qtot 0.231159
 1948         ho     67    ccc    H25   1948 0.41908000   1.008000   ; qtot 0.650239
 1949         os     67    ccc     O8   1949 -0.44552000  16.000000   ; qtot 0.204719
 1950         ho     67    ccc    H26   1950 0.41908000   1.008000   ; qtot 0.623799
 1951         h1     67    ccc    H27   1951 0.08578000   1.008000   ; qtot 0.709579
 1952         oh     67    ccc     O9   1952 -0.58672000  16.000000   ; qtot 0.122859
 1953         ho     67    ccc    H28   1953 0.41908000   1.008000   ; qtot 0.541939
 1954         n3     67    ccc     N3   1954 -0.54282000  14.010000   ; qtot -0.000881
 1955         c3     67    ccc    C17   1955 0.08518000  12.010000   ; qtot 0.084299
 1956         c3     67    ccc    C18   1956 0.07918000  12.010000   ; qtot 0.163479
 1957         h1     67    ccc    H29   1957 0.06978000   1.008000   ; qtot 0.233259
 1958         c3     67    ccc    C19   1958 0.07918000  12.010000   ; qtot 0.312439
 1959         c3     67    ccc    C20   1959 0.03578000  12.010000   ; qtot 0.348219
 1960         c3     67    ccc    C21   1960 0.33498000  12.010000   ; qtot 0.683199
 1961         h1     67    ccc    H30   1961 0.06178000   1.008000   ; qtot 0.744979
 1962         h1     67    ccc    H31   1962 0.11278000   1.008000   ; qtot 0.857759
 1963         h2     67    ccc    H32   1963 0.12178000   1.008000   ; qtot 0.979539
 1964         oh     67    ccc    O10   1964 -0.56972000  16.000000   ; qtot 0.409819
 1965         oh     67    ccc    O11   1965 -0.57772000  16.000000   ; qtot -0.167901
 1966         c3     67    ccc    C22   1966 0.14548000  12.010000   ; qtot -0.022421
 1967         ho     67    ccc    H33   1967 0.40508000   1.008000   ; qtot 0.382659
 1968         hn     67    ccc    H34   1968 0.31758000   1.008000   ; qtot 0.700239
 1969         h1     67    ccc    H35   1969 0.06278000   1.008000   ; qtot 0.763019
 1970         h1     67    ccc    H36   1970 0.06278000   1.008000   ; qtot 0.825799
 1971         oh     67    ccc    O12   1971 -0.59472000  16.000000   ; qtot 0.231079
 1972         ho     67    ccc    H37   1972 0.41908000   1.008000   ; qtot 0.650159
 1973         os     67    ccc    O13   1973 -0.44552000  16.000000   ; qtot 0.204639
 1974         ho     67    ccc    H38   1974 0.41908000   1.008000   ; qtot 0.623719
 1975         h1     67    ccc    H39   1975 0.08578000   1.008000   ; qtot 0.709499
 1976         oh     67    ccc     O5   1976 -0.58672000  16.000000   ; qtot 0.122779
 1977         ho     67    ccc    H40   1977 0.41908000   1.008000   ; qtot 0.541859
 1978         n3     67    ccc     N4   1978 -0.54282000  14.010000   ; qtot -0.000961
; residue   68 ccc rtp ccc q -0.0
 1979          n     68    ccc     N1   1979 -0.46580000  14.010000   ; qtot -0.466761
 1980         hn     68    ccc     H4   1980 0.31480000   1.008000   ; qtot -0.151961
 1981         c3     68    ccc     C3   1981 -0.28250000  12.010000   ; qtot -0.434461
 1982         h1     68    ccc     H5   1982 0.15710000   1.008000   ; qtot -0.277361
 1983         c3     68    ccc     C4   1983 0.44180000  12.010000   ; qtot 0.164439
 1984         h1     68    ccc     H6   1984 0.15710000   1.008000   ; qtot 0.321539
 1985         h1     68    ccc     H7   1985 -0.03530000   1.008000   ; qtot 0.286239
 1986         h1     68    ccc     H8   1986 -0.03530000   1.008000   ; qtot 0.250939
 1987         n3     68    ccc     N2   1987 -0.74090000  14.010000   ; qtot -0.489961
 1988         c3     68    ccc     C5   1988 0.51680000  12.010000   ; qtot 0.026839
 1989         c3     68    ccc     C6   1989 0.51680000  12.010000   ; qtot 0.543639
 1990         h1     68    ccc     H9   1990 -0.05230000   1.008000   ; qtot 0.491339
 1991         c3     68    ccc     C7   1991 -0.60390000  12.010000   ; qtot -0.112561
 1992         h1     68    ccc    H10   1992 -0.05230000   1.008000   ; qtot -0.164861
 1993         hc     68    ccc    H11   1993 0.16730000   1.008000   ; qtot 0.002439
 1994         hc     68    ccc    H12   1994 0.16730000   1.008000   ; qtot 0.169739
 1995          c     68    ccc     C8   1995 0.72110000  12.010000   ; qtot 0.890839
 1996          o     68    ccc     O2   1996 -0.61950000  16.000000   ; qtot 0.271339
 1997         h1     68    ccc    H13   1997 -0.05230000   1.008000   ; qtot 0.219039
 1998         h1     68    ccc    H14   1998 -0.05230000   1.008000   ; qtot 0.166739
 1999         c3     68    ccc     C9   1999 -0.60390000  12.010000   ; qtot -0.437161
 2000         hc     68    ccc    H15   2000 0.16730000   1.008000   ; qtot -0.269861
 2001         hc     68    ccc    H16   2001 0.16730000   1.008000   ; qtot -0.102561
 2002          c     68    ccc    C10   2002 0.72110000  12.010000   ; qtot 0.618539
 2003          o     68    ccc     O4   2003 -0.61950000  16.000000   ; qtot -0.000961
 2004         c3     68    ccc    C11   2004 0.08518000  12.010000   ; qtot 0.084219
 2005         c3     68    ccc    C12   2005 0.07918000  12.010000   ; qtot 0.163399
 2006         h1     68    ccc    H17   2006 0.06978000   1.008000   ; qtot 0.233179
 2007         c3     68    ccc    C13   2007 0.07918000  12.010000   ; qtot 0.312359
 2008         c3     68    ccc    C14   2008 0.03578000  12.010000   ; qtot 0.348139
 2009         c3     68    ccc    C15   2009 0.33498000  12.010000   ; qtot 0.683119
 2010         h1     68    ccc    H18   2010 0.06178000   1.008000   ; qtot 0.744899
 2011         h1     68    ccc    H19   2011 0.11278000   1.008000   ; qtot 0.857679
 2012         h2     68    ccc    H20   2012 0.12178000   1.008000   ; qtot 0.979459
 2013         oh     68    ccc     O1   2013 -0.56972000  16.000000   ; qtot 0.409739
 2014         oh     68    ccc     O6   2014 -0.57772000  16.000000   ; qtot -0.167981
 2015         c3     68    ccc    C16   2015 0.14548000  12.010000   ; qtot -0.022501
 2016         ho     68    ccc    H21   2016 0.40508000   1.008000   ; qtot 0.382579
 2017         hn     68    ccc    H22   2017 0.31758000   1.008000   ; qtot 0.700159
 2018         h1     68    ccc    H23   2018 0.06278000   1.008000   ; qtot 0.762939
 2019         h1     68    ccc    H24   2019 0.06278000   1.008000   ; qtot 0.825719
 2020         oh     68    ccc     O7   2020 -0.59472000  16.000000   ; qtot 0.230999
 2021         ho     68    ccc    H25   2021 0.41908000   1.008000   ; qtot 0.650079
 2022         os     68    ccc     O8   2022 -0.44552000  16.000000   ; qtot 0.204559
 2023         ho     68    ccc    H26   2023 0.41908000   1.008000   ; qtot 0.623639
 2024         h1     68    ccc    H27   2024 0.08578000   1.008000   ; qtot 0.709419
 2025         oh     68    ccc     O9   2025 -0.58672000  16.000000   ; qtot 0.122699
 2026         ho     68    ccc    H28   2026 0.41908000   1.008000   ; qtot 0.541779
 2027         n3     68    ccc     N3   2027 -0.54282000  14.010000   ; qtot -0.001041
 2028         c3     68    ccc    C17   2028 0.08518000  12.010000   ; qtot 0.084139
 2029         c3     68    ccc    C18   2029 0.07918000  12.010000   ; qtot 0.163319
 2030         h1     68    ccc    H29   2030 0.06978000   1.008000   ; qtot 0.233099
 2031         c3     68    ccc    C19   2031 0.07918000  12.010000   ; qtot 0.312279
 2032         c3     68    ccc    C20   2032 0.03578000  12.010000   ; qtot 0.348059
 2033         c3     68    ccc    C21   2033 0.33498000  12.010000   ; qtot 0.683039
 2034         h1     68    ccc    H30   2034 0.06178000   1.008000   ; qtot 0.744819
 2035         h1     68    ccc    H31   2035 0.11278000   1.008000   ; qtot 0.857599
 2036         h2     68    ccc    H32   2036 0.12178000   1.008000   ; qtot 0.979379
 2037         oh     68    ccc    O10   2037 -0.56972000  16.000000   ; qtot 0.409659
 2038         oh     68    ccc    O11   2038 -0.57772000  16.000000   ; qtot -0.168061
 2039         c3     68    ccc    C22   2039 0.14548000  12.010000   ; qtot -0.022581
 2040         ho     68    ccc    H33   2040 0.40508000   1.008000   ; qtot 0.382499
 2041         hn     68    ccc    H34   2041 0.31758000   1.008000   ; qtot 0.700079
 2042         h1     68    ccc    H35   2042 0.06278000   1.008000   ; qtot 0.762859
 2043         h1     68    ccc    H36   2043 0.06278000   1.008000   ; qtot 0.825639
 2044         oh     68    ccc    O12   2044 -0.59472000  16.000000   ; qtot 0.230919
 2045         ho     68    ccc    H37   2045 0.41908000   1.008000   ; qtot 0.649999
 2046         os     68    ccc    O13   2046 -0.44552000  16.000000   ; qtot 0.204479
 2047         ho     68    ccc    H38   2047 0.41908000   1.008000   ; qtot 0.623559
 2048         h1     68    ccc    H39   2048 0.08578000   1.008000   ; qtot 0.709339
 2049         oh     68    ccc     O5   2049 -0.58672000  16.000000   ; qtot 0.122619
 2050         ho     68    ccc    H40   2050 0.41908000   1.008000   ; qtot 0.541699
 2051         n3     68    ccc     N4   2051 -0.54282000  14.010000   ; qtot -0.001121
; residue   69 ccc rtp ccc q -0.0
 2052          n     69    ccc     N1   2052 -0.46580000  14.010000   ; qtot -0.466921
 2053         hn     69    ccc     H4   2053 0.31480000   1.008000   ; qtot -0.152121
 2054         c3     69    ccc     C3   2054 -0.28250000  12.010000   ; qtot -0.434621
 2055         h1     69    ccc     H5   2055 0.15710000   1.008000   ; qtot -0.277521
 2056         c3     69    ccc     C4   2056 0.44180000  12.010000   ; qtot 0.164279
 2057         h1     69    ccc     H6   2057 0.15710000   1.008000   ; qtot 0.321379
 2058         h1     69    ccc     H7   2058 -0.03530000   1.008000   ; qtot 0.286079
 2059         h1     69    ccc     H8   2059 -0.03530000   1.008000   ; qtot 0.250779
 2060         n3     69    ccc     N2   2060 -0.74090000  14.010000   ; qtot -0.490121
 2061         c3     69    ccc     C5   2061 0.51680000  12.010000   ; qtot 0.026679
 2062         c3     69    ccc     C6   2062 0.51680000  12.010000   ; qtot 0.543479
 2063         h1     69    ccc     H9   2063 -0.05230000   1.008000   ; qtot 0.491179
 2064         c3     69    ccc     C7   2064 -0.60390000  12.010000   ; qtot -0.112721
 2065         h1     69    ccc    H10   2065 -0.05230000   1.008000   ; qtot -0.165021
 2066         hc     69    ccc    H11   2066 0.16730000   1.008000   ; qtot 0.002279
 2067         hc     69    ccc    H12   2067 0.16730000   1.008000   ; qtot 0.169579
 2068          c     69    ccc     C8   2068 0.72110000  12.010000   ; qtot 0.890679
 2069          o     69    ccc     O2   2069 -0.61950000  16.000000   ; qtot 0.271179
 2070         h1     69    ccc    H13   2070 -0.05230000   1.008000   ; qtot 0.218879
 2071         h1     69    ccc    H14   2071 -0.05230000   1.008000   ; qtot 0.166579
 2072         c3     69    ccc     C9   2072 -0.60390000  12.010000   ; qtot -0.437321
 2073         hc     69    ccc    H15   2073 0.16730000   1.008000   ; qtot -0.270021
 2074         hc     69    ccc    H16   2074 0.16730000   1.008000   ; qtot -0.102721
 2075          c     69    ccc    C10   2075 0.72110000  12.010000   ; qtot 0.618379
 2076          o     69    ccc     O4   2076 -0.61950000  16.000000   ; qtot -0.001121
 2077         c3     69    ccc    C11   2077 0.08518000  12.010000   ; qtot 0.084059
 2078         c3     69    ccc    C12   2078 0.07918000  12.010000   ; qtot 0.163239
 2079         h1     69    ccc    H17   2079 0.06978000   1.008000   ; qtot 0.233019
 2080         c3     69    ccc    C13   2080 0.07918000  12.010000   ; qtot 0.312199
 2081         c3     69    ccc    C14   2081 0.03578000  12.010000   ; qtot 0.347979
 2082         c3     69    ccc    C15   2082 0.33498000  12.010000   ; qtot 0.682959
 2083         h1     69    ccc    H18   2083 0.06178000   1.008000   ; qtot 0.744739
 2084         h1     69    ccc    H19   2084 0.11278000   1.008000   ; qtot 0.857519
 2085         h2     69    ccc    H20   2085 0.12178000   1.008000   ; qtot 0.979299
 2086         oh     69    ccc     O1   2086 -0.56972000  16.000000   ; qtot 0.409579
 2087         oh     69    ccc     O6   2087 -0.57772000  16.000000   ; qtot -0.168141
 2088         c3     69    ccc    C16   2088 0.14548000  12.010000   ; qtot -0.022661
 2089         ho     69    ccc    H21   2089 0.40508000   1.008000   ; qtot 0.382419
 2090         hn     69    ccc    H22   2090 0.31758000   1.008000   ; qtot 0.699999
 2091         h1     69    ccc    H23   2091 0.06278000   1.008000   ; qtot 0.762779
 2092         h1     69    ccc    H24   2092 0.06278000   1.008000   ; qtot 0.825559
 2093         oh     69    ccc     O7   2093 -0.59472000  16.000000   ; qtot 0.230839
 2094         ho     69    ccc    H25   2094 0.41908000   1.008000   ; qtot 0.649919
 2095         os     69    ccc     O8   2095 -0.44552000  16.000000   ; qtot 0.204399
 2096         ho     69    ccc    H26   2096 0.41908000   1.008000   ; qtot 0.623479
 2097         h1     69    ccc    H27   2097 0.08578000   1.008000   ; qtot 0.709259
 2098         oh     69    ccc     O9   2098 -0.58672000  16.000000   ; qtot 0.122539
 2099         ho     69    ccc    H28   2099 0.41908000   1.008000   ; qtot 0.541619
 2100         n3     69    ccc     N3   2100 -0.54282000  14.010000   ; qtot -0.001201
 2101         c3     69    ccc    C17   2101 0.08518000  12.010000   ; qtot 0.083979
 2102         c3     69    ccc    C18   2102 0.07918000  12.010000   ; qtot 0.163159
 2103         h1     69    ccc    H29   2103 0.06978000   1.008000   ; qtot 0.232939
 2104         c3     69    ccc    C19   2104 0.07918000  12.010000   ; qtot 0.312119
 2105         c3     69    ccc    C20   2105 0.03578000  12.010000   ; qtot 0.347899
 2106         c3     69    ccc    C21   2106 0.33498000  12.010000   ; qtot 0.682879
 2107         h1     69    ccc    H30   2107 0.06178000   1.008000   ; qtot 0.744659
 2108         h1     69    ccc    H31   2108 0.11278000   1.008000   ; qtot 0.857439
 2109         h2     69    ccc    H32   2109 0.12178000   1.008000   ; qtot 0.979219
 2110         oh     69    ccc    O10   2110 -0.56972000  16.000000   ; qtot 0.409499
 2111         oh     69    ccc    O11   2111 -0.57772000  16.000000   ; qtot -0.168221
 2112         c3     69    ccc    C22   2112 0.14548000  12.010000   ; qtot -0.022741
 2113         ho     69    ccc    H33   2113 0.40508000   1.008000   ; qtot 0.382339
 2114         hn     69    ccc    H34   2114 0.31758000   1.008000   ; qtot 0.699919
 2115         h1     69    ccc    H35   2115 0.06278000   1.008000   ; qtot 0.762699
 2116         h1     69    ccc    H36   2116 0.06278000   1.008000   ; qtot 0.825479
 2117         oh     69    ccc    O12   2117 -0.59472000  16.000000   ; qtot 0.230759
 2118         ho     69    ccc    H37   2118 0.41908000   1.008000   ; qtot 0.649839
 2119         os     69    ccc    O13   2119 -0.44552000  16.000000   ; qtot 0.204319
 2120         ho     69    ccc    H38   2120 0.41908000   1.008000   ; qtot 0.623399
 2121         h1     69    ccc    H39   2121 0.08578000   1.008000   ; qtot 0.709179
 2122         oh     69    ccc     O5   2122 -0.58672000  16.000000   ; qtot 0.122459
 2123         ho     69    ccc    H40   2123 0.41908000   1.008000   ; qtot 0.541539
 2124         n3     69    ccc     N4   2124 -0.54282000  14.010000   ; qtot -0.001281
; residue   70 ccc rtp ccc q -0.0
 2125          n     70    ccc     N1   2125 -0.46580000  14.010000   ; qtot -0.467081
 2126         hn     70    ccc     H4   2126 0.31480000   1.008000   ; qtot -0.152281
 2127         c3     70    ccc     C3   2127 -0.28250000  12.010000   ; qtot -0.434781
 2128         h1     70    ccc     H5   2128 0.15710000   1.008000   ; qtot -0.277681
 2129         c3     70    ccc     C4   2129 0.44180000  12.010000   ; qtot 0.164119
 2130         h1     70    ccc     H6   2130 0.15710000   1.008000   ; qtot 0.321219
 2131         h1     70    ccc     H7   2131 -0.03530000   1.008000   ; qtot 0.285919
 2132         h1     70    ccc     H8   2132 -0.03530000   1.008000   ; qtot 0.250619
 2133         n3     70    ccc     N2   2133 -0.74090000  14.010000   ; qtot -0.490281
 2134         c3     70    ccc     C5   2134 0.51680000  12.010000   ; qtot 0.026519
 2135         c3     70    ccc     C6   2135 0.51680000  12.010000   ; qtot 0.543319
 2136         h1     70    ccc     H9   2136 -0.05230000   1.008000   ; qtot 0.491019
 2137         c3     70    ccc     C7   2137 -0.60390000  12.010000   ; qtot -0.112881
 2138         h1     70    ccc    H10   2138 -0.05230000   1.008000   ; qtot -0.165181
 2139         hc     70    ccc    H11   2139 0.16730000   1.008000   ; qtot 0.002119
 2140         hc     70    ccc    H12   2140 0.16730000   1.008000   ; qtot 0.169419
 2141          c     70    ccc     C8   2141 0.72110000  12.010000   ; qtot 0.890519
 2142          o     70    ccc     O2   2142 -0.61950000  16.000000   ; qtot 0.271019
 2143         h1     70    ccc    H13   2143 -0.05230000   1.008000   ; qtot 0.218719
 2144         h1     70    ccc    H14   2144 -0.05230000   1.008000   ; qtot 0.166419
 2145         c3     70    ccc     C9   2145 -0.60390000  12.010000   ; qtot -0.437481
 2146         hc     70    ccc    H15   2146 0.16730000   1.008000   ; qtot -0.270181
 2147         hc     70    ccc    H16   2147 0.16730000   1.008000   ; qtot -0.102881
 2148          c     70    ccc    C10   2148 0.72110000  12.010000   ; qtot 0.618219
 2149          o     70    ccc     O4   2149 -0.61950000  16.000000   ; qtot -0.001281
 2150         c3     70    ccc    C11   2150 0.08518000  12.010000   ; qtot 0.083899
 2151         c3     70    ccc    C12   2151 0.07918000  12.010000   ; qtot 0.163079
 2152         h1     70    ccc    H17   2152 0.06978000   1.008000   ; qtot 0.232859
 2153         c3     70    ccc    C13   2153 0.07918000  12.010000   ; qtot 0.312039
 2154         c3     70    ccc    C14   2154 0.03578000  12.010000   ; qtot 0.347819
 2155         c3     70    ccc    C15   2155 0.33498000  12.010000   ; qtot 0.682799
 2156         h1     70    ccc    H18   2156 0.06178000   1.008000   ; qtot 0.744579
 2157         h1     70    ccc    H19   2157 0.11278000   1.008000   ; qtot 0.857359
 2158         h2     70    ccc    H20   2158 0.12178000   1.008000   ; qtot 0.979139
 2159         oh     70    ccc     O1   2159 -0.56972000  16.000000   ; qtot 0.409419
 2160         oh     70    ccc     O6   2160 -0.57772000  16.000000   ; qtot -0.168301
 2161         c3     70    ccc    C16   2161 0.14548000  12.010000   ; qtot -0.022821
 2162         ho     70    ccc    H21   2162 0.40508000   1.008000   ; qtot 0.382259
 2163         hn     70    ccc    H22   2163 0.31758000   1.008000   ; qtot 0.699839
 2164         h1     70    ccc    H23   2164 0.06278000   1.008000   ; qtot 0.762619
 2165         h1     70    ccc    H24   2165 0.06278000   1.008000   ; qtot 0.825399
 2166         oh     70    ccc     O7   2166 -0.59472000  16.000000   ; qtot 0.230679
 2167         ho     70    ccc    H25   2167 0.41908000   1.008000   ; qtot 0.649759
 2168         os     70    ccc     O8   2168 -0.44552000  16.000000   ; qtot 0.204239
 2169         ho     70    ccc    H26   2169 0.41908000   1.008000   ; qtot 0.623319
 2170         h1     70    ccc    H27   2170 0.08578000   1.008000   ; qtot 0.709099
 2171         oh     70    ccc     O9   2171 -0.58672000  16.000000   ; qtot 0.122379
 2172         ho     70    ccc    H28   2172 0.41908000   1.008000   ; qtot 0.541459
 2173         n3     70    ccc     N3   2173 -0.54282000  14.010000   ; qtot -0.001361
 2174         c3     70    ccc    C17   2174 0.08518000  12.010000   ; qtot 0.083819
 2175         c3     70    ccc    C18   2175 0.07918000  12.010000   ; qtot 0.162999
 2176         h1     70    ccc    H29   2176 0.06978000   1.008000   ; qtot 0.232779
 2177         c3     70    ccc    C19   2177 0.07918000  12.010000   ; qtot 0.311959
 2178         c3     70    ccc    C20   2178 0.03578000  12.010000   ; qtot 0.347739
 2179         c3     70    ccc    C21   2179 0.33498000  12.010000   ; qtot 0.682719
 2180         h1     70    ccc    H30   2180 0.06178000   1.008000   ; qtot 0.744499
 2181         h1     70    ccc    H31   2181 0.11278000   1.008000   ; qtot 0.857279
 2182         h2     70    ccc    H32   2182 0.12178000   1.008000   ; qtot 0.979059
 2183         oh     70    ccc    O10   2183 -0.56972000  16.000000   ; qtot 0.409339
 2184         oh     70    ccc    O11   2184 -0.57772000  16.000000   ; qtot -0.168381
 2185         c3     70    ccc    C22   2185 0.14548000  12.010000   ; qtot -0.022901
 2186         ho     70    ccc    H33   2186 0.40508000   1.008000   ; qtot 0.382179
 2187         hn     70    ccc    H34   2187 0.31758000   1.008000   ; qtot 0.699759
 2188         h1     70    ccc    H35   2188 0.06278000   1.008000   ; qtot 0.762539
 2189         h1     70    ccc    H36   2189 0.06278000   1.008000   ; qtot 0.825319
 2190         oh     70    ccc    O12   2190 -0.59472000  16.000000   ; qtot 0.230599
 2191         ho     70    ccc    H37   2191 0.41908000   1.008000   ; qtot 0.649679
 2192         os     70    ccc    O13   2192 -0.44552000  16.000000   ; qtot 0.204159
 2193         ho     70    ccc    H38   2193 0.41908000   1.008000   ; qtot 0.623239
 2194         h1     70    ccc    H39   2194 0.08578000   1.008000   ; qtot 0.709019
 2195         oh     70    ccc     O5   2195 -0.58672000  16.000000   ; qtot 0.122299
 2196         ho     70    ccc    H40   2196 0.41908000   1.008000   ; qtot 0.541379
 2197         n3     70    ccc     N4   2197 -0.54282000  14.010000   ; qtot -0.001441
; residue   71 ccc rtp ccc q -0.0
 2198          n     71    ccc     N1   2198 -0.46580000  14.010000   ; qtot -0.467241
 2199         hn     71    ccc     H4   2199 0.31480000   1.008000   ; qtot -0.152441
 2200         c3     71    ccc     C3   2200 -0.28250000  12.010000   ; qtot -0.434941
 2201         h1     71    ccc     H5   2201 0.15710000   1.008000   ; qtot -0.277841
 2202         c3     71    ccc     C4   2202 0.44180000  12.010000   ; qtot 0.163959
 2203         h1     71    ccc     H6   2203 0.15710000   1.008000   ; qtot 0.321059
 2204         h1     71    ccc     H7   2204 -0.03530000   1.008000   ; qtot 0.285759
 2205         h1     71    ccc     H8   2205 -0.03530000   1.008000   ; qtot 0.250459
 2206         n3     71    ccc     N2   2206 -0.74090000  14.010000   ; qtot -0.490441
 2207         c3     71    ccc     C5   2207 0.51680000  12.010000   ; qtot 0.026359
 2208         c3     71    ccc     C6   2208 0.51680000  12.010000   ; qtot 0.543159
 2209         h1     71    ccc     H9   2209 -0.05230000   1.008000   ; qtot 0.490859
 2210         c3     71    ccc     C7   2210 -0.60390000  12.010000   ; qtot -0.113041
 2211         h1     71    ccc    H10   2211 -0.05230000   1.008000   ; qtot -0.165341
 2212         hc     71    ccc    H11   2212 0.16730000   1.008000   ; qtot 0.001959
 2213         hc     71    ccc    H12   2213 0.16730000   1.008000   ; qtot 0.169259
 2214          c     71    ccc     C8   2214 0.72110000  12.010000   ; qtot 0.890359
 2215          o     71    ccc     O2   2215 -0.61950000  16.000000   ; qtot 0.270859
 2216         h1     71    ccc    H13   2216 -0.05230000   1.008000   ; qtot 0.218559
 2217         h1     71    ccc    H14   2217 -0.05230000   1.008000   ; qtot 0.166259
 2218         c3     71    ccc     C9   2218 -0.60390000  12.010000   ; qtot -0.437641
 2219         hc     71    ccc    H15   2219 0.16730000   1.008000   ; qtot -0.270341
 2220         hc     71    ccc    H16   2220 0.16730000   1.008000   ; qtot -0.103041
 2221          c     71    ccc    C10   2221 0.72110000  12.010000   ; qtot 0.618059
 2222          o     71    ccc     O4   2222 -0.61950000  16.000000   ; qtot -0.001441
 2223         c3     71    ccc    C11   2223 0.08518000  12.010000   ; qtot 0.083739
 2224         c3     71    ccc    C12   2224 0.07918000  12.010000   ; qtot 0.162919
 2225         h1     71    ccc    H17   2225 0.06978000   1.008000   ; qtot 0.232699
 2226         c3     71    ccc    C13   2226 0.07918000  12.010000   ; qtot 0.311879
 2227         c3     71    ccc    C14   2227 0.03578000  12.010000   ; qtot 0.347659
 2228         c3     71    ccc    C15   2228 0.33498000  12.010000   ; qtot 0.682639
 2229         h1     71    ccc    H18   2229 0.06178000   1.008000   ; qtot 0.744419
 2230         h1     71    ccc    H19   2230 0.11278000   1.008000   ; qtot 0.857199
 2231         h2     71    ccc    H20   2231 0.12178000   1.008000   ; qtot 0.978979
 2232         oh     71    ccc     O1   2232 -0.56972000  16.000000   ; qtot 0.409259
 2233         oh     71    ccc     O6   2233 -0.57772000  16.000000   ; qtot -0.168461
 2234         c3     71    ccc    C16   2234 0.14548000  12.010000   ; qtot -0.022981
 2235         ho     71    ccc    H21   2235 0.40508000   1.008000   ; qtot 0.382099
 2236         hn     71    ccc    H22   2236 0.31758000   1.008000   ; qtot 0.699679
 2237         h1     71    ccc    H23   2237 0.06278000   1.008000   ; qtot 0.762459
 2238         h1     71    ccc    H24   2238 0.06278000   1.008000   ; qtot 0.825239
 2239         oh     71    ccc     O7   2239 -0.59472000  16.000000   ; qtot 0.230519
 2240         ho     71    ccc    H25   2240 0.41908000   1.008000   ; qtot 0.649599
 2241         os     71    ccc     O8   2241 -0.44552000  16.000000   ; qtot 0.204079
 2242         ho     71    ccc    H26   2242 0.41908000   1.008000   ; qtot 0.623159
 2243         h1     71    ccc    H27   2243 0.08578000   1.008000   ; qtot 0.708939
 2244         oh     71    ccc     O9   2244 -0.58672000  16.000000   ; qtot 0.122219
 2245         ho     71    ccc    H28   2245 0.41908000   1.008000   ; qtot 0.541299
 2246         n3     71    ccc     N3   2246 -0.54282000  14.010000   ; qtot -0.001521
 2247         c3     71    ccc    C17   2247 0.08518000  12.010000   ; qtot 0.083659
 2248         c3     71    ccc    C18   2248 0.07918000  12.010000   ; qtot 0.162839
 2249         h1     71    ccc    H29   2249 0.06978000   1.008000   ; qtot 0.232619
 2250         c3     71    ccc    C19   2250 0.07918000  12.010000   ; qtot 0.311799
 2251         c3     71    ccc    C20   2251 0.03578000  12.010000   ; qtot 0.347579
 2252         c3     71    ccc    C21   2252 0.33498000  12.010000   ; qtot 0.682559
 2253         h1     71    ccc    H30   2253 0.06178000   1.008000   ; qtot 0.744339
 2254         h1     71    ccc    H31   2254 0.11278000   1.008000   ; qtot 0.857119
 2255         h2     71    ccc    H32   2255 0.12178000   1.008000   ; qtot 0.978899
 2256         oh     71    ccc    O10   2256 -0.56972000  16.000000   ; qtot 0.409179
 2257         oh     71    ccc    O11   2257 -0.57772000  16.000000   ; qtot -0.168541
 2258         c3     71    ccc    C22   2258 0.14548000  12.010000   ; qtot -0.023061
 2259         ho     71    ccc    H33   2259 0.40508000   1.008000   ; qtot 0.382019
 2260         hn     71    ccc    H34   2260 0.31758000   1.008000   ; qtot 0.699599
 2261         h1     71    ccc    H35   2261 0.06278000   1.008000   ; qtot 0.762379
 2262         h1     71    ccc    H36   2262 0.06278000   1.008000   ; qtot 0.825159
 2263         oh     71    ccc    O12   2263 -0.59472000  16.000000   ; qtot 0.230439
 2264         ho     71    ccc    H37   2264 0.41908000   1.008000   ; qtot 0.649519
 2265         os     71    ccc    O13   2265 -0.44552000  16.000000   ; qtot 0.203999
 2266         ho     71    ccc    H38   2266 0.41908000   1.008000   ; qtot 0.623079
 2267         h1     71    ccc    H39   2267 0.08578000   1.008000   ; qtot 0.708859
 2268         oh     71    ccc     O5   2268 -0.58672000  16.000000   ; qtot 0.122139
 2269         ho     71    ccc    H40   2269 0.41908000   1.008000   ; qtot 0.541219
 2270         n3     71    ccc     N4   2270 -0.54282000  14.010000   ; qtot -0.001601
; residue   72 ccc rtp ccc q -0.0
 2271          n     72    ccc     N1   2271 -0.46580000  14.010000   ; qtot -0.467401
 2272         hn     72    ccc     H4   2272 0.31480000   1.008000   ; qtot -0.152601
 2273         c3     72    ccc     C3   2273 -0.28250000  12.010000   ; qtot -0.435101
 2274         h1     72    ccc     H5   2274 0.15710000   1.008000   ; qtot -0.278001
 2275         c3     72    ccc     C4   2275 0.44180000  12.010000   ; qtot 0.163799
 2276         h1     72    ccc     H6   2276 0.15710000   1.008000   ; qtot 0.320899
 2277         h1     72    ccc     H7   2277 -0.03530000   1.008000   ; qtot 0.285599
 2278         h1     72    ccc     H8   2278 -0.03530000   1.008000   ; qtot 0.250299
 2279         n3     72    ccc     N2   2279 -0.74090000  14.010000   ; qtot -0.490601
 2280         c3     72    ccc     C5   2280 0.51680000  12.010000   ; qtot 0.026199
 2281         c3     72    ccc     C6   2281 0.51680000  12.010000   ; qtot 0.542999
 2282         h1     72    ccc     H9   2282 -0.05230000   1.008000   ; qtot 0.490699
 2283         c3     72    ccc     C7   2283 -0.60390000  12.010000   ; qtot -0.113201
 2284         h1     72    ccc    H10   2284 -0.05230000   1.008000   ; qtot -0.165501
 2285         hc     72    ccc    H11   2285 0.16730000   1.008000   ; qtot 0.001799
 2286         hc     72    ccc    H12   2286 0.16730000   1.008000   ; qtot 0.169099
 2287          c     72    ccc     C8   2287 0.72110000  12.010000   ; qtot 0.890199
 2288          o     72    ccc     O2   2288 -0.61950000  16.000000   ; qtot 0.270699
 2289         h1     72    ccc    H13   2289 -0.05230000   1.008000   ; qtot 0.218399
 2290         h1     72    ccc    H14   2290 -0.05230000   1.008000   ; qtot 0.166099
 2291         c3     72    ccc     C9   2291 -0.60390000  12.010000   ; qtot -0.437801
 2292         hc     72    ccc    H15   2292 0.16730000   1.008000   ; qtot -0.270501
 2293         hc     72    ccc    H16   2293 0.16730000   1.008000   ; qtot -0.103201
 2294          c     72    ccc    C10   2294 0.72110000  12.010000   ; qtot 0.617899
 2295          o     72    ccc     O4   2295 -0.61950000  16.000000   ; qtot -0.001601
 2296         c3     72    ccc    C11   2296 0.08518000  12.010000   ; qtot 0.083579
 2297         c3     72    ccc    C12   2297 0.07918000  12.010000   ; qtot 0.162759
 2298         h1     72    ccc    H17   2298 0.06978000   1.008000   ; qtot 0.232539
 2299         c3     72    ccc    C13   2299 0.07918000  12.010000   ; qtot 0.311719
 2300         c3     72    ccc    C14   2300 0.03578000  12.010000   ; qtot 0.347499
 2301         c3     72    ccc    C15   2301 0.33498000  12.010000   ; qtot 0.682479
 2302         h1     72    ccc    H18   2302 0.06178000   1.008000   ; qtot 0.744259
 2303         h1     72    ccc    H19   2303 0.11278000   1.008000   ; qtot 0.857039
 2304         h2     72    ccc    H20   2304 0.12178000   1.008000   ; qtot 0.978819
 2305         oh     72    ccc     O1   2305 -0.56972000  16.000000   ; qtot 0.409099
 2306         oh     72    ccc     O6   2306 -0.57772000  16.000000   ; qtot -0.168621
 2307         c3     72    ccc    C16   2307 0.14548000  12.010000   ; qtot -0.023141
 2308         ho     72    ccc    H21   2308 0.40508000   1.008000   ; qtot 0.381939
 2309         hn     72    ccc    H22   2309 0.31758000   1.008000   ; qtot 0.699519
 2310         h1     72    ccc    H23   2310 0.06278000   1.008000   ; qtot 0.762299
 2311         h1     72    ccc    H24   2311 0.06278000   1.008000   ; qtot 0.825079
 2312         oh     72    ccc     O7   2312 -0.59472000  16.000000   ; qtot 0.230359
 2313         ho     72    ccc    H25   2313 0.41908000   1.008000   ; qtot 0.649439
 2314         os     72    ccc     O8   2314 -0.44552000  16.000000   ; qtot 0.203919
 2315         ho     72    ccc    H26   2315 0.41908000   1.008000   ; qtot 0.622999
 2316         h1     72    ccc    H27   2316 0.08578000   1.008000   ; qtot 0.708779
 2317         oh     72    ccc     O9   2317 -0.58672000  16.000000   ; qtot 0.122059
 2318         ho     72    ccc    H28   2318 0.41908000   1.008000   ; qtot 0.541139
 2319         n3     72    ccc     N3   2319 -0.54282000  14.010000   ; qtot -0.001681
 2320         c3     72    ccc    C17   2320 0.08518000  12.010000   ; qtot 0.083499
 2321         c3     72    ccc    C18   2321 0.07918000  12.010000   ; qtot 0.162679
 2322         h1     72    ccc    H29   2322 0.06978000   1.008000   ; qtot 0.232459
 2323         c3     72    ccc    C19   2323 0.07918000  12.010000   ; qtot 0.311639
 2324         c3     72    ccc    C20   2324 0.03578000  12.010000   ; qtot 0.347419
 2325         c3     72    ccc    C21   2325 0.33498000  12.010000   ; qtot 0.682399
 2326         h1     72    ccc    H30   2326 0.06178000   1.008000   ; qtot 0.744179
 2327         h1     72    ccc    H31   2327 0.11278000   1.008000   ; qtot 0.856959
 2328         h2     72    ccc    H32   2328 0.12178000   1.008000   ; qtot 0.978739
 2329         oh     72    ccc    O10   2329 -0.56972000  16.000000   ; qtot 0.409019
 2330         oh     72    ccc    O11   2330 -0.57772000  16.000000   ; qtot -0.168701
 2331         c3     72    ccc    C22   2331 0.14548000  12.010000   ; qtot -0.023221
 2332         ho     72    ccc    H33   2332 0.40508000   1.008000   ; qtot 0.381859
 2333         hn     72    ccc    H34   2333 0.31758000   1.008000   ; qtot 0.699439
 2334         h1     72    ccc    H35   2334 0.06278000   1.008000   ; qtot 0.762219
 2335         h1     72    ccc    H36   2335 0.06278000   1.008000   ; qtot 0.824999
 2336         oh     72    ccc    O12   2336 -0.59472000  16.000000   ; qtot 0.230279
 2337         ho     72    ccc    H37   2337 0.41908000   1.008000   ; qtot 0.649359
 2338         os     72    ccc    O13   2338 -0.44552000  16.000000   ; qtot 0.203839
 2339         ho     72    ccc    H38   2339 0.41908000   1.008000   ; qtot 0.622919
 2340         h1     72    ccc    H39   2340 0.08578000   1.008000   ; qtot 0.708699
 2341         oh     72    ccc     O5   2341 -0.58672000  16.000000   ; qtot 0.121979
 2342         ho     72    ccc    H40   2342 0.41908000   1.008000   ; qtot 0.541059
 2343         n3     72    ccc     N4   2343 -0.54282000  14.010000   ; qtot -0.001761
; residue   73 ccc rtp ccc q -0.0
 2344          n     73    ccc     N1   2344 -0.46580000  14.010000   ; qtot -0.467561
 2345         hn     73    ccc     H4   2345 0.31480000   1.008000   ; qtot -0.152761
 2346         c3     73    ccc     C3   2346 -0.28250000  12.010000   ; qtot -0.435261
 2347         h1     73    ccc     H5   2347 0.15710000   1.008000   ; qtot -0.278161
 2348         c3     73    ccc     C4   2348 0.44180000  12.010000   ; qtot 0.163639
 2349         h1     73    ccc     H6   2349 0.15710000   1.008000   ; qtot 0.320739
 2350         h1     73    ccc     H7   2350 -0.03530000   1.008000   ; qtot 0.285439
 2351         h1     73    ccc     H8   2351 -0.03530000   1.008000   ; qtot 0.250139
 2352         n3     73    ccc     N2   2352 -0.74090000  14.010000   ; qtot -0.490761
 2353         c3     73    ccc     C5   2353 0.51680000  12.010000   ; qtot 0.026039
 2354         c3     73    ccc     C6   2354 0.51680000  12.010000   ; qtot 0.542839
 2355         h1     73    ccc     H9   2355 -0.05230000   1.008000   ; qtot 0.490539
 2356         c3     73    ccc     C7   2356 -0.60390000  12.010000   ; qtot -0.113361
 2357         h1     73    ccc    H10   2357 -0.05230000   1.008000   ; qtot -0.165661
 2358         hc     73    ccc    H11   2358 0.16730000   1.008000   ; qtot 0.001639
 2359         hc     73    ccc    H12   2359 0.16730000   1.008000   ; qtot 0.168939
 2360          c     73    ccc     C8   2360 0.72110000  12.010000   ; qtot 0.890039
 2361          o     73    ccc     O2   2361 -0.61950000  16.000000   ; qtot 0.270539
 2362         h1     73    ccc    H13   2362 -0.05230000   1.008000   ; qtot 0.218239
 2363         h1     73    ccc    H14   2363 -0.05230000   1.008000   ; qtot 0.165939
 2364         c3     73    ccc     C9   2364 -0.60390000  12.010000   ; qtot -0.437961
 2365         hc     73    ccc    H15   2365 0.16730000   1.008000   ; qtot -0.270661
 2366         hc     73    ccc    H16   2366 0.16730000   1.008000   ; qtot -0.103361
 2367          c     73    ccc    C10   2367 0.72110000  12.010000   ; qtot 0.617739
 2368          o     73    ccc     O4   2368 -0.61950000  16.000000   ; qtot -0.001761
 2369         c3     73    ccc    C11   2369 0.08518000  12.010000   ; qtot 0.083419
 2370         c3     73    ccc    C12   2370 0.07918000  12.010000   ; qtot 0.162599
 2371         h1     73    ccc    H17   2371 0.06978000   1.008000   ; qtot 0.232379
 2372         c3     73    ccc    C13   2372 0.07918000  12.010000   ; qtot 0.311559
 2373         c3     73    ccc    C14   2373 0.03578000  12.010000   ; qtot 0.347339
 2374         c3     73    ccc    C15   2374 0.33498000  12.010000   ; qtot 0.682319
 2375         h1     73    ccc    H18   2375 0.06178000   1.008000   ; qtot 0.744099
 2376         h1     73    ccc    H19   2376 0.11278000   1.008000   ; qtot 0.856879
 2377         h2     73    ccc    H20   2377 0.12178000   1.008000   ; qtot 0.978659
 2378         oh     73    ccc     O1   2378 -0.56972000  16.000000   ; qtot 0.408939
 2379         oh     73    ccc     O6   2379 -0.57772000  16.000000   ; qtot -0.168781
 2380         c3     73    ccc    C16   2380 0.14548000  12.010000   ; qtot -0.023301
 2381         ho     73    ccc    H21   2381 0.40508000   1.008000   ; qtot 0.381779
 2382         hn     73    ccc    H22   2382 0.31758000   1.008000   ; qtot 0.699359
 2383         h1     73    ccc    H23   2383 0.06278000   1.008000   ; qtot 0.762139
 2384         h1     73    ccc    H24   2384 0.06278000   1.008000   ; qtot 0.824919
 2385         oh     73    ccc     O7   2385 -0.59472000  16.000000   ; qtot 0.230199
 2386         ho     73    ccc    H25   2386 0.41908000   1.008000   ; qtot 0.649279
 2387         os     73    ccc     O8   2387 -0.44552000  16.000000   ; qtot 0.203759
 2388         ho     73    ccc    H26   2388 0.41908000   1.008000   ; qtot 0.622839
 2389         h1     73    ccc    H27   2389 0.08578000   1.008000   ; qtot 0.708619
 2390         oh     73    ccc     O9   2390 -0.58672000  16.000000   ; qtot 0.121899
 2391         ho     73    ccc    H28   2391 0.41908000   1.008000   ; qtot 0.540979
 2392         n3     73    ccc     N3   2392 -0.54282000  14.010000   ; qtot -0.001841
 2393         c3     73    ccc    C17   2393 0.08518000  12.010000   ; qtot 0.083339
 2394         c3     73    ccc    C18   2394 0.07918000  12.010000   ; qtot 0.162519
 2395         h1     73    ccc    H29   2395 0.06978000   1.008000   ; qtot 0.232299
 2396         c3     73    ccc    C19   2396 0.07918000  12.010000   ; qtot 0.311479
 2397         c3     73    ccc    C20   2397 0.03578000  12.010000   ; qtot 0.347259
 2398         c3     73    ccc    C21   2398 0.33498000  12.010000   ; qtot 0.682239
 2399         h1     73    ccc    H30   2399 0.06178000   1.008000   ; qtot 0.744019
 2400         h1     73    ccc    H31   2400 0.11278000   1.008000   ; qtot 0.856799
 2401         h2     73    ccc    H32   2401 0.12178000   1.008000   ; qtot 0.978579
 2402         oh     73    ccc    O10   2402 -0.56972000  16.000000   ; qtot 0.408859
 2403         oh     73    ccc    O11   2403 -0.57772000  16.000000   ; qtot -0.168861
 2404         c3     73    ccc    C22   2404 0.14548000  12.010000   ; qtot -0.023381
 2405         ho     73    ccc    H33   2405 0.40508000   1.008000   ; qtot 0.381699
 2406         hn     73    ccc    H34   2406 0.31758000   1.008000   ; qtot 0.699279
 2407         h1     73    ccc    H35   2407 0.06278000   1.008000   ; qtot 0.762059
 2408         h1     73    ccc    H36   2408 0.06278000   1.008000   ; qtot 0.824839
 2409         oh     73    ccc    O12   2409 -0.59472000  16.000000   ; qtot 0.230119
 2410         ho     73    ccc    H37   2410 0.41908000   1.008000   ; qtot 0.649199
 2411         os     73    ccc    O13   2411 -0.44552000  16.000000   ; qtot 0.203679
 2412         ho     73    ccc    H38   2412 0.41908000   1.008000   ; qtot 0.622759
 2413         h1     73    ccc    H39   2413 0.08578000   1.008000   ; qtot 0.708539
 2414         oh     73    ccc     O5   2414 -0.58672000  16.000000   ; qtot 0.121819
 2415         ho     73    ccc    H40   2415 0.41908000   1.008000   ; qtot 0.540899
 2416         n3     73    ccc     N4   2416 -0.54282000  14.010000   ; qtot -0.001921
; residue   74 ccc rtp ccc q -0.0
 2417          n     74    ccc     N1   2417 -0.46580000  14.010000   ; qtot -0.467721
 2418         hn     74    ccc     H4   2418 0.31480000   1.008000   ; qtot -0.152921
 2419         c3     74    ccc     C3   2419 -0.28250000  12.010000   ; qtot -0.435421
 2420         h1     74    ccc     H5   2420 0.15710000   1.008000   ; qtot -0.278321
 2421         c3     74    ccc     C4   2421 0.44180000  12.010000   ; qtot 0.163479
 2422         h1     74    ccc     H6   2422 0.15710000   1.008000   ; qtot 0.320579
 2423         h1     74    ccc     H7   2423 -0.03530000   1.008000   ; qtot 0.285279
 2424         h1     74    ccc     H8   2424 -0.03530000   1.008000   ; qtot 0.249979
 2425         n3     74    ccc     N2   2425 -0.74090000  14.010000   ; qtot -0.490921
 2426         c3     74    ccc     C5   2426 0.51680000  12.010000   ; qtot 0.025879
 2427         c3     74    ccc     C6   2427 0.51680000  12.010000   ; qtot 0.542679
 2428         h1     74    ccc     H9   2428 -0.05230000   1.008000   ; qtot 0.490379
 2429         c3     74    ccc     C7   2429 -0.60390000  12.010000   ; qtot -0.113521
 2430         h1     74    ccc    H10   2430 -0.05230000   1.008000   ; qtot -0.165821
 2431         hc     74    ccc    H11   2431 0.16730000   1.008000   ; qtot 0.001479
 2432         hc     74    ccc    H12   2432 0.16730000   1.008000   ; qtot 0.168779
 2433          c     74    ccc     C8   2433 0.72110000  12.010000   ; qtot 0.889879
 2434          o     74    ccc     O2   2434 -0.61950000  16.000000   ; qtot 0.270379
 2435         h1     74    ccc    H13   2435 -0.05230000   1.008000   ; qtot 0.218079
 2436         h1     74    ccc    H14   2436 -0.05230000   1.008000   ; qtot 0.165779
 2437         c3     74    ccc     C9   2437 -0.60390000  12.010000   ; qtot -0.438121
 2438         hc     74    ccc    H15   2438 0.16730000   1.008000   ; qtot -0.270821
 2439         hc     74    ccc    H16   2439 0.16730000   1.008000   ; qtot -0.103521
 2440          c     74    ccc    C10   2440 0.72110000  12.010000   ; qtot 0.617579
 2441          o     74    ccc     O4   2441 -0.61950000  16.000000   ; qtot -0.001921
 2442         c3     74    ccc    C11   2442 0.08518000  12.010000   ; qtot 0.083259
 2443         c3     74    ccc    C12   2443 0.07918000  12.010000   ; qtot 0.162439
 2444         h1     74    ccc    H17   2444 0.06978000   1.008000   ; qtot 0.232219
 2445         c3     74    ccc    C13   2445 0.07918000  12.010000   ; qtot 0.311399
 2446         c3     74    ccc    C14   2446 0.03578000  12.010000   ; qtot 0.347179
 2447         c3     74    ccc    C15   2447 0.33498000  12.010000   ; qtot 0.682159
 2448         h1     74    ccc    H18   2448 0.06178000   1.008000   ; qtot 0.743939
 2449         h1     74    ccc    H19   2449 0.11278000   1.008000   ; qtot 0.856719
 2450         h2     74    ccc    H20   2450 0.12178000   1.008000   ; qtot 0.978499
 2451         oh     74    ccc     O1   2451 -0.56972000  16.000000   ; qtot 0.408779
 2452         oh     74    ccc     O6   2452 -0.57772000  16.000000   ; qtot -0.168941
 2453         c3     74    ccc    C16   2453 0.14548000  12.010000   ; qtot -0.023461
 2454         ho     74    ccc    H21   2454 0.40508000   1.008000   ; qtot 0.381619
 2455         hn     74    ccc    H22   2455 0.31758000   1.008000   ; qtot 0.699199
 2456         h1     74    ccc    H23   2456 0.06278000   1.008000   ; qtot 0.761979
 2457         h1     74    ccc    H24   2457 0.06278000   1.008000   ; qtot 0.824759
 2458         oh     74    ccc     O7   2458 -0.59472000  16.000000   ; qtot 0.230039
 2459         ho     74    ccc    H25   2459 0.41908000   1.008000   ; qtot 0.649119
 2460         os     74    ccc     O8   2460 -0.44552000  16.000000   ; qtot 0.203599
 2461         ho     74    ccc    H26   2461 0.41908000   1.008000   ; qtot 0.622679
 2462         h1     74    ccc    H27   2462 0.08578000   1.008000   ; qtot 0.708459
 2463         oh     74    ccc     O9   2463 -0.58672000  16.000000   ; qtot 0.121739
 2464         ho     74    ccc    H28   2464 0.41908000   1.008000   ; qtot 0.540819
 2465         n3     74    ccc     N3   2465 -0.54282000  14.010000   ; qtot -0.002001
 2466         c3     74    ccc    C17   2466 0.08518000  12.010000   ; qtot 0.083179
 2467         c3     74    ccc    C18   2467 0.07918000  12.010000   ; qtot 0.162359
 2468         h1     74    ccc    H29   2468 0.06978000   1.008000   ; qtot 0.232139
 2469         c3     74    ccc    C19   2469 0.07918000  12.010000   ; qtot 0.311319
 2470         c3     74    ccc    C20   2470 0.03578000  12.010000   ; qtot 0.347099
 2471         c3     74    ccc    C21   2471 0.33498000  12.010000   ; qtot 0.682079
 2472         h1     74    ccc    H30   2472 0.06178000   1.008000   ; qtot 0.743859
 2473         h1     74    ccc    H31   2473 0.11278000   1.008000   ; qtot 0.856639
 2474         h2     74    ccc    H32   2474 0.12178000   1.008000   ; qtot 0.978419
 2475         oh     74    ccc    O10   2475 -0.56972000  16.000000   ; qtot 0.408699
 2476         oh     74    ccc    O11   2476 -0.57772000  16.000000   ; qtot -0.169021
 2477         c3     74    ccc    C22   2477 0.14548000  12.010000   ; qtot -0.023541
 2478         ho     74    ccc    H33   2478 0.40508000   1.008000   ; qtot 0.381539
 2479         hn     74    ccc    H34   2479 0.31758000   1.008000   ; qtot 0.699119
 2480         h1     74    ccc    H35   2480 0.06278000   1.008000   ; qtot 0.761899
 2481         h1     74    ccc    H36   2481 0.06278000   1.008000   ; qtot 0.824679
 2482         oh     74    ccc    O12   2482 -0.59472000  16.000000   ; qtot 0.229959
 2483         ho     74    ccc    H37   2483 0.41908000   1.008000   ; qtot 0.649039
 2484         os     74    ccc    O13   2484 -0.44552000  16.000000   ; qtot 0.203519
 2485         ho     74    ccc    H38   2485 0.41908000   1.008000   ; qtot 0.622599
 2486         h1     74    ccc    H39   2486 0.08578000   1.008000   ; qtot 0.708379
 2487         oh     74    ccc     O5   2487 -0.58672000  16.000000   ; qtot 0.121659
 2488         ho     74    ccc    H40   2488 0.41908000   1.008000   ; qtot 0.540739
 2489         n3     74    ccc     N4   2489 -0.54282000  14.010000   ; qtot -0.002081
; residue   75 ccc rtp ccc q -0.0
 2490          n     75    ccc     N1   2490 -0.46580000  14.010000   ; qtot -0.467881
 2491         hn     75    ccc     H4   2491 0.31480000   1.008000   ; qtot -0.153081
 2492         c3     75    ccc     C3   2492 -0.28250000  12.010000   ; qtot -0.435581
 2493         h1     75    ccc     H5   2493 0.15710000   1.008000   ; qtot -0.278481
 2494         c3     75    ccc     C4   2494 0.44180000  12.010000   ; qtot 0.163319
 2495         h1     75    ccc     H6   2495 0.15710000   1.008000   ; qtot 0.320419
 2496         h1     75    ccc     H7   2496 -0.03530000   1.008000   ; qtot 0.285119
 2497         h1     75    ccc     H8   2497 -0.03530000   1.008000   ; qtot 0.249819
 2498         n3     75    ccc     N2   2498 -0.74090000  14.010000   ; qtot -0.491081
 2499         c3     75    ccc     C5   2499 0.51680000  12.010000   ; qtot 0.025719
 2500         c3     75    ccc     C6   2500 0.51680000  12.010000   ; qtot 0.542519
 2501         h1     75    ccc     H9   2501 -0.05230000   1.008000   ; qtot 0.490219
 2502         c3     75    ccc     C7   2502 -0.60390000  12.010000   ; qtot -0.113681
 2503         h1     75    ccc    H10   2503 -0.05230000   1.008000   ; qtot -0.165981
 2504         hc     75    ccc    H11   2504 0.16730000   1.008000   ; qtot 0.001319
 2505         hc     75    ccc    H12   2505 0.16730000   1.008000   ; qtot 0.168619
 2506          c     75    ccc     C8   2506 0.72110000  12.010000   ; qtot 0.889719
 2507          o     75    ccc     O2   2507 -0.61950000  16.000000   ; qtot 0.270219
 2508         h1     75    ccc    H13   2508 -0.05230000   1.008000   ; qtot 0.217919
 2509         h1     75    ccc    H14   2509 -0.05230000   1.008000   ; qtot 0.165619
 2510         c3     75    ccc     C9   2510 -0.60390000  12.010000   ; qtot -0.438281
 2511         hc     75    ccc    H15   2511 0.16730000   1.008000   ; qtot -0.270981
 2512         hc     75    ccc    H16   2512 0.16730000   1.008000   ; qtot -0.103681
 2513          c     75    ccc    C10   2513 0.72110000  12.010000   ; qtot 0.617419
 2514          o     75    ccc     O4   2514 -0.61950000  16.000000   ; qtot -0.002081
 2515         c3     75    ccc    C11   2515 0.08518000  12.010000   ; qtot 0.083099
 2516         c3     75    ccc    C12   2516 0.07918000  12.010000   ; qtot 0.162279
 2517         h1     75    ccc    H17   2517 0.06978000   1.008000   ; qtot 0.232059
 2518         c3     75    ccc    C13   2518 0.07918000  12.010000   ; qtot 0.311239
 2519         c3     75    ccc    C14   2519 0.03578000  12.010000   ; qtot 0.347019
 2520         c3     75    ccc    C15   2520 0.33498000  12.010000   ; qtot 0.681999
 2521         h1     75    ccc    H18   2521 0.06178000   1.008000   ; qtot 0.743779
 2522         h1     75    ccc    H19   2522 0.11278000   1.008000   ; qtot 0.856559
 2523         h2     75    ccc    H20   2523 0.12178000   1.008000   ; qtot 0.978339
 2524         oh     75    ccc     O1   2524 -0.56972000  16.000000   ; qtot 0.408619
 2525         oh     75    ccc     O6   2525 -0.57772000  16.000000   ; qtot -0.169101
 2526         c3     75    ccc    C16   2526 0.14548000  12.010000   ; qtot -0.023621
 2527         ho     75    ccc    H21   2527 0.40508000   1.008000   ; qtot 0.381459
 2528         hn     75    ccc    H22   2528 0.31758000   1.008000   ; qtot 0.699039
 2529         h1     75    ccc    H23   2529 0.06278000   1.008000   ; qtot 0.761819
 2530         h1     75    ccc    H24   2530 0.06278000   1.008000   ; qtot 0.824599
 2531         oh     75    ccc     O7   2531 -0.59472000  16.000000   ; qtot 0.229879
 2532         ho     75    ccc    H25   2532 0.41908000   1.008000   ; qtot 0.648959
 2533         os     75    ccc     O8   2533 -0.44552000  16.000000   ; qtot 0.203439
 2534         ho     75    ccc    H26   2534 0.41908000   1.008000   ; qtot 0.622519
 2535         h1     75    ccc    H27   2535 0.08578000   1.008000   ; qtot 0.708299
 2536         oh     75    ccc     O9   2536 -0.58672000  16.000000   ; qtot 0.121579
 2537         ho     75    ccc    H28   2537 0.41908000   1.008000   ; qtot 0.540659
 2538         n3     75    ccc     N3   2538 -0.54282000  14.010000   ; qtot -0.002161
 2539         c3     75    ccc    C17   2539 0.08518000  12.010000   ; qtot 0.083019
 2540         c3     75    ccc    C18   2540 0.07918000  12.010000   ; qtot 0.162199
 2541         h1     75    ccc    H29   2541 0.06978000   1.008000   ; qtot 0.231979
 2542         c3     75    ccc    C19   2542 0.07918000  12.010000   ; qtot 0.311159
 2543         c3     75    ccc    C20   2543 0.03578000  12.010000   ; qtot 0.346939
 2544         c3     75    ccc    C21   2544 0.33498000  12.010000   ; qtot 0.681919
 2545         h1     75    ccc    H30   2545 0.06178000   1.008000   ; qtot 0.743699
 2546         h1     75    ccc    H31   2546 0.11278000   1.008000   ; qtot 0.856479
 2547         h2     75    ccc    H32   2547 0.12178000   1.008000   ; qtot 0.978259
 2548         oh     75    ccc    O10   2548 -0.56972000  16.000000   ; qtot 0.408539
 2549         oh     75    ccc    O11   2549 -0.57772000  16.000000   ; qtot -0.169181
 2550         c3     75    ccc    C22   2550 0.14548000  12.010000   ; qtot -0.023701
 2551         ho     75    ccc    H33   2551 0.40508000   1.008000   ; qtot 0.381379
 2552         hn     75    ccc    H34   2552 0.31758000   1.008000   ; qtot 0.698959
 2553         h1     75    ccc    H35   2553 0.06278000   1.008000   ; qtot 0.761739
 2554         h1     75    ccc    H36   2554 0.06278000   1.008000   ; qtot 0.824519
 2555         oh     75    ccc    O12   2555 -0.59472000  16.000000   ; qtot 0.229799
 2556         ho     75    ccc    H37   2556 0.41908000   1.008000   ; qtot 0.648879
 2557         os     75    ccc    O13   2557 -0.44552000  16.000000   ; qtot 0.203359
 2558         ho     75    ccc    H38   2558 0.41908000   1.008000   ; qtot 0.622439
 2559         h1     75    ccc    H39   2559 0.08578000   1.008000   ; qtot 0.708219
 2560         oh     75    ccc     O5   2560 -0.58672000  16.000000   ; qtot 0.121499
 2561         ho     75    ccc    H40   2561 0.41908000   1.008000   ; qtot 0.540579
 2562         n3     75    ccc     N4   2562 -0.54282000  14.010000   ; qtot -0.002241
; residue   76 ccc rtp ccc q -0.0
 2563          n     76    ccc     N1   2563 -0.46580000  14.010000   ; qtot -0.468041
 2564         hn     76    ccc     H4   2564 0.31480000   1.008000   ; qtot -0.153241
 2565         c3     76    ccc     C3   2565 -0.28250000  12.010000   ; qtot -0.435741
 2566         h1     76    ccc     H5   2566 0.15710000   1.008000   ; qtot -0.278641
 2567         c3     76    ccc     C4   2567 0.44180000  12.010000   ; qtot 0.163159
 2568         h1     76    ccc     H6   2568 0.15710000   1.008000   ; qtot 0.320259
 2569         h1     76    ccc     H7   2569 -0.03530000   1.008000   ; qtot 0.284959
 2570         h1     76    ccc     H8   2570 -0.03530000   1.008000   ; qtot 0.249659
 2571         n3     76    ccc     N2   2571 -0.74090000  14.010000   ; qtot -0.491241
 2572         c3     76    ccc     C5   2572 0.51680000  12.010000   ; qtot 0.025559
 2573         c3     76    ccc     C6   2573 0.51680000  12.010000   ; qtot 0.542359
 2574         h1     76    ccc     H9   2574 -0.05230000   1.008000   ; qtot 0.490059
 2575         c3     76    ccc     C7   2575 -0.60390000  12.010000   ; qtot -0.113841
 2576         h1     76    ccc    H10   2576 -0.05230000   1.008000   ; qtot -0.166141
 2577         hc     76    ccc    H11   2577 0.16730000   1.008000   ; qtot 0.001159
 2578         hc     76    ccc    H12   2578 0.16730000   1.008000   ; qtot 0.168459
 2579          c     76    ccc     C8   2579 0.72110000  12.010000   ; qtot 0.889559
 2580          o     76    ccc     O2   2580 -0.61950000  16.000000   ; qtot 0.270059
 2581         h1     76    ccc    H13   2581 -0.05230000   1.008000   ; qtot 0.217759
 2582         h1     76    ccc    H14   2582 -0.05230000   1.008000   ; qtot 0.165459
 2583         c3     76    ccc     C9   2583 -0.60390000  12.010000   ; qtot -0.438441
 2584         hc     76    ccc    H15   2584 0.16730000   1.008000   ; qtot -0.271141
 2585         hc     76    ccc    H16   2585 0.16730000   1.008000   ; qtot -0.103841
 2586          c     76    ccc    C10   2586 0.72110000  12.010000   ; qtot 0.617259
 2587          o     76    ccc     O4   2587 -0.61950000  16.000000   ; qtot -0.002241
 2588         c3     76    ccc    C11   2588 0.08518000  12.010000   ; qtot 0.082939
 2589         c3     76    ccc    C12   2589 0.07918000  12.010000   ; qtot 0.162119
 2590         h1     76    ccc    H17   2590 0.06978000   1.008000   ; qtot 0.231899
 2591         c3     76    ccc    C13   2591 0.07918000  12.010000   ; qtot 0.311079
 2592         c3     76    ccc    C14   2592 0.03578000  12.010000   ; qtot 0.346859
 2593         c3     76    ccc    C15   2593 0.33498000  12.010000   ; qtot 0.681839
 2594         h1     76    ccc    H18   2594 0.06178000   1.008000   ; qtot 0.743619
 2595         h1     76    ccc    H19   2595 0.11278000   1.008000   ; qtot 0.856399
 2596         h2     76    ccc    H20   2596 0.12178000   1.008000   ; qtot 0.978179
 2597         oh     76    ccc     O1   2597 -0.56972000  16.000000   ; qtot 0.408459
 2598         oh     76    ccc     O6   2598 -0.57772000  16.000000   ; qtot -0.169261
 2599         c3     76    ccc    C16   2599 0.14548000  12.010000   ; qtot -0.023781
 2600         ho     76    ccc    H21   2600 0.40508000   1.008000   ; qtot 0.381299
 2601         hn     76    ccc    H22   2601 0.31758000   1.008000   ; qtot 0.698879
 2602         h1     76    ccc    H23   2602 0.06278000   1.008000   ; qtot 0.761659
 2603         h1     76    ccc    H24   2603 0.06278000   1.008000   ; qtot 0.824439
 2604         oh     76    ccc     O7   2604 -0.59472000  16.000000   ; qtot 0.229719
 2605         ho     76    ccc    H25   2605 0.41908000   1.008000   ; qtot 0.648799
 2606         os     76    ccc     O8   2606 -0.44552000  16.000000   ; qtot 0.203279
 2607         ho     76    ccc    H26   2607 0.41908000   1.008000   ; qtot 0.622359
 2608         h1     76    ccc    H27   2608 0.08578000   1.008000   ; qtot 0.708139
 2609         oh     76    ccc     O9   2609 -0.58672000  16.000000   ; qtot 0.121419
 2610         ho     76    ccc    H28   2610 0.41908000   1.008000   ; qtot 0.540499
 2611         n3     76    ccc     N3   2611 -0.54282000  14.010000   ; qtot -0.002321
 2612         c3     76    ccc    C17   2612 0.08518000  12.010000   ; qtot 0.082859
 2613         c3     76    ccc    C18   2613 0.07918000  12.010000   ; qtot 0.162039
 2614         h1     76    ccc    H29   2614 0.06978000   1.008000   ; qtot 0.231819
 2615         c3     76    ccc    C19   2615 0.07918000  12.010000   ; qtot 0.310999
 2616         c3     76    ccc    C20   2616 0.03578000  12.010000   ; qtot 0.346779
 2617         c3     76    ccc    C21   2617 0.33498000  12.010000   ; qtot 0.681759
 2618         h1     76    ccc    H30   2618 0.06178000   1.008000   ; qtot 0.743539
 2619         h1     76    ccc    H31   2619 0.11278000   1.008000   ; qtot 0.856319
 2620         h2     76    ccc    H32   2620 0.12178000   1.008000   ; qtot 0.978099
 2621         oh     76    ccc    O10   2621 -0.56972000  16.000000   ; qtot 0.408379
 2622         oh     76    ccc    O11   2622 -0.57772000  16.000000   ; qtot -0.169341
 2623         c3     76    ccc    C22   2623 0.14548000  12.010000   ; qtot -0.023861
 2624         ho     76    ccc    H33   2624 0.40508000   1.008000   ; qtot 0.381219
 2625         hn     76    ccc    H34   2625 0.31758000   1.008000   ; qtot 0.698799
 2626         h1     76    ccc    H35   2626 0.06278000   1.008000   ; qtot 0.761579
 2627         h1     76    ccc    H36   2627 0.06278000   1.008000   ; qtot 0.824359
 2628         oh     76    ccc    O12   2628 -0.59472000  16.000000   ; qtot 0.229639
 2629         ho     76    ccc    H37   2629 0.41908000   1.008000   ; qtot 0.648719
 2630         os     76    ccc    O13   2630 -0.44552000  16.000000   ; qtot 0.203199
 2631         ho     76    ccc    H38   2631 0.41908000   1.008000   ; qtot 0.622279
 2632         h1     76    ccc    H39   2632 0.08578000   1.008000   ; qtot 0.708059
 2633         oh     76    ccc     O5   2633 -0.58672000  16.000000   ; qtot 0.121339
 2634         ho     76    ccc    H40   2634 0.41908000   1.008000   ; qtot 0.540419
 2635         n3     76    ccc     N4   2635 -0.54282000  14.010000   ; qtot -0.002401
; residue   77 ccc rtp ccc q -0.0
 2636          n     77    ccc     N1   2636 -0.46580000  14.010000   ; qtot -0.468201
 2637         hn     77    ccc     H4   2637 0.31480000   1.008000   ; qtot -0.153401
 2638         c3     77    ccc     C3   2638 -0.28250000  12.010000   ; qtot -0.435901
 2639         h1     77    ccc     H5   2639 0.15710000   1.008000   ; qtot -0.278801
 2640         c3     77    ccc     C4   2640 0.44180000  12.010000   ; qtot 0.162999
 2641         h1     77    ccc     H6   2641 0.15710000   1.008000   ; qtot 0.320099
 2642         h1     77    ccc     H7   2642 -0.03530000   1.008000   ; qtot 0.284799
 2643         h1     77    ccc     H8   2643 -0.03530000   1.008000   ; qtot 0.249499
 2644         n3     77    ccc     N2   2644 -0.74090000  14.010000   ; qtot -0.491401
 2645         c3     77    ccc     C5   2645 0.51680000  12.010000   ; qtot 0.025399
 2646         c3     77    ccc     C6   2646 0.51680000  12.010000   ; qtot 0.542199
 2647         h1     77    ccc     H9   2647 -0.05230000   1.008000   ; qtot 0.489899
 2648         c3     77    ccc     C7   2648 -0.60390000  12.010000   ; qtot -0.114001
 2649         h1     77    ccc    H10   2649 -0.05230000   1.008000   ; qtot -0.166301
 2650         hc     77    ccc    H11   2650 0.16730000   1.008000   ; qtot 0.000999
 2651         hc     77    ccc    H12   2651 0.16730000   1.008000   ; qtot 0.168299
 2652          c     77    ccc     C8   2652 0.72110000  12.010000   ; qtot 0.889399
 2653          o     77    ccc     O2   2653 -0.61950000  16.000000   ; qtot 0.269899
 2654         h1     77    ccc    H13   2654 -0.05230000   1.008000   ; qtot 0.217599
 2655         h1     77    ccc    H14   2655 -0.05230000   1.008000   ; qtot 0.165299
 2656         c3     77    ccc     C9   2656 -0.60390000  12.010000   ; qtot -0.438601
 2657         hc     77    ccc    H15   2657 0.16730000   1.008000   ; qtot -0.271301
 2658         hc     77    ccc    H16   2658 0.16730000   1.008000   ; qtot -0.104001
 2659          c     77    ccc    C10   2659 0.72110000  12.010000   ; qtot 0.617099
 2660          o     77    ccc     O4   2660 -0.61950000  16.000000   ; qtot -0.002401
 2661         c3     77    ccc    C11   2661 0.08518000  12.010000   ; qtot 0.082779
 2662         c3     77    ccc    C12   2662 0.07918000  12.010000   ; qtot 0.161959
 2663         h1     77    ccc    H17   2663 0.06978000   1.008000   ; qtot 0.231739
 2664         c3     77    ccc    C13   2664 0.07918000  12.010000   ; qtot 0.310919
 2665         c3     77    ccc    C14   2665 0.03578000  12.010000   ; qtot 0.346699
 2666         c3     77    ccc    C15   2666 0.33498000  12.010000   ; qtot 0.681679
 2667         h1     77    ccc    H18   2667 0.06178000   1.008000   ; qtot 0.743459
 2668         h1     77    ccc    H19   2668 0.11278000   1.008000   ; qtot 0.856239
 2669         h2     77    ccc    H20   2669 0.12178000   1.008000   ; qtot 0.978019
 2670         oh     77    ccc     O1   2670 -0.56972000  16.000000   ; qtot 0.408299
 2671         oh     77    ccc     O6   2671 -0.57772000  16.000000   ; qtot -0.169421
 2672         c3     77    ccc    C16   2672 0.14548000  12.010000   ; qtot -0.023941
 2673         ho     77    ccc    H21   2673 0.40508000   1.008000   ; qtot 0.381139
 2674         hn     77    ccc    H22   2674 0.31758000   1.008000   ; qtot 0.698719
 2675         h1     77    ccc    H23   2675 0.06278000   1.008000   ; qtot 0.761499
 2676         h1     77    ccc    H24   2676 0.06278000   1.008000   ; qtot 0.824279
 2677         oh     77    ccc     O7   2677 -0.59472000  16.000000   ; qtot 0.229559
 2678         ho     77    ccc    H25   2678 0.41908000   1.008000   ; qtot 0.648639
 2679         os     77    ccc     O8   2679 -0.44552000  16.000000   ; qtot 0.203119
 2680         ho     77    ccc    H26   2680 0.41908000   1.008000   ; qtot 0.622199
 2681         h1     77    ccc    H27   2681 0.08578000   1.008000   ; qtot 0.707979
 2682         oh     77    ccc     O9   2682 -0.58672000  16.000000   ; qtot 0.121259
 2683         ho     77    ccc    H28   2683 0.41908000   1.008000   ; qtot 0.540339
 2684         n3     77    ccc     N3   2684 -0.54282000  14.010000   ; qtot -0.002481
 2685         c3     77    ccc    C17   2685 0.08518000  12.010000   ; qtot 0.082699
 2686         c3     77    ccc    C18   2686 0.07918000  12.010000   ; qtot 0.161879
 2687         h1     77    ccc    H29   2687 0.06978000   1.008000   ; qtot 0.231659
 2688         c3     77    ccc    C19   2688 0.07918000  12.010000   ; qtot 0.310839
 2689         c3     77    ccc    C20   2689 0.03578000  12.010000   ; qtot 0.346619
 2690         c3     77    ccc    C21   2690 0.33498000  12.010000   ; qtot 0.681599
 2691         h1     77    ccc    H30   2691 0.06178000   1.008000   ; qtot 0.743379
 2692         h1     77    ccc    H31   2692 0.11278000   1.008000   ; qtot 0.856159
 2693         h2     77    ccc    H32   2693 0.12178000   1.008000   ; qtot 0.977939
 2694         oh     77    ccc    O10   2694 -0.56972000  16.000000   ; qtot 0.408219
 2695         oh     77    ccc    O11   2695 -0.57772000  16.000000   ; qtot -0.169501
 2696         c3     77    ccc    C22   2696 0.14548000  12.010000   ; qtot -0.024021
 2697         ho     77    ccc    H33   2697 0.40508000   1.008000   ; qtot 0.381059
 2698         hn     77    ccc    H34   2698 0.31758000   1.008000   ; qtot 0.698639
 2699         h1     77    ccc    H35   2699 0.06278000   1.008000   ; qtot 0.761419
 2700         h1     77    ccc    H36   2700 0.06278000   1.008000   ; qtot 0.824199
 2701         oh     77    ccc    O12   2701 -0.59472000  16.000000   ; qtot 0.229479
 2702         ho     77    ccc    H37   2702 0.41908000   1.008000   ; qtot 0.648559
 2703         os     77    ccc    O13   2703 -0.44552000  16.000000   ; qtot 0.203039
 2704         ho     77    ccc    H38   2704 0.41908000   1.008000   ; qtot 0.622119
 2705         h1     77    ccc    H39   2705 0.08578000   1.008000   ; qtot 0.707899
 2706         oh     77    ccc     O5   2706 -0.58672000  16.000000   ; qtot 0.121179
 2707         ho     77    ccc    H40   2707 0.41908000   1.008000   ; qtot 0.540259
 2708         n3     77    ccc     N4   2708 -0.54282000  14.010000   ; qtot -0.002561
; residue   78 ccc rtp ccc q -0.0
 2709          n     78    ccc     N1   2709 -0.46580000  14.010000   ; qtot -0.468361
 2710         hn     78    ccc     H4   2710 0.31480000   1.008000   ; qtot -0.153561
 2711         c3     78    ccc     C3   2711 -0.28250000  12.010000   ; qtot -0.436061
 2712         h1     78    ccc     H5   2712 0.15710000   1.008000   ; qtot -0.278961
 2713         c3     78    ccc     C4   2713 0.44180000  12.010000   ; qtot 0.162839
 2714         h1     78    ccc     H6   2714 0.15710000   1.008000   ; qtot 0.319939
 2715         h1     78    ccc     H7   2715 -0.03530000   1.008000   ; qtot 0.284639
 2716         h1     78    ccc     H8   2716 -0.03530000   1.008000   ; qtot 0.249339
 2717         n3     78    ccc     N2   2717 -0.74090000  14.010000   ; qtot -0.491561
 2718         c3     78    ccc     C5   2718 0.51680000  12.010000   ; qtot 0.025239
 2719         c3     78    ccc     C6   2719 0.51680000  12.010000   ; qtot 0.542039
 2720         h1     78    ccc     H9   2720 -0.05230000   1.008000   ; qtot 0.489739
 2721         c3     78    ccc     C7   2721 -0.60390000  12.010000   ; qtot -0.114161
 2722         h1     78    ccc    H10   2722 -0.05230000   1.008000   ; qtot -0.166461
 2723         hc     78    ccc    H11   2723 0.16730000   1.008000   ; qtot 0.000839
 2724         hc     78    ccc    H12   2724 0.16730000   1.008000   ; qtot 0.168139
 2725          c     78    ccc     C8   2725 0.72110000  12.010000   ; qtot 0.889239
 2726          o     78    ccc     O2   2726 -0.61950000  16.000000   ; qtot 0.269739
 2727         h1     78    ccc    H13   2727 -0.05230000   1.008000   ; qtot 0.217439
 2728         h1     78    ccc    H14   2728 -0.05230000   1.008000   ; qtot 0.165139
 2729         c3     78    ccc     C9   2729 -0.60390000  12.010000   ; qtot -0.438762
 2730         hc     78    ccc    H15   2730 0.16730000   1.008000   ; qtot -0.271462
 2731         hc     78    ccc    H16   2731 0.16730000   1.008000   ; qtot -0.104162
 2732          c     78    ccc    C10   2732 0.72110000  12.010000   ; qtot 0.616938
 2733          o     78    ccc     O4   2733 -0.61950000  16.000000   ; qtot -0.002562
 2734         c3     78    ccc    C11   2734 0.08518000  12.010000   ; qtot 0.082618
 2735         c3     78    ccc    C12   2735 0.07918000  12.010000   ; qtot 0.161798
 2736         h1     78    ccc    H17   2736 0.06978000   1.008000   ; qtot 0.231578
 2737         c3     78    ccc    C13   2737 0.07918000  12.010000   ; qtot 0.310758
 2738         c3     78    ccc    C14   2738 0.03578000  12.010000   ; qtot 0.346538
 2739         c3     78    ccc    C15   2739 0.33498000  12.010000   ; qtot 0.681518
 2740         h1     78    ccc    H18   2740 0.06178000   1.008000   ; qtot 0.743298
 2741         h1     78    ccc    H19   2741 0.11278000   1.008000   ; qtot 0.856078
 2742         h2     78    ccc    H20   2742 0.12178000   1.008000   ; qtot 0.977858
 2743         oh     78    ccc     O1   2743 -0.56972000  16.000000   ; qtot 0.408138
 2744         oh     78    ccc     O6   2744 -0.57772000  16.000000   ; qtot -0.169582
 2745         c3     78    ccc    C16   2745 0.14548000  12.010000   ; qtot -0.024102
 2746         ho     78    ccc    H21   2746 0.40508000   1.008000   ; qtot 0.380978
 2747         hn     78    ccc    H22   2747 0.31758000   1.008000   ; qtot 0.698558
 2748         h1     78    ccc    H23   2748 0.06278000   1.008000   ; qtot 0.761338
 2749         h1     78    ccc    H24   2749 0.06278000   1.008000   ; qtot 0.824118
 2750         oh     78    ccc     O7   2750 -0.59472000  16.000000   ; qtot 0.229398
 2751         ho     78    ccc    H25   2751 0.41908000   1.008000   ; qtot 0.648478
 2752         os     78    ccc     O8   2752 -0.44552000  16.000000   ; qtot 0.202958
 2753         ho     78    ccc    H26   2753 0.41908000   1.008000   ; qtot 0.622038
 2754         h1     78    ccc    H27   2754 0.08578000   1.008000   ; qtot 0.707818
 2755         oh     78    ccc     O9   2755 -0.58672000  16.000000   ; qtot 0.121098
 2756         ho     78    ccc    H28   2756 0.41908000   1.008000   ; qtot 0.540178
 2757         n3     78    ccc     N3   2757 -0.54282000  14.010000   ; qtot -0.002642
 2758         c3     78    ccc    C17   2758 0.08518000  12.010000   ; qtot 0.082538
 2759         c3     78    ccc    C18   2759 0.07918000  12.010000   ; qtot 0.161718
 2760         h1     78    ccc    H29   2760 0.06978000   1.008000   ; qtot 0.231498
 2761         c3     78    ccc    C19   2761 0.07918000  12.010000   ; qtot 0.310678
 2762         c3     78    ccc    C20   2762 0.03578000  12.010000   ; qtot 0.346458
 2763         c3     78    ccc    C21   2763 0.33498000  12.010000   ; qtot 0.681438
 2764         h1     78    ccc    H30   2764 0.06178000   1.008000   ; qtot 0.743218
 2765         h1     78    ccc    H31   2765 0.11278000   1.008000   ; qtot 0.855998
 2766         h2     78    ccc    H32   2766 0.12178000   1.008000   ; qtot 0.977778
 2767         oh     78    ccc    O10   2767 -0.56972000  16.000000   ; qtot 0.408058
 2768         oh     78    ccc    O11   2768 -0.57772000  16.000000   ; qtot -0.169662
 2769         c3     78    ccc    C22   2769 0.14548000  12.010000   ; qtot -0.024182
 2770         ho     78    ccc    H33   2770 0.40508000   1.008000   ; qtot 0.380898
 2771         hn     78    ccc    H34   2771 0.31758000   1.008000   ; qtot 0.698478
 2772         h1     78    ccc    H35   2772 0.06278000   1.008000   ; qtot 0.761258
 2773         h1     78    ccc    H36   2773 0.06278000   1.008000   ; qtot 0.824038
 2774         oh     78    ccc    O12   2774 -0.59472000  16.000000   ; qtot 0.229318
 2775         ho     78    ccc    H37   2775 0.41908000   1.008000   ; qtot 0.648398
 2776         os     78    ccc    O13   2776 -0.44552000  16.000000   ; qtot 0.202878
 2777         ho     78    ccc    H38   2777 0.41908000   1.008000   ; qtot 0.621958
 2778         h1     78    ccc    H39   2778 0.08578000   1.008000   ; qtot 0.707738
 2779         oh     78    ccc     O5   2779 -0.58672000  16.000000   ; qtot 0.121018
 2780         ho     78    ccc    H40   2780 0.41908000   1.008000   ; qtot 0.540098
 2781         n3     78    ccc     N4   2781 -0.54282000  14.010000   ; qtot -0.002722
; residue   79 ccc rtp ccc q -0.0
 2782          n     79    ccc     N1   2782 -0.46580000  14.010000   ; qtot -0.468522
 2783         hn     79    ccc     H4   2783 0.31480000   1.008000   ; qtot -0.153722
 2784         c3     79    ccc     C3   2784 -0.28250000  12.010000   ; qtot -0.436222
 2785         h1     79    ccc     H5   2785 0.15710000   1.008000   ; qtot -0.279122
 2786         c3     79    ccc     C4   2786 0.44180000  12.010000   ; qtot 0.162678
 2787         h1     79    ccc     H6   2787 0.15710000   1.008000   ; qtot 0.319778
 2788         h1     79    ccc     H7   2788 -0.03530000   1.008000   ; qtot 0.284478
 2789         h1     79    ccc     H8   2789 -0.03530000   1.008000   ; qtot 0.249178
 2790         n3     79    ccc     N2   2790 -0.74090000  14.010000   ; qtot -0.491722
 2791         c3     79    ccc     C5   2791 0.51680000  12.010000   ; qtot 0.025078
 2792         c3     79    ccc     C6   2792 0.51680000  12.010000   ; qtot 0.541878
 2793         h1     79    ccc     H9   2793 -0.05230000   1.008000   ; qtot 0.489578
 2794         c3     79    ccc     C7   2794 -0.60390000  12.010000   ; qtot -0.114322
 2795         h1     79    ccc    H10   2795 -0.05230000   1.008000   ; qtot -0.166622
 2796         hc     79    ccc    H11   2796 0.16730000   1.008000   ; qtot 0.000678
 2797         hc     79    ccc    H12   2797 0.16730000   1.008000   ; qtot 0.167978
 2798          c     79    ccc     C8   2798 0.72110000  12.010000   ; qtot 0.889078
 2799          o     79    ccc     O2   2799 -0.61950000  16.000000   ; qtot 0.269578
 2800         h1     79    ccc    H13   2800 -0.05230000   1.008000   ; qtot 0.217278
 2801         h1     79    ccc    H14   2801 -0.05230000   1.008000   ; qtot 0.164978
 2802         c3     79    ccc     C9   2802 -0.60390000  12.010000   ; qtot -0.438922
 2803         hc     79    ccc    H15   2803 0.16730000   1.008000   ; qtot -0.271622
 2804         hc     79    ccc    H16   2804 0.16730000   1.008000   ; qtot -0.104322
 2805          c     79    ccc    C10   2805 0.72110000  12.010000   ; qtot 0.616778
 2806          o     79    ccc     O4   2806 -0.61950000  16.000000   ; qtot -0.002722
 2807         c3     79    ccc    C11   2807 0.08518000  12.010000   ; qtot 0.082458
 2808         c3     79    ccc    C12   2808 0.07918000  12.010000   ; qtot 0.161638
 2809         h1     79    ccc    H17   2809 0.06978000   1.008000   ; qtot 0.231418
 2810         c3     79    ccc    C13   2810 0.07918000  12.010000   ; qtot 0.310598
 2811         c3     79    ccc    C14   2811 0.03578000  12.010000   ; qtot 0.346378
 2812         c3     79    ccc    C15   2812 0.33498000  12.010000   ; qtot 0.681358
 2813         h1     79    ccc    H18   2813 0.06178000   1.008000   ; qtot 0.743138
 2814         h1     79    ccc    H19   2814 0.11278000   1.008000   ; qtot 0.855918
 2815         h2     79    ccc    H20   2815 0.12178000   1.008000   ; qtot 0.977698
 2816         oh     79    ccc     O1   2816 -0.56972000  16.000000   ; qtot 0.407978
 2817         oh     79    ccc     O6   2817 -0.57772000  16.000000   ; qtot -0.169742
 2818         c3     79    ccc    C16   2818 0.14548000  12.010000   ; qtot -0.024262
 2819         ho     79    ccc    H21   2819 0.40508000   1.008000   ; qtot 0.380818
 2820         hn     79    ccc    H22   2820 0.31758000   1.008000   ; qtot 0.698398
 2821         h1     79    ccc    H23   2821 0.06278000   1.008000   ; qtot 0.761178
 2822         h1     79    ccc    H24   2822 0.06278000   1.008000   ; qtot 0.823958
 2823         oh     79    ccc     O7   2823 -0.59472000  16.000000   ; qtot 0.229238
 2824         ho     79    ccc    H25   2824 0.41908000   1.008000   ; qtot 0.648318
 2825         os     79    ccc     O8   2825 -0.44552000  16.000000   ; qtot 0.202798
 2826         ho     79    ccc    H26   2826 0.41908000   1.008000   ; qtot 0.621878
 2827         h1     79    ccc    H27   2827 0.08578000   1.008000   ; qtot 0.707658
 2828         oh     79    ccc     O9   2828 -0.58672000  16.000000   ; qtot 0.120938
 2829         ho     79    ccc    H28   2829 0.41908000   1.008000   ; qtot 0.540018
 2830         n3     79    ccc     N3   2830 -0.54282000  14.010000   ; qtot -0.002802
 2831         c3     79    ccc    C17   2831 0.08518000  12.010000   ; qtot 0.082378
 2832         c3     79    ccc    C18   2832 0.07918000  12.010000   ; qtot 0.161558
 2833         h1     79    ccc    H29   2833 0.06978000   1.008000   ; qtot 0.231338
 2834         c3     79    ccc    C19   2834 0.07918000  12.010000   ; qtot 0.310518
 2835         c3     79    ccc    C20   2835 0.03578000  12.010000   ; qtot 0.346298
 2836         c3     79    ccc    C21   2836 0.33498000  12.010000   ; qtot 0.681278
 2837         h1     79    ccc    H30   2837 0.06178000   1.008000   ; qtot 0.743058
 2838         h1     79    ccc    H31   2838 0.11278000   1.008000   ; qtot 0.855838
 2839         h2     79    ccc    H32   2839 0.12178000   1.008000   ; qtot 0.977618
 2840         oh     79    ccc    O10   2840 -0.56972000  16.000000   ; qtot 0.407898
 2841         oh     79    ccc    O11   2841 -0.57772000  16.000000   ; qtot -0.169822
 2842         c3     79    ccc    C22   2842 0.14548000  12.010000   ; qtot -0.024342
 2843         ho     79    ccc    H33   2843 0.40508000   1.008000   ; qtot 0.380738
 2844         hn     79    ccc    H34   2844 0.31758000   1.008000   ; qtot 0.698318
 2845         h1     79    ccc    H35   2845 0.06278000   1.008000   ; qtot 0.761098
 2846         h1     79    ccc    H36   2846 0.06278000   1.008000   ; qtot 0.823878
 2847         oh     79    ccc    O12   2847 -0.59472000  16.000000   ; qtot 0.229158
 2848         ho     79    ccc    H37   2848 0.41908000   1.008000   ; qtot 0.648238
 2849         os     79    ccc    O13   2849 -0.44552000  16.000000   ; qtot 0.202718
 2850         ho     79    ccc    H38   2850 0.41908000   1.008000   ; qtot 0.621798
 2851         h1     79    ccc    H39   2851 0.08578000   1.008000   ; qtot 0.707578
 2852         oh     79    ccc     O5   2852 -0.58672000  16.000000   ; qtot 0.120858
 2853         ho     79    ccc    H40   2853 0.41908000   1.008000   ; qtot 0.539938
 2854         n3     79    ccc     N4   2854 -0.54282000  14.010000   ; qtot -0.002882
; residue   80 ccc rtp ccc q -0.0
 2855          n     80    ccc     N1   2855 -0.46580000  14.010000   ; qtot -0.468682
 2856         hn     80    ccc     H4   2856 0.31480000   1.008000   ; qtot -0.153882
 2857         c3     80    ccc     C3   2857 -0.28250000  12.010000   ; qtot -0.436382
 2858         h1     80    ccc     H5   2858 0.15710000   1.008000   ; qtot -0.279282
 2859         c3     80    ccc     C4   2859 0.44180000  12.010000   ; qtot 0.162518
 2860         h1     80    ccc     H6   2860 0.15710000   1.008000   ; qtot 0.319618
 2861         h1     80    ccc     H7   2861 -0.03530000   1.008000   ; qtot 0.284318
 2862         h1     80    ccc     H8   2862 -0.03530000   1.008000   ; qtot 0.249018
 2863         n3     80    ccc     N2   2863 -0.74090000  14.010000   ; qtot -0.491882
 2864         c3     80    ccc     C5   2864 0.51680000  12.010000   ; qtot 0.024918
 2865         c3     80    ccc     C6   2865 0.51680000  12.010000   ; qtot 0.541718
 2866         h1     80    ccc     H9   2866 -0.05230000   1.008000   ; qtot 0.489418
 2867         c3     80    ccc     C7   2867 -0.60390000  12.010000   ; qtot -0.114482
 2868         h1     80    ccc    H10   2868 -0.05230000   1.008000   ; qtot -0.166782
 2869         hc     80    ccc    H11   2869 0.16730000   1.008000   ; qtot 0.000518
 2870         hc     80    ccc    H12   2870 0.16730000   1.008000   ; qtot 0.167818
 2871          c     80    ccc     C8   2871 0.72110000  12.010000   ; qtot 0.888918
 2872          o     80    ccc     O2   2872 -0.61950000  16.000000   ; qtot 0.269418
 2873         h1     80    ccc    H13   2873 -0.05230000   1.008000   ; qtot 0.217118
 2874         h1     80    ccc    H14   2874 -0.05230000   1.008000   ; qtot 0.164818
 2875         c3     80    ccc     C9   2875 -0.60390000  12.010000   ; qtot -0.439082
 2876         hc     80    ccc    H15   2876 0.16730000   1.008000   ; qtot -0.271782
 2877         hc     80    ccc    H16   2877 0.16730000   1.008000   ; qtot -0.104482
 2878          c     80    ccc    C10   2878 0.72110000  12.010000   ; qtot 0.616618
 2879          o     80    ccc     O4   2879 -0.61950000  16.000000   ; qtot -0.002882
 2880         c3     80    ccc    C11   2880 0.08518000  12.010000   ; qtot 0.082298
 2881         c3     80    ccc    C12   2881 0.07918000  12.010000   ; qtot 0.161478
 2882         h1     80    ccc    H17   2882 0.06978000   1.008000   ; qtot 0.231258
 2883         c3     80    ccc    C13   2883 0.07918000  12.010000   ; qtot 0.310438
 2884         c3     80    ccc    C14   2884 0.03578000  12.010000   ; qtot 0.346218
 2885         c3     80    ccc    C15   2885 0.33498000  12.010000   ; qtot 0.681198
 2886         h1     80    ccc    H18   2886 0.06178000   1.008000   ; qtot 0.742978
 2887         h1     80    ccc    H19   2887 0.11278000   1.008000   ; qtot 0.855758
 2888         h2     80    ccc    H20   2888 0.12178000   1.008000   ; qtot 0.977538
 2889         oh     80    ccc     O1   2889 -0.56972000  16.000000   ; qtot 0.407818
 2890         oh     80    ccc     O6   2890 -0.57772000  16.000000   ; qtot -0.169902
 2891         c3     80    ccc    C16   2891 0.14548000  12.010000   ; qtot -0.024422
 2892         ho     80    ccc    H21   2892 0.40508000   1.008000   ; qtot 0.380658
 2893         hn     80    ccc    H22   2893 0.31758000   1.008000   ; qtot 0.698238
 2894         h1     80    ccc    H23   2894 0.06278000   1.008000   ; qtot 0.761018
 2895         h1     80    ccc    H24   2895 0.06278000   1.008000   ; qtot 0.823798
 2896         oh     80    ccc     O7   2896 -0.59472000  16.000000   ; qtot 0.229078
 2897         ho     80    ccc    H25   2897 0.41908000   1.008000   ; qtot 0.648158
 2898         os     80    ccc     O8   2898 -0.44552000  16.000000   ; qtot 0.202638
 2899         ho     80    ccc    H26   2899 0.41908000   1.008000   ; qtot 0.621718
 2900         h1     80    ccc    H27   2900 0.08578000   1.008000   ; qtot 0.707498
 2901         oh     80    ccc     O9   2901 -0.58672000  16.000000   ; qtot 0.120778
 2902         ho     80    ccc    H28   2902 0.41908000   1.008000   ; qtot 0.539858
 2903         n3     80    ccc     N3   2903 -0.54282000  14.010000   ; qtot -0.002962
 2904         c3     80    ccc    C17   2904 0.08518000  12.010000   ; qtot 0.082218
 2905         c3     80    ccc    C18   2905 0.07918000  12.010000   ; qtot 0.161398
 2906         h1     80    ccc    H29   2906 0.06978000   1.008000   ; qtot 0.231178
 2907         c3     80    ccc    C19   2907 0.07918000  12.010000   ; qtot 0.310358
 2908         c3     80    ccc    C20   2908 0.03578000  12.010000   ; qtot 0.346138
 2909         c3     80    ccc    C21   2909 0.33498000  12.010000   ; qtot 0.681118
 2910         h1     80    ccc    H30   2910 0.06178000   1.008000   ; qtot 0.742898
 2911         h1     80    ccc    H31   2911 0.11278000   1.008000   ; qtot 0.855678
 2912         h2     80    ccc    H32   2912 0.12178000   1.008000   ; qtot 0.977458
 2913         oh     80    ccc    O10   2913 -0.56972000  16.000000   ; qtot 0.407738
 2914         oh     80    ccc    O11   2914 -0.57772000  16.000000   ; qtot -0.169982
 2915         c3     80    ccc    C22   2915 0.14548000  12.010000   ; qtot -0.024502
 2916         ho     80    ccc    H33   2916 0.40508000   1.008000   ; qtot 0.380578
 2917         hn     80    ccc    H34   2917 0.31758000   1.008000   ; qtot 0.698158
 2918         h1     80    ccc    H35   2918 0.06278000   1.008000   ; qtot 0.760938
 2919         h1     80    ccc    H36   2919 0.06278000   1.008000   ; qtot 0.823718
 2920         oh     80    ccc    O12   2920 -0.59472000  16.000000   ; qtot 0.228998
 2921         ho     80    ccc    H37   2921 0.41908000   1.008000   ; qtot 0.648078
 2922         os     80    ccc    O13   2922 -0.44552000  16.000000   ; qtot 0.202558
 2923         ho     80    ccc    H38   2923 0.41908000   1.008000   ; qtot 0.621638
 2924         h1     80    ccc    H39   2924 0.08578000   1.008000   ; qtot 0.707418
 2925         oh     80    ccc     O5   2925 -0.58672000  16.000000   ; qtot 0.120698
 2926         ho     80    ccc    H40   2926 0.41908000   1.008000   ; qtot 0.539778
 2927         n3     80    ccc     N4   2927 -0.54282000  14.010000   ; qtot -0.003042
; residue   81 ccc rtp ccc q -0.0
 2928          n     81    ccc     N1   2928 -0.46580000  14.010000   ; qtot -0.468842
 2929         hn     81    ccc     H4   2929 0.31480000   1.008000   ; qtot -0.154042
 2930         c3     81    ccc     C3   2930 -0.28250000  12.010000   ; qtot -0.436542
 2931         h1     81    ccc     H5   2931 0.15710000   1.008000   ; qtot -0.279442
 2932         c3     81    ccc     C4   2932 0.44180000  12.010000   ; qtot 0.162358
 2933         h1     81    ccc     H6   2933 0.15710000   1.008000   ; qtot 0.319458
 2934         h1     81    ccc     H7   2934 -0.03530000   1.008000   ; qtot 0.284158
 2935         h1     81    ccc     H8   2935 -0.03530000   1.008000   ; qtot 0.248858
 2936         n3     81    ccc     N2   2936 -0.74090000  14.010000   ; qtot -0.492042
 2937         c3     81    ccc     C5   2937 0.51680000  12.010000   ; qtot 0.024758
 2938         c3     81    ccc     C6   2938 0.51680000  12.010000   ; qtot 0.541558
 2939         h1     81    ccc     H9   2939 -0.05230000   1.008000   ; qtot 0.489258
 2940         c3     81    ccc     C7   2940 -0.60390000  12.010000   ; qtot -0.114642
 2941         h1     81    ccc    H10   2941 -0.05230000   1.008000   ; qtot -0.166942
 2942         hc     81    ccc    H11   2942 0.16730000   1.008000   ; qtot 0.000358
 2943         hc     81    ccc    H12   2943 0.16730000   1.008000   ; qtot 0.167658
 2944          c     81    ccc     C8   2944 0.72110000  12.010000   ; qtot 0.888758
 2945          o     81    ccc     O2   2945 -0.61950000  16.000000   ; qtot 0.269258
 2946         h1     81    ccc    H13   2946 -0.05230000   1.008000   ; qtot 0.216958
 2947         h1     81    ccc    H14   2947 -0.05230000   1.008000   ; qtot 0.164658
 2948         c3     81    ccc     C9   2948 -0.60390000  12.010000   ; qtot -0.439242
 2949         hc     81    ccc    H15   2949 0.16730000   1.008000   ; qtot -0.271942
 2950         hc     81    ccc    H16   2950 0.16730000   1.008000   ; qtot -0.104642
 2951          c     81    ccc    C10   2951 0.72110000  12.010000   ; qtot 0.616458
 2952          o     81    ccc     O4   2952 -0.61950000  16.000000   ; qtot -0.003042
 2953         c3     81    ccc    C11   2953 0.08518000  12.010000   ; qtot 0.082138
 2954         c3     81    ccc    C12   2954 0.07918000  12.010000   ; qtot 0.161318
 2955         h1     81    ccc    H17   2955 0.06978000   1.008000   ; qtot 0.231098
 2956         c3     81    ccc    C13   2956 0.07918000  12.010000   ; qtot 0.310278
 2957         c3     81    ccc    C14   2957 0.03578000  12.010000   ; qtot 0.346058
 2958         c3     81    ccc    C15   2958 0.33498000  12.010000   ; qtot 0.681038
 2959         h1     81    ccc    H18   2959 0.06178000   1.008000   ; qtot 0.742818
 2960         h1     81    ccc    H19   2960 0.11278000   1.008000   ; qtot 0.855598
 2961         h2     81    ccc    H20   2961 0.12178000   1.008000   ; qtot 0.977378
 2962         oh     81    ccc     O1   2962 -0.56972000  16.000000   ; qtot 0.407658
 2963         oh     81    ccc     O6   2963 -0.57772000  16.000000   ; qtot -0.170062
 2964         c3     81    ccc    C16   2964 0.14548000  12.010000   ; qtot -0.024582
 2965         ho     81    ccc    H21   2965 0.40508000   1.008000   ; qtot 0.380498
 2966         hn     81    ccc    H22   2966 0.31758000   1.008000   ; qtot 0.698078
 2967         h1     81    ccc    H23   2967 0.06278000   1.008000   ; qtot 0.760858
 2968         h1     81    ccc    H24   2968 0.06278000   1.008000   ; qtot 0.823638
 2969         oh     81    ccc     O7   2969 -0.59472000  16.000000   ; qtot 0.228918
 2970         ho     81    ccc    H25   2970 0.41908000   1.008000   ; qtot 0.647998
 2971         os     81    ccc     O8   2971 -0.44552000  16.000000   ; qtot 0.202478
 2972         ho     81    ccc    H26   2972 0.41908000   1.008000   ; qtot 0.621558
 2973         h1     81    ccc    H27   2973 0.08578000   1.008000   ; qtot 0.707338
 2974         oh     81    ccc     O9   2974 -0.58672000  16.000000   ; qtot 0.120618
 2975         ho     81    ccc    H28   2975 0.41908000   1.008000   ; qtot 0.539698
 2976         n3     81    ccc     N3   2976 -0.54282000  14.010000   ; qtot -0.003122
 2977         c3     81    ccc    C17   2977 0.08518000  12.010000   ; qtot 0.082058
 2978         c3     81    ccc    C18   2978 0.07918000  12.010000   ; qtot 0.161238
 2979         h1     81    ccc    H29   2979 0.06978000   1.008000   ; qtot 0.231018
 2980         c3     81    ccc    C19   2980 0.07918000  12.010000   ; qtot 0.310198
 2981         c3     81    ccc    C20   2981 0.03578000  12.010000   ; qtot 0.345978
 2982         c3     81    ccc    C21   2982 0.33498000  12.010000   ; qtot 0.680958
 2983         h1     81    ccc    H30   2983 0.06178000   1.008000   ; qtot 0.742738
 2984         h1     81    ccc    H31   2984 0.11278000   1.008000   ; qtot 0.855518
 2985         h2     81    ccc    H32   2985 0.12178000   1.008000   ; qtot 0.977298
 2986         oh     81    ccc    O10   2986 -0.56972000  16.000000   ; qtot 0.407578
 2987         oh     81    ccc    O11   2987 -0.57772000  16.000000   ; qtot -0.170142
 2988         c3     81    ccc    C22   2988 0.14548000  12.010000   ; qtot -0.024662
 2989         ho     81    ccc    H33   2989 0.40508000   1.008000   ; qtot 0.380418
 2990         hn     81    ccc    H34   2990 0.31758000   1.008000   ; qtot 0.697998
 2991         h1     81    ccc    H35   2991 0.06278000   1.008000   ; qtot 0.760778
 2992         h1     81    ccc    H36   2992 0.06278000   1.008000   ; qtot 0.823558
 2993         oh     81    ccc    O12   2993 -0.59472000  16.000000   ; qtot 0.228838
 2994         ho     81    ccc    H37   2994 0.41908000   1.008000   ; qtot 0.647918
 2995         os     81    ccc    O13   2995 -0.44552000  16.000000   ; qtot 0.202398
 2996         ho     81    ccc    H38   2996 0.41908000   1.008000   ; qtot 0.621478
 2997         h1     81    ccc    H39   2997 0.08578000   1.008000   ; qtot 0.707258
 2998         oh     81    ccc     O5   2998 -0.58672000  16.000000   ; qtot 0.120538
 2999         ho     81    ccc    H40   2999 0.41908000   1.008000   ; qtot 0.539618
 3000         n3     81    ccc     N4   3000 -0.54282000  14.010000   ; qtot -0.003202
; residue   82 ccc rtp ccc q -0.0
 3001          n     82    ccc     N1   3001 -0.46580000  14.010000   ; qtot -0.469002
 3002         hn     82    ccc     H4   3002 0.31480000   1.008000   ; qtot -0.154202
 3003         c3     82    ccc     C3   3003 -0.28250000  12.010000   ; qtot -0.436702
 3004         h1     82    ccc     H5   3004 0.15710000   1.008000   ; qtot -0.279602
 3005         c3     82    ccc     C4   3005 0.44180000  12.010000   ; qtot 0.162198
 3006         h1     82    ccc     H6   3006 0.15710000   1.008000   ; qtot 0.319298
 3007         h1     82    ccc     H7   3007 -0.03530000   1.008000   ; qtot 0.283998
 3008         h1     82    ccc     H8   3008 -0.03530000   1.008000   ; qtot 0.248698
 3009         n3     82    ccc     N2   3009 -0.74090000  14.010000   ; qtot -0.492202
 3010         c3     82    ccc     C5   3010 0.51680000  12.010000   ; qtot 0.024598
 3011         c3     82    ccc     C6   3011 0.51680000  12.010000   ; qtot 0.541398
 3012         h1     82    ccc     H9   3012 -0.05230000   1.008000   ; qtot 0.489098
 3013         c3     82    ccc     C7   3013 -0.60390000  12.010000   ; qtot -0.114802
 3014         h1     82    ccc    H10   3014 -0.05230000   1.008000   ; qtot -0.167102
 3015         hc     82    ccc    H11   3015 0.16730000   1.008000   ; qtot 0.000198
 3016         hc     82    ccc    H12   3016 0.16730000   1.008000   ; qtot 0.167498
 3017          c     82    ccc     C8   3017 0.72110000  12.010000   ; qtot 0.888598
 3018          o     82    ccc     O2   3018 -0.61950000  16.000000   ; qtot 0.269098
 3019         h1     82    ccc    H13   3019 -0.05230000   1.008000   ; qtot 0.216798
 3020         h1     82    ccc    H14   3020 -0.05230000   1.008000   ; qtot 0.164498
 3021         c3     82    ccc     C9   3021 -0.60390000  12.010000   ; qtot -0.439402
 3022         hc     82    ccc    H15   3022 0.16730000   1.008000   ; qtot -0.272102
 3023         hc     82    ccc    H16   3023 0.16730000   1.008000   ; qtot -0.104802
 3024          c     82    ccc    C10   3024 0.72110000  12.010000   ; qtot 0.616298
 3025          o     82    ccc     O4   3025 -0.61950000  16.000000   ; qtot -0.003202
 3026         c3     82    ccc    C11   3026 0.08518000  12.010000   ; qtot 0.081978
 3027         c3     82    ccc    C12   3027 0.07918000  12.010000   ; qtot 0.161158
 3028         h1     82    ccc    H17   3028 0.06978000   1.008000   ; qtot 0.230938
 3029         c3     82    ccc    C13   3029 0.07918000  12.010000   ; qtot 0.310118
 3030         c3     82    ccc    C14   3030 0.03578000  12.010000   ; qtot 0.345898
 3031         c3     82    ccc    C15   3031 0.33498000  12.010000   ; qtot 0.680878
 3032         h1     82    ccc    H18   3032 0.06178000   1.008000   ; qtot 0.742658
 3033         h1     82    ccc    H19   3033 0.11278000   1.008000   ; qtot 0.855438
 3034         h2     82    ccc    H20   3034 0.12178000   1.008000   ; qtot 0.977218
 3035         oh     82    ccc     O1   3035 -0.56972000  16.000000   ; qtot 0.407498
 3036         oh     82    ccc     O6   3036 -0.57772000  16.000000   ; qtot -0.170222
 3037         c3     82    ccc    C16   3037 0.14548000  12.010000   ; qtot -0.024742
 3038         ho     82    ccc    H21   3038 0.40508000   1.008000   ; qtot 0.380338
 3039         hn     82    ccc    H22   3039 0.31758000   1.008000   ; qtot 0.697918
 3040         h1     82    ccc    H23   3040 0.06278000   1.008000   ; qtot 0.760698
 3041         h1     82    ccc    H24   3041 0.06278000   1.008000   ; qtot 0.823478
 3042         oh     82    ccc     O7   3042 -0.59472000  16.000000   ; qtot 0.228758
 3043         ho     82    ccc    H25   3043 0.41908000   1.008000   ; qtot 0.647838
 3044         os     82    ccc     O8   3044 -0.44552000  16.000000   ; qtot 0.202318
 3045         ho     82    ccc    H26   3045 0.41908000   1.008000   ; qtot 0.621398
 3046         h1     82    ccc    H27   3046 0.08578000   1.008000   ; qtot 0.707178
 3047         oh     82    ccc     O9   3047 -0.58672000  16.000000   ; qtot 0.120458
 3048         ho     82    ccc    H28   3048 0.41908000   1.008000   ; qtot 0.539538
 3049         n3     82    ccc     N3   3049 -0.54282000  14.010000   ; qtot -0.003282
 3050         c3     82    ccc    C17   3050 0.08518000  12.010000   ; qtot 0.081898
 3051         c3     82    ccc    C18   3051 0.07918000  12.010000   ; qtot 0.161078
 3052         h1     82    ccc    H29   3052 0.06978000   1.008000   ; qtot 0.230858
 3053         c3     82    ccc    C19   3053 0.07918000  12.010000   ; qtot 0.310038
 3054         c3     82    ccc    C20   3054 0.03578000  12.010000   ; qtot 0.345818
 3055         c3     82    ccc    C21   3055 0.33498000  12.010000   ; qtot 0.680798
 3056         h1     82    ccc    H30   3056 0.06178000   1.008000   ; qtot 0.742578
 3057         h1     82    ccc    H31   3057 0.11278000   1.008000   ; qtot 0.855358
 3058         h2     82    ccc    H32   3058 0.12178000   1.008000   ; qtot 0.977138
 3059         oh     82    ccc    O10   3059 -0.56972000  16.000000   ; qtot 0.407418
 3060         oh     82    ccc    O11   3060 -0.57772000  16.000000   ; qtot -0.170302
 3061         c3     82    ccc    C22   3061 0.14548000  12.010000   ; qtot -0.024822
 3062         ho     82    ccc    H33   3062 0.40508000   1.008000   ; qtot 0.380258
 3063         hn     82    ccc    H34   3063 0.31758000   1.008000   ; qtot 0.697838
 3064         h1     82    ccc    H35   3064 0.06278000   1.008000   ; qtot 0.760618
 3065         h1     82    ccc    H36   3065 0.06278000   1.008000   ; qtot 0.823398
 3066         oh     82    ccc    O12   3066 -0.59472000  16.000000   ; qtot 0.228678
 3067         ho     82    ccc    H37   3067 0.41908000   1.008000   ; qtot 0.647758
 3068         os     82    ccc    O13   3068 -0.44552000  16.000000   ; qtot 0.202238
 3069         ho     82    ccc    H38   3069 0.41908000   1.008000   ; qtot 0.621318
 3070         h1     82    ccc    H39   3070 0.08578000   1.008000   ; qtot 0.707098
 3071         oh     82    ccc     O5   3071 -0.58672000  16.000000   ; qtot 0.120378
 3072         ho     82    ccc    H40   3072 0.41908000   1.008000   ; qtot 0.539458
 3073         n3     82    ccc     N4   3073 -0.54282000  14.010000   ; qtot -0.003362
; residue   83 ccc rtp ccc q -0.0
 3074          n     83    ccc     N1   3074 -0.46580000  14.010000   ; qtot -0.469162
 3075         hn     83    ccc     H4   3075 0.31480000   1.008000   ; qtot -0.154362
 3076         c3     83    ccc     C3   3076 -0.28250000  12.010000   ; qtot -0.436862
 3077         h1     83    ccc     H5   3077 0.15710000   1.008000   ; qtot -0.279762
 3078         c3     83    ccc     C4   3078 0.44180000  12.010000   ; qtot 0.162038
 3079         h1     83    ccc     H6   3079 0.15710000   1.008000   ; qtot 0.319138
 3080         h1     83    ccc     H7   3080 -0.03530000   1.008000   ; qtot 0.283838
 3081         h1     83    ccc     H8   3081 -0.03530000   1.008000   ; qtot 0.248538
 3082         n3     83    ccc     N2   3082 -0.74090000  14.010000   ; qtot -0.492362
 3083         c3     83    ccc     C5   3083 0.51680000  12.010000   ; qtot 0.024438
 3084         c3     83    ccc     C6   3084 0.51680000  12.010000   ; qtot 0.541238
 3085         h1     83    ccc     H9   3085 -0.05230000   1.008000   ; qtot 0.488938
 3086         c3     83    ccc     C7   3086 -0.60390000  12.010000   ; qtot -0.114962
 3087         h1     83    ccc    H10   3087 -0.05230000   1.008000   ; qtot -0.167262
 3088         hc     83    ccc    H11   3088 0.16730000   1.008000   ; qtot 0.000038
 3089         hc     83    ccc    H12   3089 0.16730000   1.008000   ; qtot 0.167338
 3090          c     83    ccc     C8   3090 0.72110000  12.010000   ; qtot 0.888438
 3091          o     83    ccc     O2   3091 -0.61950000  16.000000   ; qtot 0.268938
 3092         h1     83    ccc    H13   3092 -0.05230000   1.008000   ; qtot 0.216638
 3093         h1     83    ccc    H14   3093 -0.05230000   1.008000   ; qtot 0.164338
 3094         c3     83    ccc     C9   3094 -0.60390000  12.010000   ; qtot -0.439562
 3095         hc     83    ccc    H15   3095 0.16730000   1.008000   ; qtot -0.272262
 3096         hc     83    ccc    H16   3096 0.16730000   1.008000   ; qtot -0.104962
 3097          c     83    ccc    C10   3097 0.72110000  12.010000   ; qtot 0.616138
 3098          o     83    ccc     O4   3098 -0.61950000  16.000000   ; qtot -0.003362
 3099         c3     83    ccc    C11   3099 0.08518000  12.010000   ; qtot 0.081818
 3100         c3     83    ccc    C12   3100 0.07918000  12.010000   ; qtot 0.160998
 3101         h1     83    ccc    H17   3101 0.06978000   1.008000   ; qtot 0.230778
 3102         c3     83    ccc    C13   3102 0.07918000  12.010000   ; qtot 0.309958
 3103         c3     83    ccc    C14   3103 0.03578000  12.010000   ; qtot 0.345738
 3104         c3     83    ccc    C15   3104 0.33498000  12.010000   ; qtot 0.680718
 3105         h1     83    ccc    H18   3105 0.06178000   1.008000   ; qtot 0.742498
 3106         h1     83    ccc    H19   3106 0.11278000   1.008000   ; qtot 0.855278
 3107         h2     83    ccc    H20   3107 0.12178000   1.008000   ; qtot 0.977058
 3108         oh     83    ccc     O1   3108 -0.56972000  16.000000   ; qtot 0.407338
 3109         oh     83    ccc     O6   3109 -0.57772000  16.000000   ; qtot -0.170382
 3110         c3     83    ccc    C16   3110 0.14548000  12.010000   ; qtot -0.024902
 3111         ho     83    ccc    H21   3111 0.40508000   1.008000   ; qtot 0.380178
 3112         hn     83    ccc    H22   3112 0.31758000   1.008000   ; qtot 0.697758
 3113         h1     83    ccc    H23   3113 0.06278000   1.008000   ; qtot 0.760538
 3114         h1     83    ccc    H24   3114 0.06278000   1.008000   ; qtot 0.823318
 3115         oh     83    ccc     O7   3115 -0.59472000  16.000000   ; qtot 0.228598
 3116         ho     83    ccc    H25   3116 0.41908000   1.008000   ; qtot 0.647678
 3117         os     83    ccc     O8   3117 -0.44552000  16.000000   ; qtot 0.202158
 3118         ho     83    ccc    H26   3118 0.41908000   1.008000   ; qtot 0.621238
 3119         h1     83    ccc    H27   3119 0.08578000   1.008000   ; qtot 0.707018
 3120         oh     83    ccc     O9   3120 -0.58672000  16.000000   ; qtot 0.120298
 3121         ho     83    ccc    H28   3121 0.41908000   1.008000   ; qtot 0.539378
 3122         n3     83    ccc     N3   3122 -0.54282000  14.010000   ; qtot -0.003442
 3123         c3     83    ccc    C17   3123 0.08518000  12.010000   ; qtot 0.081738
 3124         c3     83    ccc    C18   3124 0.07918000  12.010000   ; qtot 0.160918
 3125         h1     83    ccc    H29   3125 0.06978000   1.008000   ; qtot 0.230698
 3126         c3     83    ccc    C19   3126 0.07918000  12.010000   ; qtot 0.309878
 3127         c3     83    ccc    C20   3127 0.03578000  12.010000   ; qtot 0.345658
 3128         c3     83    ccc    C21   3128 0.33498000  12.010000   ; qtot 0.680638
 3129         h1     83    ccc    H30   3129 0.06178000   1.008000   ; qtot 0.742418
 3130         h1     83    ccc    H31   3130 0.11278000   1.008000   ; qtot 0.855198
 3131         h2     83    ccc    H32   3131 0.12178000   1.008000   ; qtot 0.976978
 3132         oh     83    ccc    O10   3132 -0.56972000  16.000000   ; qtot 0.407258
 3133         oh     83    ccc    O11   3133 -0.57772000  16.000000   ; qtot -0.170462
 3134         c3     83    ccc    C22   3134 0.14548000  12.010000   ; qtot -0.024982
 3135         ho     83    ccc    H33   3135 0.40508000   1.008000   ; qtot 0.380098
 3136         hn     83    ccc    H34   3136 0.31758000   1.008000   ; qtot 0.697678
 3137         h1     83    ccc    H35   3137 0.06278000   1.008000   ; qtot 0.760458
 3138         h1     83    ccc    H36   3138 0.06278000   1.008000   ; qtot 0.823238
 3139         oh     83    ccc    O12   3139 -0.59472000  16.000000   ; qtot 0.228518
 3140         ho     83    ccc    H37   3140 0.41908000   1.008000   ; qtot 0.647598
 3141         os     83    ccc    O13   3141 -0.44552000  16.000000   ; qtot 0.202078
 3142         ho     83    ccc    H38   3142 0.41908000   1.008000   ; qtot 0.621158
 3143         h1     83    ccc    H39   3143 0.08578000   1.008000   ; qtot 0.706938
 3144         oh     83    ccc     O5   3144 -0.58672000  16.000000   ; qtot 0.120218
 3145         ho     83    ccc    H40   3145 0.41908000   1.008000   ; qtot 0.539298
 3146         n3     83    ccc     N4   3146 -0.54282000  14.010000   ; qtot -0.003522
; residue   84 ccc rtp ccc q -0.0
 3147          n     84    ccc     N1   3147 -0.46580000  14.010000   ; qtot -0.469322
 3148         hn     84    ccc     H4   3148 0.31480000   1.008000   ; qtot -0.154522
 3149         c3     84    ccc     C3   3149 -0.28250000  12.010000   ; qtot -0.437022
 3150         h1     84    ccc     H5   3150 0.15710000   1.008000   ; qtot -0.279922
 3151         c3     84    ccc     C4   3151 0.44180000  12.010000   ; qtot 0.161878
 3152         h1     84    ccc     H6   3152 0.15710000   1.008000   ; qtot 0.318978
 3153         h1     84    ccc     H7   3153 -0.03530000   1.008000   ; qtot 0.283678
 3154         h1     84    ccc     H8   3154 -0.03530000   1.008000   ; qtot 0.248378
 3155         n3     84    ccc     N2   3155 -0.74090000  14.010000   ; qtot -0.492522
 3156         c3     84    ccc     C5   3156 0.51680000  12.010000   ; qtot 0.024278
 3157         c3     84    ccc     C6   3157 0.51680000  12.010000   ; qtot 0.541078
 3158         h1     84    ccc     H9   3158 -0.05230000   1.008000   ; qtot 0.488778
 3159         c3     84    ccc     C7   3159 -0.60390000  12.010000   ; qtot -0.115122
 3160         h1     84    ccc    H10   3160 -0.05230000   1.008000   ; qtot -0.167422
 3161         hc     84    ccc    H11   3161 0.16730000   1.008000   ; qtot -0.000122
 3162         hc     84    ccc    H12   3162 0.16730000   1.008000   ; qtot 0.167178
 3163          c     84    ccc     C8   3163 0.72110000  12.010000   ; qtot 0.888278
 3164          o     84    ccc     O2   3164 -0.61950000  16.000000   ; qtot 0.268778
 3165         h1     84    ccc    H13   3165 -0.05230000   1.008000   ; qtot 0.216478
 3166         h1     84    ccc    H14   3166 -0.05230000   1.008000   ; qtot 0.164178
 3167         c3     84    ccc     C9   3167 -0.60390000  12.010000   ; qtot -0.439722
 3168         hc     84    ccc    H15   3168 0.16730000   1.008000   ; qtot -0.272422
 3169         hc     84    ccc    H16   3169 0.16730000   1.008000   ; qtot -0.105122
 3170          c     84    ccc    C10   3170 0.72110000  12.010000   ; qtot 0.615978
 3171          o     84    ccc     O4   3171 -0.61950000  16.000000   ; qtot -0.003522
 3172         c3     84    ccc    C11   3172 0.08518000  12.010000   ; qtot 0.081658
 3173         c3     84    ccc    C12   3173 0.07918000  12.010000   ; qtot 0.160838
 3174         h1     84    ccc    H17   3174 0.06978000   1.008000   ; qtot 0.230618
 3175         c3     84    ccc    C13   3175 0.07918000  12.010000   ; qtot 0.309798
 3176         c3     84    ccc    C14   3176 0.03578000  12.010000   ; qtot 0.345578
 3177         c3     84    ccc    C15   3177 0.33498000  12.010000   ; qtot 0.680558
 3178         h1     84    ccc    H18   3178 0.06178000   1.008000   ; qtot 0.742338
 3179         h1     84    ccc    H19   3179 0.11278000   1.008000   ; qtot 0.855118
 3180         h2     84    ccc    H20   3180 0.12178000   1.008000   ; qtot 0.976898
 3181         oh     84    ccc     O1   3181 -0.56972000  16.000000   ; qtot 0.407178
 3182         oh     84    ccc     O6   3182 -0.57772000  16.000000   ; qtot -0.170542
 3183         c3     84    ccc    C16   3183 0.14548000  12.010000   ; qtot -0.025062
 3184         ho     84    ccc    H21   3184 0.40508000   1.008000   ; qtot 0.380018
 3185         hn     84    ccc    H22   3185 0.31758000   1.008000   ; qtot 0.697598
 3186         h1     84    ccc    H23   3186 0.06278000   1.008000   ; qtot 0.760378
 3187         h1     84    ccc    H24   3187 0.06278000   1.008000   ; qtot 0.823158
 3188         oh     84    ccc     O7   3188 -0.59472000  16.000000   ; qtot 0.228438
 3189         ho     84    ccc    H25   3189 0.41908000   1.008000   ; qtot 0.647518
 3190         os     84    ccc     O8   3190 -0.44552000  16.000000   ; qtot 0.201998
 3191         ho     84    ccc    H26   3191 0.41908000   1.008000   ; qtot 0.621078
 3192         h1     84    ccc    H27   3192 0.08578000   1.008000   ; qtot 0.706858
 3193         oh     84    ccc     O9   3193 -0.58672000  16.000000   ; qtot 0.120138
 3194         ho     84    ccc    H28   3194 0.41908000   1.008000   ; qtot 0.539218
 3195         n3     84    ccc     N3   3195 -0.54282000  14.010000   ; qtot -0.003602
 3196         c3     84    ccc    C17   3196 0.08518000  12.010000   ; qtot 0.081578
 3197         c3     84    ccc    C18   3197 0.07918000  12.010000   ; qtot 0.160758
 3198         h1     84    ccc    H29   3198 0.06978000   1.008000   ; qtot 0.230538
 3199         c3     84    ccc    C19   3199 0.07918000  12.010000   ; qtot 0.309718
 3200         c3     84    ccc    C20   3200 0.03578000  12.010000   ; qtot 0.345498
 3201         c3     84    ccc    C21   3201 0.33498000  12.010000   ; qtot 0.680478
 3202         h1     84    ccc    H30   3202 0.06178000   1.008000   ; qtot 0.742258
 3203         h1     84    ccc    H31   3203 0.11278000   1.008000   ; qtot 0.855038
 3204         h2     84    ccc    H32   3204 0.12178000   1.008000   ; qtot 0.976818
 3205         oh     84    ccc    O10   3205 -0.56972000  16.000000   ; qtot 0.407098
 3206         oh     84    ccc    O11   3206 -0.57772000  16.000000   ; qtot -0.170622
 3207         c3     84    ccc    C22   3207 0.14548000  12.010000   ; qtot -0.025142
 3208         ho     84    ccc    H33   3208 0.40508000   1.008000   ; qtot 0.379938
 3209         hn     84    ccc    H34   3209 0.31758000   1.008000   ; qtot 0.697518
 3210         h1     84    ccc    H35   3210 0.06278000   1.008000   ; qtot 0.760298
 3211         h1     84    ccc    H36   3211 0.06278000   1.008000   ; qtot 0.823078
 3212         oh     84    ccc    O12   3212 -0.59472000  16.000000   ; qtot 0.228358
 3213         ho     84    ccc    H37   3213 0.41908000   1.008000   ; qtot 0.647438
 3214         os     84    ccc    O13   3214 -0.44552000  16.000000   ; qtot 0.201918
 3215         ho     84    ccc    H38   3215 0.41908000   1.008000   ; qtot 0.620998
 3216         h1     84    ccc    H39   3216 0.08578000   1.008000   ; qtot 0.706778
 3217         oh     84    ccc     O5   3217 -0.58672000  16.000000   ; qtot 0.120058
 3218         ho     84    ccc    H40   3218 0.41908000   1.008000   ; qtot 0.539138
 3219         n3     84    ccc     N4   3219 -0.54282000  14.010000   ; qtot -0.003682
; residue   85 ccc rtp ccc q -0.0
 3220          n     85    ccc     N1   3220 -0.46580000  14.010000   ; qtot -0.469482
 3221         hn     85    ccc     H4   3221 0.31480000   1.008000   ; qtot -0.154682
 3222         c3     85    ccc     C3   3222 -0.28250000  12.010000   ; qtot -0.437182
 3223         h1     85    ccc     H5   3223 0.15710000   1.008000   ; qtot -0.280082
 3224         c3     85    ccc     C4   3224 0.44180000  12.010000   ; qtot 0.161718
 3225         h1     85    ccc     H6   3225 0.15710000   1.008000   ; qtot 0.318818
 3226         h1     85    ccc     H7   3226 -0.03530000   1.008000   ; qtot 0.283518
 3227         h1     85    ccc     H8   3227 -0.03530000   1.008000   ; qtot 0.248218
 3228         n3     85    ccc     N2   3228 -0.74090000  14.010000   ; qtot -0.492682
 3229         c3     85    ccc     C5   3229 0.51680000  12.010000   ; qtot 0.024118
 3230         c3     85    ccc     C6   3230 0.51680000  12.010000   ; qtot 0.540918
 3231         h1     85    ccc     H9   3231 -0.05230000   1.008000   ; qtot 0.488618
 3232         c3     85    ccc     C7   3232 -0.60390000  12.010000   ; qtot -0.115282
 3233         h1     85    ccc    H10   3233 -0.05230000   1.008000   ; qtot -0.167582
 3234         hc     85    ccc    H11   3234 0.16730000   1.008000   ; qtot -0.000282
 3235         hc     85    ccc    H12   3235 0.16730000   1.008000   ; qtot 0.167018
 3236          c     85    ccc     C8   3236 0.72110000  12.010000   ; qtot 0.888118
 3237          o     85    ccc     O2   3237 -0.61950000  16.000000   ; qtot 0.268618
 3238         h1     85    ccc    H13   3238 -0.05230000   1.008000   ; qtot 0.216318
 3239         h1     85    ccc    H14   3239 -0.05230000   1.008000   ; qtot 0.164018
 3240         c3     85    ccc     C9   3240 -0.60390000  12.010000   ; qtot -0.439882
 3241         hc     85    ccc    H15   3241 0.16730000   1.008000   ; qtot -0.272582
 3242         hc     85    ccc    H16   3242 0.16730000   1.008000   ; qtot -0.105282
 3243          c     85    ccc    C10   3243 0.72110000  12.010000   ; qtot 0.615818
 3244          o     85    ccc     O4   3244 -0.61950000  16.000000   ; qtot -0.003682
 3245         c3     85    ccc    C11   3245 0.08518000  12.010000   ; qtot 0.081498
 3246         c3     85    ccc    C12   3246 0.07918000  12.010000   ; qtot 0.160678
 3247         h1     85    ccc    H17   3247 0.06978000   1.008000   ; qtot 0.230458
 3248         c3     85    ccc    C13   3248 0.07918000  12.010000   ; qtot 0.309638
 3249         c3     85    ccc    C14   3249 0.03578000  12.010000   ; qtot 0.345418
 3250         c3     85    ccc    C15   3250 0.33498000  12.010000   ; qtot 0.680398
 3251         h1     85    ccc    H18   3251 0.06178000   1.008000   ; qtot 0.742178
 3252         h1     85    ccc    H19   3252 0.11278000   1.008000   ; qtot 0.854958
 3253         h2     85    ccc    H20   3253 0.12178000   1.008000   ; qtot 0.976738
 3254         oh     85    ccc     O1   3254 -0.56972000  16.000000   ; qtot 0.407018
 3255         oh     85    ccc     O6   3255 -0.57772000  16.000000   ; qtot -0.170702
 3256         c3     85    ccc    C16   3256 0.14548000  12.010000   ; qtot -0.025222
 3257         ho     85    ccc    H21   3257 0.40508000   1.008000   ; qtot 0.379858
 3258         hn     85    ccc    H22   3258 0.31758000   1.008000   ; qtot 0.697438
 3259         h1     85    ccc    H23   3259 0.06278000   1.008000   ; qtot 0.760218
 3260         h1     85    ccc    H24   3260 0.06278000   1.008000   ; qtot 0.822998
 3261         oh     85    ccc     O7   3261 -0.59472000  16.000000   ; qtot 0.228278
 3262         ho     85    ccc    H25   3262 0.41908000   1.008000   ; qtot 0.647358
 3263         os     85    ccc     O8   3263 -0.44552000  16.000000   ; qtot 0.201838
 3264         ho     85    ccc    H26   3264 0.41908000   1.008000   ; qtot 0.620918
 3265         h1     85    ccc    H27   3265 0.08578000   1.008000   ; qtot 0.706698
 3266         oh     85    ccc     O9   3266 -0.58672000  16.000000   ; qtot 0.119978
 3267         ho     85    ccc    H28   3267 0.41908000   1.008000   ; qtot 0.539058
 3268         n3     85    ccc     N3   3268 -0.54282000  14.010000   ; qtot -0.003762
 3269         c3     85    ccc    C17   3269 0.08518000  12.010000   ; qtot 0.081418
 3270         c3     85    ccc    C18   3270 0.07918000  12.010000   ; qtot 0.160598
 3271         h1     85    ccc    H29   3271 0.06978000   1.008000   ; qtot 0.230378
 3272         c3     85    ccc    C19   3272 0.07918000  12.010000   ; qtot 0.309558
 3273         c3     85    ccc    C20   3273 0.03578000  12.010000   ; qtot 0.345338
 3274         c3     85    ccc    C21   3274 0.33498000  12.010000   ; qtot 0.680318
 3275         h1     85    ccc    H30   3275 0.06178000   1.008000   ; qtot 0.742098
 3276         h1     85    ccc    H31   3276 0.11278000   1.008000   ; qtot 0.854878
 3277         h2     85    ccc    H32   3277 0.12178000   1.008000   ; qtot 0.976658
 3278         oh     85    ccc    O10   3278 -0.56972000  16.000000   ; qtot 0.406938
 3279         oh     85    ccc    O11   3279 -0.57772000  16.000000   ; qtot -0.170782
 3280         c3     85    ccc    C22   3280 0.14548000  12.010000   ; qtot -0.025302
 3281         ho     85    ccc    H33   3281 0.40508000   1.008000   ; qtot 0.379778
 3282         hn     85    ccc    H34   3282 0.31758000   1.008000   ; qtot 0.697358
 3283         h1     85    ccc    H35   3283 0.06278000   1.008000   ; qtot 0.760138
 3284         h1     85    ccc    H36   3284 0.06278000   1.008000   ; qtot 0.822918
 3285         oh     85    ccc    O12   3285 -0.59472000  16.000000   ; qtot 0.228198
 3286         ho     85    ccc    H37   3286 0.41908000   1.008000   ; qtot 0.647278
 3287         os     85    ccc    O13   3287 -0.44552000  16.000000   ; qtot 0.201758
 3288         ho     85    ccc    H38   3288 0.41908000   1.008000   ; qtot 0.620838
 3289         h1     85    ccc    H39   3289 0.08578000   1.008000   ; qtot 0.706618
 3290         oh     85    ccc     O5   3290 -0.58672000  16.000000   ; qtot 0.119898
 3291         ho     85    ccc    H40   3291 0.41908000   1.008000   ; qtot 0.538978
 3292         n3     85    ccc     N4   3292 -0.54282000  14.010000   ; qtot -0.003842
; residue   86 ccc rtp ccc q -0.0
 3293          n     86    ccc     N1   3293 -0.46580000  14.010000   ; qtot -0.469642
 3294         hn     86    ccc     H4   3294 0.31480000   1.008000   ; qtot -0.154842
 3295         c3     86    ccc     C3   3295 -0.28250000  12.010000   ; qtot -0.437342
 3296         h1     86    ccc     H5   3296 0.15710000   1.008000   ; qtot -0.280242
 3297         c3     86    ccc     C4   3297 0.44180000  12.010000   ; qtot 0.161558
 3298         h1     86    ccc     H6   3298 0.15710000   1.008000   ; qtot 0.318658
 3299         h1     86    ccc     H7   3299 -0.03530000   1.008000   ; qtot 0.283358
 3300         h1     86    ccc     H8   3300 -0.03530000   1.008000   ; qtot 0.248058
 3301         n3     86    ccc     N2   3301 -0.74090000  14.010000   ; qtot -0.492842
 3302         c3     86    ccc     C5   3302 0.51680000  12.010000   ; qtot 0.023958
 3303         c3     86    ccc     C6   3303 0.51680000  12.010000   ; qtot 0.540758
 3304         h1     86    ccc     H9   3304 -0.05230000   1.008000   ; qtot 0.488458
 3305         c3     86    ccc     C7   3305 -0.60390000  12.010000   ; qtot -0.115442
 3306         h1     86    ccc    H10   3306 -0.05230000   1.008000   ; qtot -0.167742
 3307         hc     86    ccc    H11   3307 0.16730000   1.008000   ; qtot -0.000442
 3308         hc     86    ccc    H12   3308 0.16730000   1.008000   ; qtot 0.166858
 3309          c     86    ccc     C8   3309 0.72110000  12.010000   ; qtot 0.887958
 3310          o     86    ccc     O2   3310 -0.61950000  16.000000   ; qtot 0.268458
 3311         h1     86    ccc    H13   3311 -0.05230000   1.008000   ; qtot 0.216158
 3312         h1     86    ccc    H14   3312 -0.05230000   1.008000   ; qtot 0.163858
 3313         c3     86    ccc     C9   3313 -0.60390000  12.010000   ; qtot -0.440042
 3314         hc     86    ccc    H15   3314 0.16730000   1.008000   ; qtot -0.272742
 3315         hc     86    ccc    H16   3315 0.16730000   1.008000   ; qtot -0.105442
 3316          c     86    ccc    C10   3316 0.72110000  12.010000   ; qtot 0.615658
 3317          o     86    ccc     O4   3317 -0.61950000  16.000000   ; qtot -0.003842
 3318         c3     86    ccc    C11   3318 0.08518000  12.010000   ; qtot 0.081338
 3319         c3     86    ccc    C12   3319 0.07918000  12.010000   ; qtot 0.160518
 3320         h1     86    ccc    H17   3320 0.06978000   1.008000   ; qtot 0.230298
 3321         c3     86    ccc    C13   3321 0.07918000  12.010000   ; qtot 0.309478
 3322         c3     86    ccc    C14   3322 0.03578000  12.010000   ; qtot 0.345258
 3323         c3     86    ccc    C15   3323 0.33498000  12.010000   ; qtot 0.680238
 3324         h1     86    ccc    H18   3324 0.06178000   1.008000   ; qtot 0.742018
 3325         h1     86    ccc    H19   3325 0.11278000   1.008000   ; qtot 0.854798
 3326         h2     86    ccc    H20   3326 0.12178000   1.008000   ; qtot 0.976578
 3327         oh     86    ccc     O1   3327 -0.56972000  16.000000   ; qtot 0.406858
 3328         oh     86    ccc     O6   3328 -0.57772000  16.000000   ; qtot -0.170862
 3329         c3     86    ccc    C16   3329 0.14548000  12.010000   ; qtot -0.025382
 3330         ho     86    ccc    H21   3330 0.40508000   1.008000   ; qtot 0.379698
 3331         hn     86    ccc    H22   3331 0.31758000   1.008000   ; qtot 0.697278
 3332         h1     86    ccc    H23   3332 0.06278000   1.008000   ; qtot 0.760058
 3333         h1     86    ccc    H24   3333 0.06278000   1.008000   ; qtot 0.822838
 3334         oh     86    ccc     O7   3334 -0.59472000  16.000000   ; qtot 0.228118
 3335         ho     86    ccc    H25   3335 0.41908000   1.008000   ; qtot 0.647198
 3336         os     86    ccc     O8   3336 -0.44552000  16.000000   ; qtot 0.201678
 3337         ho     86    ccc    H26   3337 0.41908000   1.008000   ; qtot 0.620758
 3338         h1     86    ccc    H27   3338 0.08578000   1.008000   ; qtot 0.706538
 3339         oh     86    ccc     O9   3339 -0.58672000  16.000000   ; qtot 0.119818
 3340         ho     86    ccc    H28   3340 0.41908000   1.008000   ; qtot 0.538898
 3341         n3     86    ccc     N3   3341 -0.54282000  14.010000   ; qtot -0.003922
 3342         c3     86    ccc    C17   3342 0.08518000  12.010000   ; qtot 0.081258
 3343         c3     86    ccc    C18   3343 0.07918000  12.010000   ; qtot 0.160438
 3344         h1     86    ccc    H29   3344 0.06978000   1.008000   ; qtot 0.230218
 3345         c3     86    ccc    C19   3345 0.07918000  12.010000   ; qtot 0.309398
 3346         c3     86    ccc    C20   3346 0.03578000  12.010000   ; qtot 0.345178
 3347         c3     86    ccc    C21   3347 0.33498000  12.010000   ; qtot 0.680158
 3348         h1     86    ccc    H30   3348 0.06178000   1.008000   ; qtot 0.741938
 3349         h1     86    ccc    H31   3349 0.11278000   1.008000   ; qtot 0.854718
 3350         h2     86    ccc    H32   3350 0.12178000   1.008000   ; qtot 0.976498
 3351         oh     86    ccc    O10   3351 -0.56972000  16.000000   ; qtot 0.406778
 3352         oh     86    ccc    O11   3352 -0.57772000  16.000000   ; qtot -0.170942
 3353         c3     86    ccc    C22   3353 0.14548000  12.010000   ; qtot -0.025462
 3354         ho     86    ccc    H33   3354 0.40508000   1.008000   ; qtot 0.379618
 3355         hn     86    ccc    H34   3355 0.31758000   1.008000   ; qtot 0.697198
 3356         h1     86    ccc    H35   3356 0.06278000   1.008000   ; qtot 0.759978
 3357         h1     86    ccc    H36   3357 0.06278000   1.008000   ; qtot 0.822758
 3358         oh     86    ccc    O12   3358 -0.59472000  16.000000   ; qtot 0.228038
 3359         ho     86    ccc    H37   3359 0.41908000   1.008000   ; qtot 0.647118
 3360         os     86    ccc    O13   3360 -0.44552000  16.000000   ; qtot 0.201598
 3361         ho     86    ccc    H38   3361 0.41908000   1.008000   ; qtot 0.620678
 3362         h1     86    ccc    H39   3362 0.08578000   1.008000   ; qtot 0.706458
 3363         oh     86    ccc     O5   3363 -0.58672000  16.000000   ; qtot 0.119738
 3364         ho     86    ccc    H40   3364 0.41908000   1.008000   ; qtot 0.538818
 3365         n3     86    ccc     N4   3365 -0.54282000  14.010000   ; qtot -0.004002
; residue   87 ccc rtp ccc q -0.0
 3366          n     87    ccc     N1   3366 -0.46580000  14.010000   ; qtot -0.469802
 3367         hn     87    ccc     H4   3367 0.31480000   1.008000   ; qtot -0.155002
 3368         c3     87    ccc     C3   3368 -0.28250000  12.010000   ; qtot -0.437502
 3369         h1     87    ccc     H5   3369 0.15710000   1.008000   ; qtot -0.280402
 3370         c3     87    ccc     C4   3370 0.44180000  12.010000   ; qtot 0.161398
 3371         h1     87    ccc     H6   3371 0.15710000   1.008000   ; qtot 0.318498
 3372         h1     87    ccc     H7   3372 -0.03530000   1.008000   ; qtot 0.283198
 3373         h1     87    ccc     H8   3373 -0.03530000   1.008000   ; qtot 0.247898
 3374         n3     87    ccc     N2   3374 -0.74090000  14.010000   ; qtot -0.493002
 3375         c3     87    ccc     C5   3375 0.51680000  12.010000   ; qtot 0.023798
 3376         c3     87    ccc     C6   3376 0.51680000  12.010000   ; qtot 0.540598
 3377         h1     87    ccc     H9   3377 -0.05230000   1.008000   ; qtot 0.488298
 3378         c3     87    ccc     C7   3378 -0.60390000  12.010000   ; qtot -0.115602
 3379         h1     87    ccc    H10   3379 -0.05230000   1.008000   ; qtot -0.167902
 3380         hc     87    ccc    H11   3380 0.16730000   1.008000   ; qtot -0.000602
 3381         hc     87    ccc    H12   3381 0.16730000   1.008000   ; qtot 0.166698
 3382          c     87    ccc     C8   3382 0.72110000  12.010000   ; qtot 0.887798
 3383          o     87    ccc     O2   3383 -0.61950000  16.000000   ; qtot 0.268298
 3384         h1     87    ccc    H13   3384 -0.05230000   1.008000   ; qtot 0.215998
 3385         h1     87    ccc    H14   3385 -0.05230000   1.008000   ; qtot 0.163698
 3386         c3     87    ccc     C9   3386 -0.60390000  12.010000   ; qtot -0.440202
 3387         hc     87    ccc    H15   3387 0.16730000   1.008000   ; qtot -0.272902
 3388         hc     87    ccc    H16   3388 0.16730000   1.008000   ; qtot -0.105602
 3389          c     87    ccc    C10   3389 0.72110000  12.010000   ; qtot 0.615498
 3390          o     87    ccc     O4   3390 -0.61950000  16.000000   ; qtot -0.004002
 3391         c3     87    ccc    C11   3391 0.08518000  12.010000   ; qtot 0.081178
 3392         c3     87    ccc    C12   3392 0.07918000  12.010000   ; qtot 0.160358
 3393         h1     87    ccc    H17   3393 0.06978000   1.008000   ; qtot 0.230138
 3394         c3     87    ccc    C13   3394 0.07918000  12.010000   ; qtot 0.309318
 3395         c3     87    ccc    C14   3395 0.03578000  12.010000   ; qtot 0.345098
 3396         c3     87    ccc    C15   3396 0.33498000  12.010000   ; qtot 0.680078
 3397         h1     87    ccc    H18   3397 0.06178000   1.008000   ; qtot 0.741858
 3398         h1     87    ccc    H19   3398 0.11278000   1.008000   ; qtot 0.854638
 3399         h2     87    ccc    H20   3399 0.12178000   1.008000   ; qtot 0.976418
 3400         oh     87    ccc     O1   3400 -0.56972000  16.000000   ; qtot 0.406698
 3401         oh     87    ccc     O6   3401 -0.57772000  16.000000   ; qtot -0.171022
 3402         c3     87    ccc    C16   3402 0.14548000  12.010000   ; qtot -0.025542
 3403         ho     87    ccc    H21   3403 0.40508000   1.008000   ; qtot 0.379538
 3404         hn     87    ccc    H22   3404 0.31758000   1.008000   ; qtot 0.697118
 3405         h1     87    ccc    H23   3405 0.06278000   1.008000   ; qtot 0.759898
 3406         h1     87    ccc    H24   3406 0.06278000   1.008000   ; qtot 0.822678
 3407         oh     87    ccc     O7   3407 -0.59472000  16.000000   ; qtot 0.227958
 3408         ho     87    ccc    H25   3408 0.41908000   1.008000   ; qtot 0.647038
 3409         os     87    ccc     O8   3409 -0.44552000  16.000000   ; qtot 0.201518
 3410         ho     87    ccc    H26   3410 0.41908000   1.008000   ; qtot 0.620598
 3411         h1     87    ccc    H27   3411 0.08578000   1.008000   ; qtot 0.706378
 3412         oh     87    ccc     O9   3412 -0.58672000  16.000000   ; qtot 0.119658
 3413         ho     87    ccc    H28   3413 0.41908000   1.008000   ; qtot 0.538738
 3414         n3     87    ccc     N3   3414 -0.54282000  14.010000   ; qtot -0.004082
 3415         c3     87    ccc    C17   3415 0.08518000  12.010000   ; qtot 0.081098
 3416         c3     87    ccc    C18   3416 0.07918000  12.010000   ; qtot 0.160278
 3417         h1     87    ccc    H29   3417 0.06978000   1.008000   ; qtot 0.230058
 3418         c3     87    ccc    C19   3418 0.07918000  12.010000   ; qtot 0.309238
 3419         c3     87    ccc    C20   3419 0.03578000  12.010000   ; qtot 0.345018
 3420         c3     87    ccc    C21   3420 0.33498000  12.010000   ; qtot 0.679998
 3421         h1     87    ccc    H30   3421 0.06178000   1.008000   ; qtot 0.741778
 3422         h1     87    ccc    H31   3422 0.11278000   1.008000   ; qtot 0.854558
 3423         h2     87    ccc    H32   3423 0.12178000   1.008000   ; qtot 0.976338
 3424         oh     87    ccc    O10   3424 -0.56972000  16.000000   ; qtot 0.406618
 3425         oh     87    ccc    O11   3425 -0.57772000  16.000000   ; qtot -0.171102
 3426         c3     87    ccc    C22   3426 0.14548000  12.010000   ; qtot -0.025622
 3427         ho     87    ccc    H33   3427 0.40508000   1.008000   ; qtot 0.379458
 3428         hn     87    ccc    H34   3428 0.31758000   1.008000   ; qtot 0.697038
 3429         h1     87    ccc    H35   3429 0.06278000   1.008000   ; qtot 0.759818
 3430         h1     87    ccc    H36   3430 0.06278000   1.008000   ; qtot 0.822598
 3431         oh     87    ccc    O12   3431 -0.59472000  16.000000   ; qtot 0.227878
 3432         ho     87    ccc    H37   3432 0.41908000   1.008000   ; qtot 0.646958
 3433         os     87    ccc    O13   3433 -0.44552000  16.000000   ; qtot 0.201438
 3434         ho     87    ccc    H38   3434 0.41908000   1.008000   ; qtot 0.620518
 3435         h1     87    ccc    H39   3435 0.08578000   1.008000   ; qtot 0.706298
 3436         oh     87    ccc     O5   3436 -0.58672000  16.000000   ; qtot 0.119578
 3437         ho     87    ccc    H40   3437 0.41908000   1.008000   ; qtot 0.538658
 3438         n3     87    ccc     N4   3438 -0.54282000  14.010000   ; qtot -0.004162
; residue   88 ccc rtp ccc q -0.0
 3439          n     88    ccc     N1   3439 -0.46580000  14.010000   ; qtot -0.469962
 3440         hn     88    ccc     H4   3440 0.31480000   1.008000   ; qtot -0.155162
 3441         c3     88    ccc     C3   3441 -0.28250000  12.010000   ; qtot -0.437662
 3442         h1     88    ccc     H5   3442 0.15710000   1.008000   ; qtot -0.280562
 3443         c3     88    ccc     C4   3443 0.44180000  12.010000   ; qtot 0.161238
 3444         h1     88    ccc     H6   3444 0.15710000   1.008000   ; qtot 0.318338
 3445         h1     88    ccc     H7   3445 -0.03530000   1.008000   ; qtot 0.283038
 3446         h1     88    ccc     H8   3446 -0.03530000   1.008000   ; qtot 0.247738
 3447         n3     88    ccc     N2   3447 -0.74090000  14.010000   ; qtot -0.493162
 3448         c3     88    ccc     C5   3448 0.51680000  12.010000   ; qtot 0.023638
 3449         c3     88    ccc     C6   3449 0.51680000  12.010000   ; qtot 0.540438
 3450         h1     88    ccc     H9   3450 -0.05230000   1.008000   ; qtot 0.488138
 3451         c3     88    ccc     C7   3451 -0.60390000  12.010000   ; qtot -0.115762
 3452         h1     88    ccc    H10   3452 -0.05230000   1.008000   ; qtot -0.168062
 3453         hc     88    ccc    H11   3453 0.16730000   1.008000   ; qtot -0.000762
 3454         hc     88    ccc    H12   3454 0.16730000   1.008000   ; qtot 0.166538
 3455          c     88    ccc     C8   3455 0.72110000  12.010000   ; qtot 0.887638
 3456          o     88    ccc     O2   3456 -0.61950000  16.000000   ; qtot 0.268138
 3457         h1     88    ccc    H13   3457 -0.05230000   1.008000   ; qtot 0.215838
 3458         h1     88    ccc    H14   3458 -0.05230000   1.008000   ; qtot 0.163538
 3459         c3     88    ccc     C9   3459 -0.60390000  12.010000   ; qtot -0.440362
 3460         hc     88    ccc    H15   3460 0.16730000   1.008000   ; qtot -0.273062
 3461         hc     88    ccc    H16   3461 0.16730000   1.008000   ; qtot -0.105762
 3462          c     88    ccc    C10   3462 0.72110000  12.010000   ; qtot 0.615338
 3463          o     88    ccc     O4   3463 -0.61950000  16.000000   ; qtot -0.004162
 3464         c3     88    ccc    C11   3464 0.08518000  12.010000   ; qtot 0.081018
 3465         c3     88    ccc    C12   3465 0.07918000  12.010000   ; qtot 0.160198
 3466         h1     88    ccc    H17   3466 0.06978000   1.008000   ; qtot 0.229978
 3467         c3     88    ccc    C13   3467 0.07918000  12.010000   ; qtot 0.309158
 3468         c3     88    ccc    C14   3468 0.03578000  12.010000   ; qtot 0.344938
 3469         c3     88    ccc    C15   3469 0.33498000  12.010000   ; qtot 0.679918
 3470         h1     88    ccc    H18   3470 0.06178000   1.008000   ; qtot 0.741698
 3471         h1     88    ccc    H19   3471 0.11278000   1.008000   ; qtot 0.854478
 3472         h2     88    ccc    H20   3472 0.12178000   1.008000   ; qtot 0.976258
 3473         oh     88    ccc     O1   3473 -0.56972000  16.000000   ; qtot 0.406538
 3474         oh     88    ccc     O6   3474 -0.57772000  16.000000   ; qtot -0.171182
 3475         c3     88    ccc    C16   3475 0.14548000  12.010000   ; qtot -0.025702
 3476         ho     88    ccc    H21   3476 0.40508000   1.008000   ; qtot 0.379378
 3477         hn     88    ccc    H22   3477 0.31758000   1.008000   ; qtot 0.696958
 3478         h1     88    ccc    H23   3478 0.06278000   1.008000   ; qtot 0.759738
 3479         h1     88    ccc    H24   3479 0.06278000   1.008000   ; qtot 0.822518
 3480         oh     88    ccc     O7   3480 -0.59472000  16.000000   ; qtot 0.227798
 3481         ho     88    ccc    H25   3481 0.41908000   1.008000   ; qtot 0.646878
 3482         os     88    ccc     O8   3482 -0.44552000  16.000000   ; qtot 0.201358
 3483         ho     88    ccc    H26   3483 0.41908000   1.008000   ; qtot 0.620438
 3484         h1     88    ccc    H27   3484 0.08578000   1.008000   ; qtot 0.706218
 3485         oh     88    ccc     O9   3485 -0.58672000  16.000000   ; qtot 0.119498
 3486         ho     88    ccc    H28   3486 0.41908000   1.008000   ; qtot 0.538578
 3487         n3     88    ccc     N3   3487 -0.54282000  14.010000   ; qtot -0.004242
 3488         c3     88    ccc    C17   3488 0.08518000  12.010000   ; qtot 0.080938
 3489         c3     88    ccc    C18   3489 0.07918000  12.010000   ; qtot 0.160118
 3490         h1     88    ccc    H29   3490 0.06978000   1.008000   ; qtot 0.229898
 3491         c3     88    ccc    C19   3491 0.07918000  12.010000   ; qtot 0.309078
 3492         c3     88    ccc    C20   3492 0.03578000  12.010000   ; qtot 0.344858
 3493         c3     88    ccc    C21   3493 0.33498000  12.010000   ; qtot 0.679838
 3494         h1     88    ccc    H30   3494 0.06178000   1.008000   ; qtot 0.741618
 3495         h1     88    ccc    H31   3495 0.11278000   1.008000   ; qtot 0.854398
 3496         h2     88    ccc    H32   3496 0.12178000   1.008000   ; qtot 0.976178
 3497         oh     88    ccc    O10   3497 -0.56972000  16.000000   ; qtot 0.406458
 3498         oh     88    ccc    O11   3498 -0.57772000  16.000000   ; qtot -0.171262
 3499         c3     88    ccc    C22   3499 0.14548000  12.010000   ; qtot -0.025782
 3500         ho     88    ccc    H33   3500 0.40508000   1.008000   ; qtot 0.379298
 3501         hn     88    ccc    H34   3501 0.31758000   1.008000   ; qtot 0.696878
 3502         h1     88    ccc    H35   3502 0.06278000   1.008000   ; qtot 0.759658
 3503         h1     88    ccc    H36   3503 0.06278000   1.008000   ; qtot 0.822438
 3504         oh     88    ccc    O12   3504 -0.59472000  16.000000   ; qtot 0.227718
 3505         ho     88    ccc    H37   3505 0.41908000   1.008000   ; qtot 0.646798
 3506         os     88    ccc    O13   3506 -0.44552000  16.000000   ; qtot 0.201278
 3507         ho     88    ccc    H38   3507 0.41908000   1.008000   ; qtot 0.620358
 3508         h1     88    ccc    H39   3508 0.08578000   1.008000   ; qtot 0.706138
 3509         oh     88    ccc     O5   3509 -0.58672000  16.000000   ; qtot 0.119418
 3510         ho     88    ccc    H40   3510 0.41908000   1.008000   ; qtot 0.538498
 3511         n3     88    ccc     N4   3511 -0.54282000  14.010000   ; qtot -0.004322
; residue   89 ccc rtp ccc q -0.0
 3512          n     89    ccc     N1   3512 -0.46580000  14.010000   ; qtot -0.470122
 3513         hn     89    ccc     H4   3513 0.31480000   1.008000   ; qtot -0.155322
 3514         c3     89    ccc     C3   3514 -0.28250000  12.010000   ; qtot -0.437822
 3515         h1     89    ccc     H5   3515 0.15710000   1.008000   ; qtot -0.280722
 3516         c3     89    ccc     C4   3516 0.44180000  12.010000   ; qtot 0.161078
 3517         h1     89    ccc     H6   3517 0.15710000   1.008000   ; qtot 0.318178
 3518         h1     89    ccc     H7   3518 -0.03530000   1.008000   ; qtot 0.282878
 3519         h1     89    ccc     H8   3519 -0.03530000   1.008000   ; qtot 0.247578
 3520         n3     89    ccc     N2   3520 -0.74090000  14.010000   ; qtot -0.493322
 3521         c3     89    ccc     C5   3521 0.51680000  12.010000   ; qtot 0.023478
 3522         c3     89    ccc     C6   3522 0.51680000  12.010000   ; qtot 0.540278
 3523         h1     89    ccc     H9   3523 -0.05230000   1.008000   ; qtot 0.487978
 3524         c3     89    ccc     C7   3524 -0.60390000  12.010000   ; qtot -0.115922
 3525         h1     89    ccc    H10   3525 -0.05230000   1.008000   ; qtot -0.168222
 3526         hc     89    ccc    H11   3526 0.16730000   1.008000   ; qtot -0.000922
 3527         hc     89    ccc    H12   3527 0.16730000   1.008000   ; qtot 0.166378
 3528          c     89    ccc     C8   3528 0.72110000  12.010000   ; qtot 0.887478
 3529          o     89    ccc     O2   3529 -0.61950000  16.000000   ; qtot 0.267978
 3530         h1     89    ccc    H13   3530 -0.05230000   1.008000   ; qtot 0.215678
 3531         h1     89    ccc    H14   3531 -0.05230000   1.008000   ; qtot 0.163378
 3532         c3     89    ccc     C9   3532 -0.60390000  12.010000   ; qtot -0.440522
 3533         hc     89    ccc    H15   3533 0.16730000   1.008000   ; qtot -0.273222
 3534         hc     89    ccc    H16   3534 0.16730000   1.008000   ; qtot -0.105922
 3535          c     89    ccc    C10   3535 0.72110000  12.010000   ; qtot 0.615178
 3536          o     89    ccc     O4   3536 -0.61950000  16.000000   ; qtot -0.004322
 3537         c3     89    ccc    C11   3537 0.08518000  12.010000   ; qtot 0.080858
 3538         c3     89    ccc    C12   3538 0.07918000  12.010000   ; qtot 0.160038
 3539         h1     89    ccc    H17   3539 0.06978000   1.008000   ; qtot 0.229818
 3540         c3     89    ccc    C13   3540 0.07918000  12.010000   ; qtot 0.308998
 3541         c3     89    ccc    C14   3541 0.03578000  12.010000   ; qtot 0.344778
 3542         c3     89    ccc    C15   3542 0.33498000  12.010000   ; qtot 0.679758
 3543         h1     89    ccc    H18   3543 0.06178000   1.008000   ; qtot 0.741538
 3544         h1     89    ccc    H19   3544 0.11278000   1.008000   ; qtot 0.854318
 3545         h2     89    ccc    H20   3545 0.12178000   1.008000   ; qtot 0.976098
 3546         oh     89    ccc     O1   3546 -0.56972000  16.000000   ; qtot 0.406378
 3547         oh     89    ccc     O6   3547 -0.57772000  16.000000   ; qtot -0.171342
 3548         c3     89    ccc    C16   3548 0.14548000  12.010000   ; qtot -0.025862
 3549         ho     89    ccc    H21   3549 0.40508000   1.008000   ; qtot 0.379218
 3550         hn     89    ccc    H22   3550 0.31758000   1.008000   ; qtot 0.696798
 3551         h1     89    ccc    H23   3551 0.06278000   1.008000   ; qtot 0.759578
 3552         h1     89    ccc    H24   3552 0.06278000   1.008000   ; qtot 0.822358
 3553         oh     89    ccc     O7   3553 -0.59472000  16.000000   ; qtot 0.227638
 3554         ho     89    ccc    H25   3554 0.41908000   1.008000   ; qtot 0.646718
 3555         os     89    ccc     O8   3555 -0.44552000  16.000000   ; qtot 0.201198
 3556         ho     89    ccc    H26   3556 0.41908000   1.008000   ; qtot 0.620278
 3557         h1     89    ccc    H27   3557 0.08578000   1.008000   ; qtot 0.706058
 3558         oh     89    ccc     O9   3558 -0.58672000  16.000000   ; qtot 0.119338
 3559         ho     89    ccc    H28   3559 0.41908000   1.008000   ; qtot 0.538418
 3560         n3     89    ccc     N3   3560 -0.54282000  14.010000   ; qtot -0.004402
 3561         c3     89    ccc    C17   3561 0.08518000  12.010000   ; qtot 0.080778
 3562         c3     89    ccc    C18   3562 0.07918000  12.010000   ; qtot 0.159958
 3563         h1     89    ccc    H29   3563 0.06978000   1.008000   ; qtot 0.229738
 3564         c3     89    ccc    C19   3564 0.07918000  12.010000   ; qtot 0.308918
 3565         c3     89    ccc    C20   3565 0.03578000  12.010000   ; qtot 0.344698
 3566         c3     89    ccc    C21   3566 0.33498000  12.010000   ; qtot 0.679678
 3567         h1     89    ccc    H30   3567 0.06178000   1.008000   ; qtot 0.741458
 3568         h1     89    ccc    H31   3568 0.11278000   1.008000   ; qtot 0.854238
 3569         h2     89    ccc    H32   3569 0.12178000   1.008000   ; qtot 0.976018
 3570         oh     89    ccc    O10   3570 -0.56972000  16.000000   ; qtot 0.406298
 3571         oh     89    ccc    O11   3571 -0.57772000  16.000000   ; qtot -0.171422
 3572         c3     89    ccc    C22   3572 0.14548000  12.010000   ; qtot -0.025942
 3573         ho     89    ccc    H33   3573 0.40508000   1.008000   ; qtot 0.379138
 3574         hn     89    ccc    H34   3574 0.31758000   1.008000   ; qtot 0.696718
 3575         h1     89    ccc    H35   3575 0.06278000   1.008000   ; qtot 0.759498
 3576         h1     89    ccc    H36   3576 0.06278000   1.008000   ; qtot 0.822278
 3577         oh     89    ccc    O12   3577 -0.59472000  16.000000   ; qtot 0.227558
 3578         ho     89    ccc    H37   3578 0.41908000   1.008000   ; qtot 0.646638
 3579         os     89    ccc    O13   3579 -0.44552000  16.000000   ; qtot 0.201118
 3580         ho     89    ccc    H38   3580 0.41908000   1.008000   ; qtot 0.620198
 3581         h1     89    ccc    H39   3581 0.08578000   1.008000   ; qtot 0.705978
 3582         oh     89    ccc     O5   3582 -0.58672000  16.000000   ; qtot 0.119258
 3583         ho     89    ccc    H40   3583 0.41908000   1.008000   ; qtot 0.538338
 3584         n3     89    ccc     N4   3584 -0.54282000  14.010000   ; qtot -0.004482
; residue   90 ccc rtp ccc q -0.0
 3585          n     90    ccc     N1   3585 -0.46580000  14.010000   ; qtot -0.470282
 3586         hn     90    ccc     H4   3586 0.31480000   1.008000   ; qtot -0.155482
 3587         c3     90    ccc     C3   3587 -0.28250000  12.010000   ; qtot -0.437982
 3588         h1     90    ccc     H5   3588 0.15710000   1.008000   ; qtot -0.280882
 3589         c3     90    ccc     C4   3589 0.44180000  12.010000   ; qtot 0.160918
 3590         h1     90    ccc     H6   3590 0.15710000   1.008000   ; qtot 0.318018
 3591         h1     90    ccc     H7   3591 -0.03530000   1.008000   ; qtot 0.282718
 3592         h1     90    ccc     H8   3592 -0.03530000   1.008000   ; qtot 0.247418
 3593         n3     90    ccc     N2   3593 -0.74090000  14.010000   ; qtot -0.493482
 3594         c3     90    ccc     C5   3594 0.51680000  12.010000   ; qtot 0.023318
 3595         c3     90    ccc     C6   3595 0.51680000  12.010000   ; qtot 0.540118
 3596         h1     90    ccc     H9   3596 -0.05230000   1.008000   ; qtot 0.487818
 3597         c3     90    ccc     C7   3597 -0.60390000  12.010000   ; qtot -0.116082
 3598         h1     90    ccc    H10   3598 -0.05230000   1.008000   ; qtot -0.168382
 3599         hc     90    ccc    H11   3599 0.16730000   1.008000   ; qtot -0.001082
 3600         hc     90    ccc    H12   3600 0.16730000   1.008000   ; qtot 0.166218
 3601          c     90    ccc     C8   3601 0.72110000  12.010000   ; qtot 0.887318
 3602          o     90    ccc     O2   3602 -0.61950000  16.000000   ; qtot 0.267818
 3603         h1     90    ccc    H13   3603 -0.05230000   1.008000   ; qtot 0.215518
 3604         h1     90    ccc    H14   3604 -0.05230000   1.008000   ; qtot 0.163218
 3605         c3     90    ccc     C9   3605 -0.60390000  12.010000   ; qtot -0.440682
 3606         hc     90    ccc    H15   3606 0.16730000   1.008000   ; qtot -0.273382
 3607         hc     90    ccc    H16   3607 0.16730000   1.008000   ; qtot -0.106082
 3608          c     90    ccc    C10   3608 0.72110000  12.010000   ; qtot 0.615018
 3609          o     90    ccc     O4   3609 -0.61950000  16.000000   ; qtot -0.004482
 3610         c3     90    ccc    C11   3610 0.08518000  12.010000   ; qtot 0.080698
 3611         c3     90    ccc    C12   3611 0.07918000  12.010000   ; qtot 0.159878
 3612         h1     90    ccc    H17   3612 0.06978000   1.008000   ; qtot 0.229658
 3613         c3     90    ccc    C13   3613 0.07918000  12.010000   ; qtot 0.308838
 3614         c3     90    ccc    C14   3614 0.03578000  12.010000   ; qtot 0.344618
 3615         c3     90    ccc    C15   3615 0.33498000  12.010000   ; qtot 0.679598
 3616         h1     90    ccc    H18   3616 0.06178000   1.008000   ; qtot 0.741378
 3617         h1     90    ccc    H19   3617 0.11278000   1.008000   ; qtot 0.854158
 3618         h2     90    ccc    H20   3618 0.12178000   1.008000   ; qtot 0.975938
 3619         oh     90    ccc     O1   3619 -0.56972000  16.000000   ; qtot 0.406218
 3620         oh     90    ccc     O6   3620 -0.57772000  16.000000   ; qtot -0.171502
 3621         c3     90    ccc    C16   3621 0.14548000  12.010000   ; qtot -0.026022
 3622         ho     90    ccc    H21   3622 0.40508000   1.008000   ; qtot 0.379058
 3623         hn     90    ccc    H22   3623 0.31758000   1.008000   ; qtot 0.696638
 3624         h1     90    ccc    H23   3624 0.06278000   1.008000   ; qtot 0.759418
 3625         h1     90    ccc    H24   3625 0.06278000   1.008000   ; qtot 0.822198
 3626         oh     90    ccc     O7   3626 -0.59472000  16.000000   ; qtot 0.227478
 3627         ho     90    ccc    H25   3627 0.41908000   1.008000   ; qtot 0.646558
 3628         os     90    ccc     O8   3628 -0.44552000  16.000000   ; qtot 0.201038
 3629         ho     90    ccc    H26   3629 0.41908000   1.008000   ; qtot 0.620118
 3630         h1     90    ccc    H27   3630 0.08578000   1.008000   ; qtot 0.705898
 3631         oh     90    ccc     O9   3631 -0.58672000  16.000000   ; qtot 0.119178
 3632         ho     90    ccc    H28   3632 0.41908000   1.008000   ; qtot 0.538258
 3633         n3     90    ccc     N3   3633 -0.54282000  14.010000   ; qtot -0.004562
 3634         c3     90    ccc    C17   3634 0.08518000  12.010000   ; qtot 0.080618
 3635         c3     90    ccc    C18   3635 0.07918000  12.010000   ; qtot 0.159798
 3636         h1     90    ccc    H29   3636 0.06978000   1.008000   ; qtot 0.229578
 3637         c3     90    ccc    C19   3637 0.07918000  12.010000   ; qtot 0.308758
 3638         c3     90    ccc    C20   3638 0.03578000  12.010000   ; qtot 0.344538
 3639         c3     90    ccc    C21   3639 0.33498000  12.010000   ; qtot 0.679518
 3640         h1     90    ccc    H30   3640 0.06178000   1.008000   ; qtot 0.741298
 3641         h1     90    ccc    H31   3641 0.11278000   1.008000   ; qtot 0.854078
 3642         h2     90    ccc    H32   3642 0.12178000   1.008000   ; qtot 0.975858
 3643         oh     90    ccc    O10   3643 -0.56972000  16.000000   ; qtot 0.406138
 3644         oh     90    ccc    O11   3644 -0.57772000  16.000000   ; qtot -0.171582
 3645         c3     90    ccc    C22   3645 0.14548000  12.010000   ; qtot -0.026102
 3646         ho     90    ccc    H33   3646 0.40508000   1.008000   ; qtot 0.378978
 3647         hn     90    ccc    H34   3647 0.31758000   1.008000   ; qtot 0.696558
 3648         h1     90    ccc    H35   3648 0.06278000   1.008000   ; qtot 0.759338
 3649         h1     90    ccc    H36   3649 0.06278000   1.008000   ; qtot 0.822118
 3650         oh     90    ccc    O12   3650 -0.59472000  16.000000   ; qtot 0.227398
 3651         ho     90    ccc    H37   3651 0.41908000   1.008000   ; qtot 0.646478
 3652         os     90    ccc    O13   3652 -0.44552000  16.000000   ; qtot 0.200958
 3653         ho     90    ccc    H38   3653 0.41908000   1.008000   ; qtot 0.620038
 3654         h1     90    ccc    H39   3654 0.08578000   1.008000   ; qtot 0.705818
 3655         oh     90    ccc     O5   3655 -0.58672000  16.000000   ; qtot 0.119098
 3656         ho     90    ccc    H40   3656 0.41908000   1.008000   ; qtot 0.538178
 3657         n3     90    ccc     N4   3657 -0.54282000  14.010000   ; qtot -0.004642
; residue   91 ccc rtp ccc q -0.0
 3658          n     91    ccc     N1   3658 -0.46580000  14.010000   ; qtot -0.470442
 3659         hn     91    ccc     H4   3659 0.31480000   1.008000   ; qtot -0.155642
 3660         c3     91    ccc     C3   3660 -0.28250000  12.010000   ; qtot -0.438142
 3661         h1     91    ccc     H5   3661 0.15710000   1.008000   ; qtot -0.281042
 3662         c3     91    ccc     C4   3662 0.44180000  12.010000   ; qtot 0.160758
 3663         h1     91    ccc     H6   3663 0.15710000   1.008000   ; qtot 0.317858
 3664         h1     91    ccc     H7   3664 -0.03530000   1.008000   ; qtot 0.282558
 3665         h1     91    ccc     H8   3665 -0.03530000   1.008000   ; qtot 0.247258
 3666         n3     91    ccc     N2   3666 -0.74090000  14.010000   ; qtot -0.493642
 3667         c3     91    ccc     C5   3667 0.51680000  12.010000   ; qtot 0.023158
 3668         c3     91    ccc     C6   3668 0.51680000  12.010000   ; qtot 0.539958
 3669         h1     91    ccc     H9   3669 -0.05230000   1.008000   ; qtot 0.487658
 3670         c3     91    ccc     C7   3670 -0.60390000  12.010000   ; qtot -0.116242
 3671         h1     91    ccc    H10   3671 -0.05230000   1.008000   ; qtot -0.168542
 3672         hc     91    ccc    H11   3672 0.16730000   1.008000   ; qtot -0.001242
 3673         hc     91    ccc    H12   3673 0.16730000   1.008000   ; qtot 0.166058
 3674          c     91    ccc     C8   3674 0.72110000  12.010000   ; qtot 0.887158
 3675          o     91    ccc     O2   3675 -0.61950000  16.000000   ; qtot 0.267658
 3676         h1     91    ccc    H13   3676 -0.05230000   1.008000   ; qtot 0.215358
 3677         h1     91    ccc    H14   3677 -0.05230000   1.008000   ; qtot 0.163058
 3678         c3     91    ccc     C9   3678 -0.60390000  12.010000   ; qtot -0.440842
 3679         hc     91    ccc    H15   3679 0.16730000   1.008000   ; qtot -0.273542
 3680         hc     91    ccc    H16   3680 0.16730000   1.008000   ; qtot -0.106242
 3681          c     91    ccc    C10   3681 0.72110000  12.010000   ; qtot 0.614858
 3682          o     91    ccc     O4   3682 -0.61950000  16.000000   ; qtot -0.004642
 3683         c3     91    ccc    C11   3683 0.08518000  12.010000   ; qtot 0.080538
 3684         c3     91    ccc    C12   3684 0.07918000  12.010000   ; qtot 0.159718
 3685         h1     91    ccc    H17   3685 0.06978000   1.008000   ; qtot 0.229498
 3686         c3     91    ccc    C13   3686 0.07918000  12.010000   ; qtot 0.308678
 3687         c3     91    ccc    C14   3687 0.03578000  12.010000   ; qtot 0.344458
 3688         c3     91    ccc    C15   3688 0.33498000  12.010000   ; qtot 0.679438
 3689         h1     91    ccc    H18   3689 0.06178000   1.008000   ; qtot 0.741218
 3690         h1     91    ccc    H19   3690 0.11278000   1.008000   ; qtot 0.853998
 3691         h2     91    ccc    H20   3691 0.12178000   1.008000   ; qtot 0.975778
 3692         oh     91    ccc     O1   3692 -0.56972000  16.000000   ; qtot 0.406058
 3693         oh     91    ccc     O6   3693 -0.57772000  16.000000   ; qtot -0.171662
 3694         c3     91    ccc    C16   3694 0.14548000  12.010000   ; qtot -0.026182
 3695         ho     91    ccc    H21   3695 0.40508000   1.008000   ; qtot 0.378898
 3696         hn     91    ccc    H22   3696 0.31758000   1.008000   ; qtot 0.696478
 3697         h1     91    ccc    H23   3697 0.06278000   1.008000   ; qtot 0.759258
 3698         h1     91    ccc    H24   3698 0.06278000   1.008000   ; qtot 0.822038
 3699         oh     91    ccc     O7   3699 -0.59472000  16.000000   ; qtot 0.227318
 3700         ho     91    ccc    H25   3700 0.41908000   1.008000   ; qtot 0.646398
 3701         os     91    ccc     O8   3701 -0.44552000  16.000000   ; qtot 0.200878
 3702         ho     91    ccc    H26   3702 0.41908000   1.008000   ; qtot 0.619958
 3703         h1     91    ccc    H27   3703 0.08578000   1.008000   ; qtot 0.705738
 3704         oh     91    ccc     O9   3704 -0.58672000  16.000000   ; qtot 0.119018
 3705         ho     91    ccc    H28   3705 0.41908000   1.008000   ; qtot 0.538098
 3706         n3     91    ccc     N3   3706 -0.54282000  14.010000   ; qtot -0.004722
 3707         c3     91    ccc    C17   3707 0.08518000  12.010000   ; qtot 0.080458
 3708         c3     91    ccc    C18   3708 0.07918000  12.010000   ; qtot 0.159638
 3709         h1     91    ccc    H29   3709 0.06978000   1.008000   ; qtot 0.229418
 3710         c3     91    ccc    C19   3710 0.07918000  12.010000   ; qtot 0.308598
 3711         c3     91    ccc    C20   3711 0.03578000  12.010000   ; qtot 0.344378
 3712         c3     91    ccc    C21   3712 0.33498000  12.010000   ; qtot 0.679358
 3713         h1     91    ccc    H30   3713 0.06178000   1.008000   ; qtot 0.741138
 3714         h1     91    ccc    H31   3714 0.11278000   1.008000   ; qtot 0.853918
 3715         h2     91    ccc    H32   3715 0.12178000   1.008000   ; qtot 0.975698
 3716         oh     91    ccc    O10   3716 -0.56972000  16.000000   ; qtot 0.405978
 3717         oh     91    ccc    O11   3717 -0.57772000  16.000000   ; qtot -0.171742
 3718         c3     91    ccc    C22   3718 0.14548000  12.010000   ; qtot -0.026262
 3719         ho     91    ccc    H33   3719 0.40508000   1.008000   ; qtot 0.378818
 3720         hn     91    ccc    H34   3720 0.31758000   1.008000   ; qtot 0.696398
 3721         h1     91    ccc    H35   3721 0.06278000   1.008000   ; qtot 0.759178
 3722         h1     91    ccc    H36   3722 0.06278000   1.008000   ; qtot 0.821958
 3723         oh     91    ccc    O12   3723 -0.59472000  16.000000   ; qtot 0.227238
 3724         ho     91    ccc    H37   3724 0.41908000   1.008000   ; qtot 0.646318
 3725         os     91    ccc    O13   3725 -0.44552000  16.000000   ; qtot 0.200798
 3726         ho     91    ccc    H38   3726 0.41908000   1.008000   ; qtot 0.619878
 3727         h1     91    ccc    H39   3727 0.08578000   1.008000   ; qtot 0.705658
 3728         oh     91    ccc     O5   3728 -0.58672000  16.000000   ; qtot 0.118938
 3729         ho     91    ccc    H40   3729 0.41908000   1.008000   ; qtot 0.538018
 3730         n3     91    ccc     N4   3730 -0.54282000  14.010000   ; qtot -0.004802
; residue   92 ccc rtp ccc q -0.0
 3731          n     92    ccc     N1   3731 -0.46580000  14.010000   ; qtot -0.470602
 3732         hn     92    ccc     H4   3732 0.31480000   1.008000   ; qtot -0.155802
 3733         c3     92    ccc     C3   3733 -0.28250000  12.010000   ; qtot -0.438302
 3734         h1     92    ccc     H5   3734 0.15710000   1.008000   ; qtot -0.281202
 3735         c3     92    ccc     C4   3735 0.44180000  12.010000   ; qtot 0.160598
 3736         h1     92    ccc     H6   3736 0.15710000   1.008000   ; qtot 0.317698
 3737         h1     92    ccc     H7   3737 -0.03530000   1.008000   ; qtot 0.282398
 3738         h1     92    ccc     H8   3738 -0.03530000   1.008000   ; qtot 0.247098
 3739         n3     92    ccc     N2   3739 -0.74090000  14.010000   ; qtot -0.493802
 3740         c3     92    ccc     C5   3740 0.51680000  12.010000   ; qtot 0.022998
 3741         c3     92    ccc     C6   3741 0.51680000  12.010000   ; qtot 0.539798
 3742         h1     92    ccc     H9   3742 -0.05230000   1.008000   ; qtot 0.487498
 3743         c3     92    ccc     C7   3743 -0.60390000  12.010000   ; qtot -0.116402
 3744         h1     92    ccc    H10   3744 -0.05230000   1.008000   ; qtot -0.168702
 3745         hc     92    ccc    H11   3745 0.16730000   1.008000   ; qtot -0.001402
 3746         hc     92    ccc    H12   3746 0.16730000   1.008000   ; qtot 0.165898
 3747          c     92    ccc     C8   3747 0.72110000  12.010000   ; qtot 0.886998
 3748          o     92    ccc     O2   3748 -0.61950000  16.000000   ; qtot 0.267498
 3749         h1     92    ccc    H13   3749 -0.05230000   1.008000   ; qtot 0.215198
 3750         h1     92    ccc    H14   3750 -0.05230000   1.008000   ; qtot 0.162898
 3751         c3     92    ccc     C9   3751 -0.60390000  12.010000   ; qtot -0.441002
 3752         hc     92    ccc    H15   3752 0.16730000   1.008000   ; qtot -0.273702
 3753         hc     92    ccc    H16   3753 0.16730000   1.008000   ; qtot -0.106402
 3754          c     92    ccc    C10   3754 0.72110000  12.010000   ; qtot 0.614698
 3755          o     92    ccc     O4   3755 -0.61950000  16.000000   ; qtot -0.004802
 3756         c3     92    ccc    C11   3756 0.08518000  12.010000   ; qtot 0.080378
 3757         c3     92    ccc    C12   3757 0.07918000  12.010000   ; qtot 0.159558
 3758         h1     92    ccc    H17   3758 0.06978000   1.008000   ; qtot 0.229338
 3759         c3     92    ccc    C13   3759 0.07918000  12.010000   ; qtot 0.308518
 3760         c3     92    ccc    C14   3760 0.03578000  12.010000   ; qtot 0.344298
 3761         c3     92    ccc    C15   3761 0.33498000  12.010000   ; qtot 0.679278
 3762         h1     92    ccc    H18   3762 0.06178000   1.008000   ; qtot 0.741058
 3763         h1     92    ccc    H19   3763 0.11278000   1.008000   ; qtot 0.853838
 3764         h2     92    ccc    H20   3764 0.12178000   1.008000   ; qtot 0.975618
 3765         oh     92    ccc     O1   3765 -0.56972000  16.000000   ; qtot 0.405898
 3766         oh     92    ccc     O6   3766 -0.57772000  16.000000   ; qtot -0.171822
 3767         c3     92    ccc    C16   3767 0.14548000  12.010000   ; qtot -0.026342
 3768         ho     92    ccc    H21   3768 0.40508000   1.008000   ; qtot 0.378738
 3769         hn     92    ccc    H22   3769 0.31758000   1.008000   ; qtot 0.696318
 3770         h1     92    ccc    H23   3770 0.06278000   1.008000   ; qtot 0.759098
 3771         h1     92    ccc    H24   3771 0.06278000   1.008000   ; qtot 0.821878
 3772         oh     92    ccc     O7   3772 -0.59472000  16.000000   ; qtot 0.227158
 3773         ho     92    ccc    H25   3773 0.41908000   1.008000   ; qtot 0.646238
 3774         os     92    ccc     O8   3774 -0.44552000  16.000000   ; qtot 0.200718
 3775         ho     92    ccc    H26   3775 0.41908000   1.008000   ; qtot 0.619798
 3776         h1     92    ccc    H27   3776 0.08578000   1.008000   ; qtot 0.705578
 3777         oh     92    ccc     O9   3777 -0.58672000  16.000000   ; qtot 0.118858
 3778         ho     92    ccc    H28   3778 0.41908000   1.008000   ; qtot 0.537938
 3779         n3     92    ccc     N3   3779 -0.54282000  14.010000   ; qtot -0.004882
 3780         c3     92    ccc    C17   3780 0.08518000  12.010000   ; qtot 0.080298
 3781         c3     92    ccc    C18   3781 0.07918000  12.010000   ; qtot 0.159478
 3782         h1     92    ccc    H29   3782 0.06978000   1.008000   ; qtot 0.229258
 3783         c3     92    ccc    C19   3783 0.07918000  12.010000   ; qtot 0.308438
 3784         c3     92    ccc    C20   3784 0.03578000  12.010000   ; qtot 0.344218
 3785         c3     92    ccc    C21   3785 0.33498000  12.010000   ; qtot 0.679198
 3786         h1     92    ccc    H30   3786 0.06178000   1.008000   ; qtot 0.740978
 3787         h1     92    ccc    H31   3787 0.11278000   1.008000   ; qtot 0.853758
 3788         h2     92    ccc    H32   3788 0.12178000   1.008000   ; qtot 0.975538
 3789         oh     92    ccc    O10   3789 -0.56972000  16.000000   ; qtot 0.405818
 3790         oh     92    ccc    O11   3790 -0.57772000  16.000000   ; qtot -0.171902
 3791         c3     92    ccc    C22   3791 0.14548000  12.010000   ; qtot -0.026422
 3792         ho     92    ccc    H33   3792 0.40508000   1.008000   ; qtot 0.378658
 3793         hn     92    ccc    H34   3793 0.31758000   1.008000   ; qtot 0.696238
 3794         h1     92    ccc    H35   3794 0.06278000   1.008000   ; qtot 0.759018
 3795         h1     92    ccc    H36   3795 0.06278000   1.008000   ; qtot 0.821798
 3796         oh     92    ccc    O12   3796 -0.59472000  16.000000   ; qtot 0.227078
 3797         ho     92    ccc    H37   3797 0.41908000   1.008000   ; qtot 0.646158
 3798         os     92    ccc    O13   3798 -0.44552000  16.000000   ; qtot 0.200638
 3799         ho     92    ccc    H38   3799 0.41908000   1.008000   ; qtot 0.619718
 3800         h1     92    ccc    H39   3800 0.08578000   1.008000   ; qtot 0.705498
 3801         oh     92    ccc     O5   3801 -0.58672000  16.000000   ; qtot 0.118778
 3802         ho     92    ccc    H40   3802 0.41908000   1.008000   ; qtot 0.537858
 3803         n3     92    ccc     N4   3803 -0.54282000  14.010000   ; qtot -0.004962
; residue   93 ccc rtp ccc q -0.0
 3804          n     93    ccc     N1   3804 -0.46580000  14.010000   ; qtot -0.470762
 3805         hn     93    ccc     H4   3805 0.31480000   1.008000   ; qtot -0.155962
 3806         c3     93    ccc     C3   3806 -0.28250000  12.010000   ; qtot -0.438462
 3807         h1     93    ccc     H5   3807 0.15710000   1.008000   ; qtot -0.281362
 3808         c3     93    ccc     C4   3808 0.44180000  12.010000   ; qtot 0.160438
 3809         h1     93    ccc     H6   3809 0.15710000   1.008000   ; qtot 0.317538
 3810         h1     93    ccc     H7   3810 -0.03530000   1.008000   ; qtot 0.282238
 3811         h1     93    ccc     H8   3811 -0.03530000   1.008000   ; qtot 0.246938
 3812         n3     93    ccc     N2   3812 -0.74090000  14.010000   ; qtot -0.493962
 3813         c3     93    ccc     C5   3813 0.51680000  12.010000   ; qtot 0.022838
 3814         c3     93    ccc     C6   3814 0.51680000  12.010000   ; qtot 0.539638
 3815         h1     93    ccc     H9   3815 -0.05230000   1.008000   ; qtot 0.487338
 3816         c3     93    ccc     C7   3816 -0.60390000  12.010000   ; qtot -0.116562
 3817         h1     93    ccc    H10   3817 -0.05230000   1.008000   ; qtot -0.168862
 3818         hc     93    ccc    H11   3818 0.16730000   1.008000   ; qtot -0.001562
 3819         hc     93    ccc    H12   3819 0.16730000   1.008000   ; qtot 0.165738
 3820          c     93    ccc     C8   3820 0.72110000  12.010000   ; qtot 0.886838
 3821          o     93    ccc     O2   3821 -0.61950000  16.000000   ; qtot 0.267338
 3822         h1     93    ccc    H13   3822 -0.05230000   1.008000   ; qtot 0.215038
 3823         h1     93    ccc    H14   3823 -0.05230000   1.008000   ; qtot 0.162738
 3824         c3     93    ccc     C9   3824 -0.60390000  12.010000   ; qtot -0.441162
 3825         hc     93    ccc    H15   3825 0.16730000   1.008000   ; qtot -0.273862
 3826         hc     93    ccc    H16   3826 0.16730000   1.008000   ; qtot -0.106562
 3827          c     93    ccc    C10   3827 0.72110000  12.010000   ; qtot 0.614538
 3828          o     93    ccc     O4   3828 -0.61950000  16.000000   ; qtot -0.004962
 3829         c3     93    ccc    C11   3829 0.08518000  12.010000   ; qtot 0.080218
 3830         c3     93    ccc    C12   3830 0.07918000  12.010000   ; qtot 0.159398
 3831         h1     93    ccc    H17   3831 0.06978000   1.008000   ; qtot 0.229178
 3832         c3     93    ccc    C13   3832 0.07918000  12.010000   ; qtot 0.308358
 3833         c3     93    ccc    C14   3833 0.03578000  12.010000   ; qtot 0.344138
 3834         c3     93    ccc    C15   3834 0.33498000  12.010000   ; qtot 0.679118
 3835         h1     93    ccc    H18   3835 0.06178000   1.008000   ; qtot 0.740898
 3836         h1     93    ccc    H19   3836 0.11278000   1.008000   ; qtot 0.853678
 3837         h2     93    ccc    H20   3837 0.12178000   1.008000   ; qtot 0.975458
 3838         oh     93    ccc     O1   3838 -0.56972000  16.000000   ; qtot 0.405738
 3839         oh     93    ccc     O6   3839 -0.57772000  16.000000   ; qtot -0.171982
 3840         c3     93    ccc    C16   3840 0.14548000  12.010000   ; qtot -0.026502
 3841         ho     93    ccc    H21   3841 0.40508000   1.008000   ; qtot 0.378578
 3842         hn     93    ccc    H22   3842 0.31758000   1.008000   ; qtot 0.696158
 3843         h1     93    ccc    H23   3843 0.06278000   1.008000   ; qtot 0.758938
 3844         h1     93    ccc    H24   3844 0.06278000   1.008000   ; qtot 0.821718
 3845         oh     93    ccc     O7   3845 -0.59472000  16.000000   ; qtot 0.226998
 3846         ho     93    ccc    H25   3846 0.41908000   1.008000   ; qtot 0.646078
 3847         os     93    ccc     O8   3847 -0.44552000  16.000000   ; qtot 0.200558
 3848         ho     93    ccc    H26   3848 0.41908000   1.008000   ; qtot 0.619638
 3849         h1     93    ccc    H27   3849 0.08578000   1.008000   ; qtot 0.705418
 3850         oh     93    ccc     O9   3850 -0.58672000  16.000000   ; qtot 0.118698
 3851         ho     93    ccc    H28   3851 0.41908000   1.008000   ; qtot 0.537778
 3852         n3     93    ccc     N3   3852 -0.54282000  14.010000   ; qtot -0.005042
 3853         c3     93    ccc    C17   3853 0.08518000  12.010000   ; qtot 0.080138
 3854         c3     93    ccc    C18   3854 0.07918000  12.010000   ; qtot 0.159318
 3855         h1     93    ccc    H29   3855 0.06978000   1.008000   ; qtot 0.229098
 3856         c3     93    ccc    C19   3856 0.07918000  12.010000   ; qtot 0.308278
 3857         c3     93    ccc    C20   3857 0.03578000  12.010000   ; qtot 0.344058
 3858         c3     93    ccc    C21   3858 0.33498000  12.010000   ; qtot 0.679038
 3859         h1     93    ccc    H30   3859 0.06178000   1.008000   ; qtot 0.740818
 3860         h1     93    ccc    H31   3860 0.11278000   1.008000   ; qtot 0.853598
 3861         h2     93    ccc    H32   3861 0.12178000   1.008000   ; qtot 0.975378
 3862         oh     93    ccc    O10   3862 -0.56972000  16.000000   ; qtot 0.405658
 3863         oh     93    ccc    O11   3863 -0.57772000  16.000000   ; qtot -0.172062
 3864         c3     93    ccc    C22   3864 0.14548000  12.010000   ; qtot -0.026582
 3865         ho     93    ccc    H33   3865 0.40508000   1.008000   ; qtot 0.378498
 3866         hn     93    ccc    H34   3866 0.31758000   1.008000   ; qtot 0.696078
 3867         h1     93    ccc    H35   3867 0.06278000   1.008000   ; qtot 0.758858
 3868         h1     93    ccc    H36   3868 0.06278000   1.008000   ; qtot 0.821638
 3869         oh     93    ccc    O12   3869 -0.59472000  16.000000   ; qtot 0.226918
 3870         ho     93    ccc    H37   3870 0.41908000   1.008000   ; qtot 0.645998
 3871         os     93    ccc    O13   3871 -0.44552000  16.000000   ; qtot 0.200478
 3872         ho     93    ccc    H38   3872 0.41908000   1.008000   ; qtot 0.619558
 3873         h1     93    ccc    H39   3873 0.08578000   1.008000   ; qtot 0.705338
 3874         oh     93    ccc     O5   3874 -0.58672000  16.000000   ; qtot 0.118618
 3875         ho     93    ccc    H40   3875 0.41908000   1.008000   ; qtot 0.537698
 3876         n3     93    ccc     N4   3876 -0.54282000  14.010000   ; qtot -0.005122
; residue   94 ccc rtp ccc q -0.0
 3877          n     94    ccc     N1   3877 -0.46580000  14.010000   ; qtot -0.470922
 3878         hn     94    ccc     H4   3878 0.31480000   1.008000   ; qtot -0.156122
 3879         c3     94    ccc     C3   3879 -0.28250000  12.010000   ; qtot -0.438622
 3880         h1     94    ccc     H5   3880 0.15710000   1.008000   ; qtot -0.281522
 3881         c3     94    ccc     C4   3881 0.44180000  12.010000   ; qtot 0.160278
 3882         h1     94    ccc     H6   3882 0.15710000   1.008000   ; qtot 0.317378
 3883         h1     94    ccc     H7   3883 -0.03530000   1.008000   ; qtot 0.282078
 3884         h1     94    ccc     H8   3884 -0.03530000   1.008000   ; qtot 0.246778
 3885         n3     94    ccc     N2   3885 -0.74090000  14.010000   ; qtot -0.494122
 3886         c3     94    ccc     C5   3886 0.51680000  12.010000   ; qtot 0.022678
 3887         c3     94    ccc     C6   3887 0.51680000  12.010000   ; qtot 0.539478
 3888         h1     94    ccc     H9   3888 -0.05230000   1.008000   ; qtot 0.487178
 3889         c3     94    ccc     C7   3889 -0.60390000  12.010000   ; qtot -0.116722
 3890         h1     94    ccc    H10   3890 -0.05230000   1.008000   ; qtot -0.169022
 3891         hc     94    ccc    H11   3891 0.16730000   1.008000   ; qtot -0.001722
 3892         hc     94    ccc    H12   3892 0.16730000   1.008000   ; qtot 0.165578
 3893          c     94    ccc     C8   3893 0.72110000  12.010000   ; qtot 0.886678
 3894          o     94    ccc     O2   3894 -0.61950000  16.000000   ; qtot 0.267178
 3895         h1     94    ccc    H13   3895 -0.05230000   1.008000   ; qtot 0.214878
 3896         h1     94    ccc    H14   3896 -0.05230000   1.008000   ; qtot 0.162578
 3897         c3     94    ccc     C9   3897 -0.60390000  12.010000   ; qtot -0.441322
 3898         hc     94    ccc    H15   3898 0.16730000   1.008000   ; qtot -0.274022
 3899         hc     94    ccc    H16   3899 0.16730000   1.008000   ; qtot -0.106722
 3900          c     94    ccc    C10   3900 0.72110000  12.010000   ; qtot 0.614378
 3901          o     94    ccc     O4   3901 -0.61950000  16.000000   ; qtot -0.005122
 3902         c3     94    ccc    C11   3902 0.08518000  12.010000   ; qtot 0.080058
 3903         c3     94    ccc    C12   3903 0.07918000  12.010000   ; qtot 0.159238
 3904         h1     94    ccc    H17   3904 0.06978000   1.008000   ; qtot 0.229018
 3905         c3     94    ccc    C13   3905 0.07918000  12.010000   ; qtot 0.308198
 3906         c3     94    ccc    C14   3906 0.03578000  12.010000   ; qtot 0.343978
 3907         c3     94    ccc    C15   3907 0.33498000  12.010000   ; qtot 0.678958
 3908         h1     94    ccc    H18   3908 0.06178000   1.008000   ; qtot 0.740738
 3909         h1     94    ccc    H19   3909 0.11278000   1.008000   ; qtot 0.853518
 3910         h2     94    ccc    H20   3910 0.12178000   1.008000   ; qtot 0.975298
 3911         oh     94    ccc     O1   3911 -0.56972000  16.000000   ; qtot 0.405578
 3912         oh     94    ccc     O6   3912 -0.57772000  16.000000   ; qtot -0.172142
 3913         c3     94    ccc    C16   3913 0.14548000  12.010000   ; qtot -0.026662
 3914         ho     94    ccc    H21   3914 0.40508000   1.008000   ; qtot 0.378418
 3915         hn     94    ccc    H22   3915 0.31758000   1.008000   ; qtot 0.695998
 3916         h1     94    ccc    H23   3916 0.06278000   1.008000   ; qtot 0.758778
 3917         h1     94    ccc    H24   3917 0.06278000   1.008000   ; qtot 0.821558
 3918         oh     94    ccc     O7   3918 -0.59472000  16.000000   ; qtot 0.226838
 3919         ho     94    ccc    H25   3919 0.41908000   1.008000   ; qtot 0.645918
 3920         os     94    ccc     O8   3920 -0.44552000  16.000000   ; qtot 0.200398
 3921         ho     94    ccc    H26   3921 0.41908000   1.008000   ; qtot 0.619478
 3922         h1     94    ccc    H27   3922 0.08578000   1.008000   ; qtot 0.705258
 3923         oh     94    ccc     O9   3923 -0.58672000  16.000000   ; qtot 0.118538
 3924         ho     94    ccc    H28   3924 0.41908000   1.008000   ; qtot 0.537618
 3925         n3     94    ccc     N3   3925 -0.54282000  14.010000   ; qtot -0.005202
 3926         c3     94    ccc    C17   3926 0.08518000  12.010000   ; qtot 0.079978
 3927         c3     94    ccc    C18   3927 0.07918000  12.010000   ; qtot 0.159158
 3928         h1     94    ccc    H29   3928 0.06978000   1.008000   ; qtot 0.228938
 3929         c3     94    ccc    C19   3929 0.07918000  12.010000   ; qtot 0.308118
 3930         c3     94    ccc    C20   3930 0.03578000  12.010000   ; qtot 0.343898
 3931         c3     94    ccc    C21   3931 0.33498000  12.010000   ; qtot 0.678878
 3932         h1     94    ccc    H30   3932 0.06178000   1.008000   ; qtot 0.740658
 3933         h1     94    ccc    H31   3933 0.11278000   1.008000   ; qtot 0.853438
 3934         h2     94    ccc    H32   3934 0.12178000   1.008000   ; qtot 0.975218
 3935         oh     94    ccc    O10   3935 -0.56972000  16.000000   ; qtot 0.405498
 3936         oh     94    ccc    O11   3936 -0.57772000  16.000000   ; qtot -0.172222
 3937         c3     94    ccc    C22   3937 0.14548000  12.010000   ; qtot -0.026742
 3938         ho     94    ccc    H33   3938 0.40508000   1.008000   ; qtot 0.378338
 3939         hn     94    ccc    H34   3939 0.31758000   1.008000   ; qtot 0.695918
 3940         h1     94    ccc    H35   3940 0.06278000   1.008000   ; qtot 0.758698
 3941         h1     94    ccc    H36   3941 0.06278000   1.008000   ; qtot 0.821478
 3942         oh     94    ccc    O12   3942 -0.59472000  16.000000   ; qtot 0.226758
 3943         ho     94    ccc    H37   3943 0.41908000   1.008000   ; qtot 0.645838
 3944         os     94    ccc    O13   3944 -0.44552000  16.000000   ; qtot 0.200318
 3945         ho     94    ccc    H38   3945 0.41908000   1.008000   ; qtot 0.619398
 3946         h1     94    ccc    H39   3946 0.08578000   1.008000   ; qtot 0.705178
 3947         oh     94    ccc     O5   3947 -0.58672000  16.000000   ; qtot 0.118458
 3948         ho     94    ccc    H40   3948 0.41908000   1.008000   ; qtot 0.537538
 3949         n3     94    ccc     N4   3949 -0.54282000  14.010000   ; qtot -0.005282
; residue   95 ccc rtp ccc q -0.0
 3950          n     95    ccc     N1   3950 -0.46580000  14.010000   ; qtot -0.471082
 3951         hn     95    ccc     H4   3951 0.31480000   1.008000   ; qtot -0.156282
 3952         c3     95    ccc     C3   3952 -0.28250000  12.010000   ; qtot -0.438782
 3953         h1     95    ccc     H5   3953 0.15710000   1.008000   ; qtot -0.281682
 3954         c3     95    ccc     C4   3954 0.44180000  12.010000   ; qtot 0.160118
 3955         h1     95    ccc     H6   3955 0.15710000   1.008000   ; qtot 0.317218
 3956         h1     95    ccc     H7   3956 -0.03530000   1.008000   ; qtot 0.281918
 3957         h1     95    ccc     H8   3957 -0.03530000   1.008000   ; qtot 0.246618
 3958         n3     95    ccc     N2   3958 -0.74090000  14.010000   ; qtot -0.494282
 3959         c3     95    ccc     C5   3959 0.51680000  12.010000   ; qtot 0.022518
 3960         c3     95    ccc     C6   3960 0.51680000  12.010000   ; qtot 0.539318
 3961         h1     95    ccc     H9   3961 -0.05230000   1.008000   ; qtot 0.487018
 3962         c3     95    ccc     C7   3962 -0.60390000  12.010000   ; qtot -0.116882
 3963         h1     95    ccc    H10   3963 -0.05230000   1.008000   ; qtot -0.169182
 3964         hc     95    ccc    H11   3964 0.16730000   1.008000   ; qtot -0.001882
 3965         hc     95    ccc    H12   3965 0.16730000   1.008000   ; qtot 0.165418
 3966          c     95    ccc     C8   3966 0.72110000  12.010000   ; qtot 0.886518
 3967          o     95    ccc     O2   3967 -0.61950000  16.000000   ; qtot 0.267018
 3968         h1     95    ccc    H13   3968 -0.05230000   1.008000   ; qtot 0.214718
 3969         h1     95    ccc    H14   3969 -0.05230000   1.008000   ; qtot 0.162418
 3970         c3     95    ccc     C9   3970 -0.60390000  12.010000   ; qtot -0.441482
 3971         hc     95    ccc    H15   3971 0.16730000   1.008000   ; qtot -0.274182
 3972         hc     95    ccc    H16   3972 0.16730000   1.008000   ; qtot -0.106882
 3973          c     95    ccc    C10   3973 0.72110000  12.010000   ; qtot 0.614218
 3974          o     95    ccc     O4   3974 -0.61950000  16.000000   ; qtot -0.005282
 3975         c3     95    ccc    C11   3975 0.08518000  12.010000   ; qtot 0.079898
 3976         c3     95    ccc    C12   3976 0.07918000  12.010000   ; qtot 0.159078
 3977         h1     95    ccc    H17   3977 0.06978000   1.008000   ; qtot 0.228858
 3978         c3     95    ccc    C13   3978 0.07918000  12.010000   ; qtot 0.308038
 3979         c3     95    ccc    C14   3979 0.03578000  12.010000   ; qtot 0.343818
 3980         c3     95    ccc    C15   3980 0.33498000  12.010000   ; qtot 0.678798
 3981         h1     95    ccc    H18   3981 0.06178000   1.008000   ; qtot 0.740578
 3982         h1     95    ccc    H19   3982 0.11278000   1.008000   ; qtot 0.853358
 3983         h2     95    ccc    H20   3983 0.12178000   1.008000   ; qtot 0.975138
 3984         oh     95    ccc     O1   3984 -0.56972000  16.000000   ; qtot 0.405418
 3985         oh     95    ccc     O6   3985 -0.57772000  16.000000   ; qtot -0.172302
 3986         c3     95    ccc    C16   3986 0.14548000  12.010000   ; qtot -0.026822
 3987         ho     95    ccc    H21   3987 0.40508000   1.008000   ; qtot 0.378258
 3988         hn     95    ccc    H22   3988 0.31758000   1.008000   ; qtot 0.695838
 3989         h1     95    ccc    H23   3989 0.06278000   1.008000   ; qtot 0.758618
 3990         h1     95    ccc    H24   3990 0.06278000   1.008000   ; qtot 0.821398
 3991         oh     95    ccc     O7   3991 -0.59472000  16.000000   ; qtot 0.226678
 3992         ho     95    ccc    H25   3992 0.41908000   1.008000   ; qtot 0.645758
 3993         os     95    ccc     O8   3993 -0.44552000  16.000000   ; qtot 0.200238
 3994         ho     95    ccc    H26   3994 0.41908000   1.008000   ; qtot 0.619318
 3995         h1     95    ccc    H27   3995 0.08578000   1.008000   ; qtot 0.705098
 3996         oh     95    ccc     O9   3996 -0.58672000  16.000000   ; qtot 0.118378
 3997         ho     95    ccc    H28   3997 0.41908000   1.008000   ; qtot 0.537458
 3998         n3     95    ccc     N3   3998 -0.54282000  14.010000   ; qtot -0.005362
 3999         c3     95    ccc    C17   3999 0.08518000  12.010000   ; qtot 0.079818
 4000         c3     95    ccc    C18   4000 0.07918000  12.010000   ; qtot 0.158998
 4001         h1     95    ccc    H29   4001 0.06978000   1.008000   ; qtot 0.228778
 4002         c3     95    ccc    C19   4002 0.07918000  12.010000   ; qtot 0.307958
 4003         c3     95    ccc    C20   4003 0.03578000  12.010000   ; qtot 0.343738
 4004         c3     95    ccc    C21   4004 0.33498000  12.010000   ; qtot 0.678718
 4005         h1     95    ccc    H30   4005 0.06178000   1.008000   ; qtot 0.740498
 4006         h1     95    ccc    H31   4006 0.11278000   1.008000   ; qtot 0.853278
 4007         h2     95    ccc    H32   4007 0.12178000   1.008000   ; qtot 0.975058
 4008         oh     95    ccc    O10   4008 -0.56972000  16.000000   ; qtot 0.405338
 4009         oh     95    ccc    O11   4009 -0.57772000  16.000000   ; qtot -0.172382
 4010         c3     95    ccc    C22   4010 0.14548000  12.010000   ; qtot -0.026902
 4011         ho     95    ccc    H33   4011 0.40508000   1.008000   ; qtot 0.378178
 4012         hn     95    ccc    H34   4012 0.31758000   1.008000   ; qtot 0.695758
 4013         h1     95    ccc    H35   4013 0.06278000   1.008000   ; qtot 0.758538
 4014         h1     95    ccc    H36   4014 0.06278000   1.008000   ; qtot 0.821318
 4015         oh     95    ccc    O12   4015 -0.59472000  16.000000   ; qtot 0.226598
 4016         ho     95    ccc    H37   4016 0.41908000   1.008000   ; qtot 0.645678
 4017         os     95    ccc    O13   4017 -0.44552000  16.000000   ; qtot 0.200158
 4018         ho     95    ccc    H38   4018 0.41908000   1.008000   ; qtot 0.619238
 4019         h1     95    ccc    H39   4019 0.08578000   1.008000   ; qtot 0.705018
 4020         oh     95    ccc     O5   4020 -0.58672000  16.000000   ; qtot 0.118298
 4021         ho     95    ccc    H40   4021 0.41908000   1.008000   ; qtot 0.537378
 4022         n3     95    ccc     N4   4022 -0.54282000  14.010000   ; qtot -0.005442
; residue   96 ccc rtp ccc q -0.0
 4023          n     96    ccc     N1   4023 -0.46580000  14.010000   ; qtot -0.471242
 4024         hn     96    ccc     H4   4024 0.31480000   1.008000   ; qtot -0.156442
 4025         c3     96    ccc     C3   4025 -0.28250000  12.010000   ; qtot -0.438942
 4026         h1     96    ccc     H5   4026 0.15710000   1.008000   ; qtot -0.281842
 4027         c3     96    ccc     C4   4027 0.44180000  12.010000   ; qtot 0.159958
 4028         h1     96    ccc     H6   4028 0.15710000   1.008000   ; qtot 0.317058
 4029         h1     96    ccc     H7   4029 -0.03530000   1.008000   ; qtot 0.281758
 4030         h1     96    ccc     H8   4030 -0.03530000   1.008000   ; qtot 0.246458
 4031         n3     96    ccc     N2   4031 -0.74090000  14.010000   ; qtot -0.494442
 4032         c3     96    ccc     C5   4032 0.51680000  12.010000   ; qtot 0.022358
 4033         c3     96    ccc     C6   4033 0.51680000  12.010000   ; qtot 0.539158
 4034         h1     96    ccc     H9   4034 -0.05230000   1.008000   ; qtot 0.486858
 4035         c3     96    ccc     C7   4035 -0.60390000  12.010000   ; qtot -0.117042
 4036         h1     96    ccc    H10   4036 -0.05230000   1.008000   ; qtot -0.169342
 4037         hc     96    ccc    H11   4037 0.16730000   1.008000   ; qtot -0.002042
 4038         hc     96    ccc    H12   4038 0.16730000   1.008000   ; qtot 0.165258
 4039          c     96    ccc     C8   4039 0.72110000  12.010000   ; qtot 0.886358
 4040          o     96    ccc     O2   4040 -0.61950000  16.000000   ; qtot 0.266858
 4041         h1     96    ccc    H13   4041 -0.05230000   1.008000   ; qtot 0.214558
 4042         h1     96    ccc    H14   4042 -0.05230000   1.008000   ; qtot 0.162258
 4043         c3     96    ccc     C9   4043 -0.60390000  12.010000   ; qtot -0.441642
 4044         hc     96    ccc    H15   4044 0.16730000   1.008000   ; qtot -0.274342
 4045         hc     96    ccc    H16   4045 0.16730000   1.008000   ; qtot -0.107042
 4046          c     96    ccc    C10   4046 0.72110000  12.010000   ; qtot 0.614058
 4047          o     96    ccc     O4   4047 -0.61950000  16.000000   ; qtot -0.005442
 4048         c3     96    ccc    C11   4048 0.08518000  12.010000   ; qtot 0.079738
 4049         c3     96    ccc    C12   4049 0.07918000  12.010000   ; qtot 0.158918
 4050         h1     96    ccc    H17   4050 0.06978000   1.008000   ; qtot 0.228698
 4051         c3     96    ccc    C13   4051 0.07918000  12.010000   ; qtot 0.307878
 4052         c3     96    ccc    C14   4052 0.03578000  12.010000   ; qtot 0.343658
 4053         c3     96    ccc    C15   4053 0.33498000  12.010000   ; qtot 0.678638
 4054         h1     96    ccc    H18   4054 0.06178000   1.008000   ; qtot 0.740418
 4055         h1     96    ccc    H19   4055 0.11278000   1.008000   ; qtot 0.853198
 4056         h2     96    ccc    H20   4056 0.12178000   1.008000   ; qtot 0.974978
 4057         oh     96    ccc     O1   4057 -0.56972000  16.000000   ; qtot 0.405258
 4058         oh     96    ccc     O6   4058 -0.57772000  16.000000   ; qtot -0.172462
 4059         c3     96    ccc    C16   4059 0.14548000  12.010000   ; qtot -0.026982
 4060         ho     96    ccc    H21   4060 0.40508000   1.008000   ; qtot 0.378098
 4061         hn     96    ccc    H22   4061 0.31758000   1.008000   ; qtot 0.695678
 4062         h1     96    ccc    H23   4062 0.06278000   1.008000   ; qtot 0.758458
 4063         h1     96    ccc    H24   4063 0.06278000   1.008000   ; qtot 0.821238
 4064         oh     96    ccc     O7   4064 -0.59472000  16.000000   ; qtot 0.226518
 4065         ho     96    ccc    H25   4065 0.41908000   1.008000   ; qtot 0.645598
 4066         os     96    ccc     O8   4066 -0.44552000  16.000000   ; qtot 0.200078
 4067         ho     96    ccc    H26   4067 0.41908000   1.008000   ; qtot 0.619158
 4068         h1     96    ccc    H27   4068 0.08578000   1.008000   ; qtot 0.704938
 4069         oh     96    ccc     O9   4069 -0.58672000  16.000000   ; qtot 0.118218
 4070         ho     96    ccc    H28   4070 0.41908000   1.008000   ; qtot 0.537298
 4071         n3     96    ccc     N3   4071 -0.54282000  14.010000   ; qtot -0.005522
 4072         c3     96    ccc    C17   4072 0.08518000  12.010000   ; qtot 0.079658
 4073         c3     96    ccc    C18   4073 0.07918000  12.010000   ; qtot 0.158838
 4074         h1     96    ccc    H29   4074 0.06978000   1.008000   ; qtot 0.228618
 4075         c3     96    ccc    C19   4075 0.07918000  12.010000   ; qtot 0.307798
 4076         c3     96    ccc    C20   4076 0.03578000  12.010000   ; qtot 0.343578
 4077         c3     96    ccc    C21   4077 0.33498000  12.010000   ; qtot 0.678558
 4078         h1     96    ccc    H30   4078 0.06178000   1.008000   ; qtot 0.740338
 4079         h1     96    ccc    H31   4079 0.11278000   1.008000   ; qtot 0.853118
 4080         h2     96    ccc    H32   4080 0.12178000   1.008000   ; qtot 0.974898
 4081         oh     96    ccc    O10   4081 -0.56972000  16.000000   ; qtot 0.405178
 4082         oh     96    ccc    O11   4082 -0.57772000  16.000000   ; qtot -0.172542
 4083         c3     96    ccc    C22   4083 0.14548000  12.010000   ; qtot -0.027062
 4084         ho     96    ccc    H33   4084 0.40508000   1.008000   ; qtot 0.378018
 4085         hn     96    ccc    H34   4085 0.31758000   1.008000   ; qtot 0.695598
 4086         h1     96    ccc    H35   4086 0.06278000   1.008000   ; qtot 0.758378
 4087         h1     96    ccc    H36   4087 0.06278000   1.008000   ; qtot 0.821158
 4088         oh     96    ccc    O12   4088 -0.59472000  16.000000   ; qtot 0.226438
 4089         ho     96    ccc    H37   4089 0.41908000   1.008000   ; qtot 0.645518
 4090         os     96    ccc    O13   4090 -0.44552000  16.000000   ; qtot 0.199998
 4091         ho     96    ccc    H38   4091 0.41908000   1.008000   ; qtot 0.619078
 4092         h1     96    ccc    H39   4092 0.08578000   1.008000   ; qtot 0.704858
 4093         oh     96    ccc     O5   4093 -0.58672000  16.000000   ; qtot 0.118138
 4094         ho     96    ccc    H40   4094 0.41908000   1.008000   ; qtot 0.537218
 4095         n3     96    ccc     N4   4095 -0.54282000  14.010000   ; qtot -0.005602
; residue   97 ccc rtp ccc q -0.0
 4096          n     97    ccc     N1   4096 -0.46580000  14.010000   ; qtot -0.471402
 4097         hn     97    ccc     H4   4097 0.31480000   1.008000   ; qtot -0.156602
 4098         c3     97    ccc     C3   4098 -0.28250000  12.010000   ; qtot -0.439102
 4099         h1     97    ccc     H5   4099 0.15710000   1.008000   ; qtot -0.282002
 4100         c3     97    ccc     C4   4100 0.44180000  12.010000   ; qtot 0.159798
 4101         h1     97    ccc     H6   4101 0.15710000   1.008000   ; qtot 0.316898
 4102         h1     97    ccc     H7   4102 -0.03530000   1.008000   ; qtot 0.281598
 4103         h1     97    ccc     H8   4103 -0.03530000   1.008000   ; qtot 0.246298
 4104         n3     97    ccc     N2   4104 -0.74090000  14.010000   ; qtot -0.494602
 4105         c3     97    ccc     C5   4105 0.51680000  12.010000   ; qtot 0.022198
 4106         c3     97    ccc     C6   4106 0.51680000  12.010000   ; qtot 0.538998
 4107         h1     97    ccc     H9   4107 -0.05230000   1.008000   ; qtot 0.486698
 4108         c3     97    ccc     C7   4108 -0.60390000  12.010000   ; qtot -0.117202
 4109         h1     97    ccc    H10   4109 -0.05230000   1.008000   ; qtot -0.169502
 4110         hc     97    ccc    H11   4110 0.16730000   1.008000   ; qtot -0.002202
 4111         hc     97    ccc    H12   4111 0.16730000   1.008000   ; qtot 0.165098
 4112          c     97    ccc     C8   4112 0.72110000  12.010000   ; qtot 0.886198
 4113          o     97    ccc     O2   4113 -0.61950000  16.000000   ; qtot 0.266698
 4114         h1     97    ccc    H13   4114 -0.05230000   1.008000   ; qtot 0.214398
 4115         h1     97    ccc    H14   4115 -0.05230000   1.008000   ; qtot 0.162098
 4116         c3     97    ccc     C9   4116 -0.60390000  12.010000   ; qtot -0.441802
 4117         hc     97    ccc    H15   4117 0.16730000   1.008000   ; qtot -0.274502
 4118         hc     97    ccc    H16   4118 0.16730000   1.008000   ; qtot -0.107202
 4119          c     97    ccc    C10   4119 0.72110000  12.010000   ; qtot 0.613898
 4120          o     97    ccc     O4   4120 -0.61950000  16.000000   ; qtot -0.005602
 4121         c3     97    ccc    C11   4121 0.08518000  12.010000   ; qtot 0.079578
 4122         c3     97    ccc    C12   4122 0.07918000  12.010000   ; qtot 0.158758
 4123         h1     97    ccc    H17   4123 0.06978000   1.008000   ; qtot 0.228538
 4124         c3     97    ccc    C13   4124 0.07918000  12.010000   ; qtot 0.307718
 4125         c3     97    ccc    C14   4125 0.03578000  12.010000   ; qtot 0.343498
 4126         c3     97    ccc    C15   4126 0.33498000  12.010000   ; qtot 0.678478
 4127         h1     97    ccc    H18   4127 0.06178000   1.008000   ; qtot 0.740258
 4128         h1     97    ccc    H19   4128 0.11278000   1.008000   ; qtot 0.853038
 4129         h2     97    ccc    H20   4129 0.12178000   1.008000   ; qtot 0.974818
 4130         oh     97    ccc     O1   4130 -0.56972000  16.000000   ; qtot 0.405098
 4131         oh     97    ccc     O6   4131 -0.57772000  16.000000   ; qtot -0.172622
 4132         c3     97    ccc    C16   4132 0.14548000  12.010000   ; qtot -0.027142
 4133         ho     97    ccc    H21   4133 0.40508000   1.008000   ; qtot 0.377938
 4134         hn     97    ccc    H22   4134 0.31758000   1.008000   ; qtot 0.695518
 4135         h1     97    ccc    H23   4135 0.06278000   1.008000   ; qtot 0.758298
 4136         h1     97    ccc    H24   4136 0.06278000   1.008000   ; qtot 0.821078
 4137         oh     97    ccc     O7   4137 -0.59472000  16.000000   ; qtot 0.226358
 4138         ho     97    ccc    H25   4138 0.41908000   1.008000   ; qtot 0.645438
 4139         os     97    ccc     O8   4139 -0.44552000  16.000000   ; qtot 0.199918
 4140         ho     97    ccc    H26   4140 0.41908000   1.008000   ; qtot 0.618998
 4141         h1     97    ccc    H27   4141 0.08578000   1.008000   ; qtot 0.704778
 4142         oh     97    ccc     O9   4142 -0.58672000  16.000000   ; qtot 0.118058
 4143         ho     97    ccc    H28   4143 0.41908000   1.008000   ; qtot 0.537138
 4144         n3     97    ccc     N3   4144 -0.54282000  14.010000   ; qtot -0.005682
 4145         c3     97    ccc    C17   4145 0.08518000  12.010000   ; qtot 0.079498
 4146         c3     97    ccc    C18   4146 0.07918000  12.010000   ; qtot 0.158678
 4147         h1     97    ccc    H29   4147 0.06978000   1.008000   ; qtot 0.228458
 4148         c3     97    ccc    C19   4148 0.07918000  12.010000   ; qtot 0.307638
 4149         c3     97    ccc    C20   4149 0.03578000  12.010000   ; qtot 0.343418
 4150         c3     97    ccc    C21   4150 0.33498000  12.010000   ; qtot 0.678398
 4151         h1     97    ccc    H30   4151 0.06178000   1.008000   ; qtot 0.740178
 4152         h1     97    ccc    H31   4152 0.11278000   1.008000   ; qtot 0.852958
 4153         h2     97    ccc    H32   4153 0.12178000   1.008000   ; qtot 0.974738
 4154         oh     97    ccc    O10   4154 -0.56972000  16.000000   ; qtot 0.405018
 4155         oh     97    ccc    O11   4155 -0.57772000  16.000000   ; qtot -0.172702
 4156         c3     97    ccc    C22   4156 0.14548000  12.010000   ; qtot -0.027222
 4157         ho     97    ccc    H33   4157 0.40508000   1.008000   ; qtot 0.377858
 4158         hn     97    ccc    H34   4158 0.31758000   1.008000   ; qtot 0.695438
 4159         h1     97    ccc    H35   4159 0.06278000   1.008000   ; qtot 0.758218
 4160         h1     97    ccc    H36   4160 0.06278000   1.008000   ; qtot 0.820998
 4161         oh     97    ccc    O12   4161 -0.59472000  16.000000   ; qtot 0.226278
 4162         ho     97    ccc    H37   4162 0.41908000   1.008000   ; qtot 0.645358
 4163         os     97    ccc    O13   4163 -0.44552000  16.000000   ; qtot 0.199838
 4164         ho     97    ccc    H38   4164 0.41908000   1.008000   ; qtot 0.618918
 4165         h1     97    ccc    H39   4165 0.08578000   1.008000   ; qtot 0.704698
 4166         oh     97    ccc     O5   4166 -0.58672000  16.000000   ; qtot 0.117978
 4167         ho     97    ccc    H40   4167 0.41908000   1.008000   ; qtot 0.537058
 4168         n3     97    ccc     N4   4168 -0.54282000  14.010000   ; qtot -0.005762
; residue   98 ccc rtp ccc q -0.0
 4169          n     98    ccc     N1   4169 -0.46580000  14.010000   ; qtot -0.471562
 4170         hn     98    ccc     H4   4170 0.31480000   1.008000   ; qtot -0.156762
 4171         c3     98    ccc     C3   4171 -0.28250000  12.010000   ; qtot -0.439262
 4172         h1     98    ccc     H5   4172 0.15710000   1.008000   ; qtot -0.282162
 4173         c3     98    ccc     C4   4173 0.44180000  12.010000   ; qtot 0.159638
 4174         h1     98    ccc     H6   4174 0.15710000   1.008000   ; qtot 0.316738
 4175         h1     98    ccc     H7   4175 -0.03530000   1.008000   ; qtot 0.281438
 4176         h1     98    ccc     H8   4176 -0.03530000   1.008000   ; qtot 0.246138
 4177         n3     98    ccc     N2   4177 -0.74090000  14.010000   ; qtot -0.494762
 4178         c3     98    ccc     C5   4178 0.51680000  12.010000   ; qtot 0.022038
 4179         c3     98    ccc     C6   4179 0.51680000  12.010000   ; qtot 0.538838
 4180         h1     98    ccc     H9   4180 -0.05230000   1.008000   ; qtot 0.486538
 4181         c3     98    ccc     C7   4181 -0.60390000  12.010000   ; qtot -0.117362
 4182         h1     98    ccc    H10   4182 -0.05230000   1.008000   ; qtot -0.169662
 4183         hc     98    ccc    H11   4183 0.16730000   1.008000   ; qtot -0.002362
 4184         hc     98    ccc    H12   4184 0.16730000   1.008000   ; qtot 0.164938
 4185          c     98    ccc     C8   4185 0.72110000  12.010000   ; qtot 0.886038
 4186          o     98    ccc     O2   4186 -0.61950000  16.000000   ; qtot 0.266538
 4187         h1     98    ccc    H13   4187 -0.05230000   1.008000   ; qtot 0.214238
 4188         h1     98    ccc    H14   4188 -0.05230000   1.008000   ; qtot 0.161938
 4189         c3     98    ccc     C9   4189 -0.60390000  12.010000   ; qtot -0.441962
 4190         hc     98    ccc    H15   4190 0.16730000   1.008000   ; qtot -0.274662
 4191         hc     98    ccc    H16   4191 0.16730000   1.008000   ; qtot -0.107362
 4192          c     98    ccc    C10   4192 0.72110000  12.010000   ; qtot 0.613738
 4193          o     98    ccc     O4   4193 -0.61950000  16.000000   ; qtot -0.005762
 4194         c3     98    ccc    C11   4194 0.08518000  12.010000   ; qtot 0.079418
 4195         c3     98    ccc    C12   4195 0.07918000  12.010000   ; qtot 0.158598
 4196         h1     98    ccc    H17   4196 0.06978000   1.008000   ; qtot 0.228378
 4197         c3     98    ccc    C13   4197 0.07918000  12.010000   ; qtot 0.307558
 4198         c3     98    ccc    C14   4198 0.03578000  12.010000   ; qtot 0.343338
 4199         c3     98    ccc    C15   4199 0.33498000  12.010000   ; qtot 0.678318
 4200         h1     98    ccc    H18   4200 0.06178000   1.008000   ; qtot 0.740098
 4201         h1     98    ccc    H19   4201 0.11278000   1.008000   ; qtot 0.852878
 4202         h2     98    ccc    H20   4202 0.12178000   1.008000   ; qtot 0.974658
 4203         oh     98    ccc     O1   4203 -0.56972000  16.000000   ; qtot 0.404938
 4204         oh     98    ccc     O6   4204 -0.57772000  16.000000   ; qtot -0.172782
 4205         c3     98    ccc    C16   4205 0.14548000  12.010000   ; qtot -0.027302
 4206         ho     98    ccc    H21   4206 0.40508000   1.008000   ; qtot 0.377778
 4207         hn     98    ccc    H22   4207 0.31758000   1.008000   ; qtot 0.695358
 4208         h1     98    ccc    H23   4208 0.06278000   1.008000   ; qtot 0.758138
 4209         h1     98    ccc    H24   4209 0.06278000   1.008000   ; qtot 0.820918
 4210         oh     98    ccc     O7   4210 -0.59472000  16.000000   ; qtot 0.226198
 4211         ho     98    ccc    H25   4211 0.41908000   1.008000   ; qtot 0.645278
 4212         os     98    ccc     O8   4212 -0.44552000  16.000000   ; qtot 0.199758
 4213         ho     98    ccc    H26   4213 0.41908000   1.008000   ; qtot 0.618838
 4214         h1     98    ccc    H27   4214 0.08578000   1.008000   ; qtot 0.704618
 4215         oh     98    ccc     O9   4215 -0.58672000  16.000000   ; qtot 0.117898
 4216         ho     98    ccc    H28   4216 0.41908000   1.008000   ; qtot 0.536978
 4217         n3     98    ccc     N3   4217 -0.54282000  14.010000   ; qtot -0.005842
 4218         c3     98    ccc    C17   4218 0.08518000  12.010000   ; qtot 0.079338
 4219         c3     98    ccc    C18   4219 0.07918000  12.010000   ; qtot 0.158518
 4220         h1     98    ccc    H29   4220 0.06978000   1.008000   ; qtot 0.228298
 4221         c3     98    ccc    C19   4221 0.07918000  12.010000   ; qtot 0.307478
 4222         c3     98    ccc    C20   4222 0.03578000  12.010000   ; qtot 0.343258
 4223         c3     98    ccc    C21   4223 0.33498000  12.010000   ; qtot 0.678238
 4224         h1     98    ccc    H30   4224 0.06178000   1.008000   ; qtot 0.740018
 4225         h1     98    ccc    H31   4225 0.11278000   1.008000   ; qtot 0.852798
 4226         h2     98    ccc    H32   4226 0.12178000   1.008000   ; qtot 0.974578
 4227         oh     98    ccc    O10   4227 -0.56972000  16.000000   ; qtot 0.404858
 4228         oh     98    ccc    O11   4228 -0.57772000  16.000000   ; qtot -0.172862
 4229         c3     98    ccc    C22   4229 0.14548000  12.010000   ; qtot -0.027382
 4230         ho     98    ccc    H33   4230 0.40508000   1.008000   ; qtot 0.377698
 4231         hn     98    ccc    H34   4231 0.31758000   1.008000   ; qtot 0.695278
 4232         h1     98    ccc    H35   4232 0.06278000   1.008000   ; qtot 0.758058
 4233         h1     98    ccc    H36   4233 0.06278000   1.008000   ; qtot 0.820838
 4234         oh     98    ccc    O12   4234 -0.59472000  16.000000   ; qtot 0.226118
 4235         ho     98    ccc    H37   4235 0.41908000   1.008000   ; qtot 0.645198
 4236         os     98    ccc    O13   4236 -0.44552000  16.000000   ; qtot 0.199678
 4237         ho     98    ccc    H38   4237 0.41908000   1.008000   ; qtot 0.618758
 4238         h1     98    ccc    H39   4238 0.08578000   1.008000   ; qtot 0.704538
 4239         oh     98    ccc     O5   4239 -0.58672000  16.000000   ; qtot 0.117818
 4240         ho     98    ccc    H40   4240 0.41908000   1.008000   ; qtot 0.536898
 4241         n3     98    ccc     N4   4241 -0.54282000  14.010000   ; qtot -0.005922
; residue   99 ccc rtp ccc q -0.0
 4242          n     99    ccc     N1   4242 -0.46580000  14.010000   ; qtot -0.471722
 4243         hn     99    ccc     H4   4243 0.31480000   1.008000   ; qtot -0.156922
 4244         c3     99    ccc     C3   4244 -0.28250000  12.010000   ; qtot -0.439422
 4245         h1     99    ccc     H5   4245 0.15710000   1.008000   ; qtot -0.282322
 4246         c3     99    ccc     C4   4246 0.44180000  12.010000   ; qtot 0.159478
 4247         h1     99    ccc     H6   4247 0.15710000   1.008000   ; qtot 0.316578
 4248         h1     99    ccc     H7   4248 -0.03530000   1.008000   ; qtot 0.281278
 4249         h1     99    ccc     H8   4249 -0.03530000   1.008000   ; qtot 0.245978
 4250         n3     99    ccc     N2   4250 -0.74090000  14.010000   ; qtot -0.494922
 4251         c3     99    ccc     C5   4251 0.51680000  12.010000   ; qtot 0.021878
 4252         c3     99    ccc     C6   4252 0.51680000  12.010000   ; qtot 0.538678
 4253         h1     99    ccc     H9   4253 -0.05230000   1.008000   ; qtot 0.486378
 4254         c3     99    ccc     C7   4254 -0.60390000  12.010000   ; qtot -0.117522
 4255         h1     99    ccc    H10   4255 -0.05230000   1.008000   ; qtot -0.169822
 4256         hc     99    ccc    H11   4256 0.16730000   1.008000   ; qtot -0.002522
 4257         hc     99    ccc    H12   4257 0.16730000   1.008000   ; qtot 0.164778
 4258          c     99    ccc     C8   4258 0.72110000  12.010000   ; qtot 0.885878
 4259          o     99    ccc     O2   4259 -0.61950000  16.000000   ; qtot 0.266378
 4260         h1     99    ccc    H13   4260 -0.05230000   1.008000   ; qtot 0.214078
 4261         h1     99    ccc    H14   4261 -0.05230000   1.008000   ; qtot 0.161778
 4262         c3     99    ccc     C9   4262 -0.60390000  12.010000   ; qtot -0.442122
 4263         hc     99    ccc    H15   4263 0.16730000   1.008000   ; qtot -0.274822
 4264         hc     99    ccc    H16   4264 0.16730000   1.008000   ; qtot -0.107522
 4265          c     99    ccc    C10   4265 0.72110000  12.010000   ; qtot 0.613578
 4266          o     99    ccc     O4   4266 -0.61950000  16.000000   ; qtot -0.005922
 4267         c3     99    ccc    C11   4267 0.08518000  12.010000   ; qtot 0.079258
 4268         c3     99    ccc    C12   4268 0.07918000  12.010000   ; qtot 0.158438
 4269         h1     99    ccc    H17   4269 0.06978000   1.008000   ; qtot 0.228218
 4270         c3     99    ccc    C13   4270 0.07918000  12.010000   ; qtot 0.307398
 4271         c3     99    ccc    C14   4271 0.03578000  12.010000   ; qtot 0.343178
 4272         c3     99    ccc    C15   4272 0.33498000  12.010000   ; qtot 0.678158
 4273         h1     99    ccc    H18   4273 0.06178000   1.008000   ; qtot 0.739938
 4274         h1     99    ccc    H19   4274 0.11278000   1.008000   ; qtot 0.852718
 4275         h2     99    ccc    H20   4275 0.12178000   1.008000   ; qtot 0.974498
 4276         oh     99    ccc     O1   4276 -0.56972000  16.000000   ; qtot 0.404778
 4277         oh     99    ccc     O6   4277 -0.57772000  16.000000   ; qtot -0.172942
 4278         c3     99    ccc    C16   4278 0.14548000  12.010000   ; qtot -0.027462
 4279         ho     99    ccc    H21   4279 0.40508000   1.008000   ; qtot 0.377618
 4280         hn     99    ccc    H22   4280 0.31758000   1.008000   ; qtot 0.695198
 4281         h1     99    ccc    H23   4281 0.06278000   1.008000   ; qtot 0.757978
 4282         h1     99    ccc    H24   4282 0.06278000   1.008000   ; qtot 0.820758
 4283         oh     99    ccc     O7   4283 -0.59472000  16.000000   ; qtot 0.226038
 4284         ho     99    ccc    H25   4284 0.41908000   1.008000   ; qtot 0.645118
 4285         os     99    ccc     O8   4285 -0.44552000  16.000000   ; qtot 0.199598
 4286         ho     99    ccc    H26   4286 0.41908000   1.008000   ; qtot 0.618678
 4287         h1     99    ccc    H27   4287 0.08578000   1.008000   ; qtot 0.704458
 4288         oh     99    ccc     O9   4288 -0.58672000  16.000000   ; qtot 0.117738
 4289         ho     99    ccc    H28   4289 0.41908000   1.008000   ; qtot 0.536818
 4290         n3     99    ccc     N3   4290 -0.54282000  14.010000   ; qtot -0.006002
 4291         c3     99    ccc    C17   4291 0.08518000  12.010000   ; qtot 0.079178
 4292         c3     99    ccc    C18   4292 0.07918000  12.010000   ; qtot 0.158358
 4293         h1     99    ccc    H29   4293 0.06978000   1.008000   ; qtot 0.228138
 4294         c3     99    ccc    C19   4294 0.07918000  12.010000   ; qtot 0.307318
 4295         c3     99    ccc    C20   4295 0.03578000  12.010000   ; qtot 0.343098
 4296         c3     99    ccc    C21   4296 0.33498000  12.010000   ; qtot 0.678078
 4297         h1     99    ccc    H30   4297 0.06178000   1.008000   ; qtot 0.739858
 4298         h1     99    ccc    H31   4298 0.11278000   1.008000   ; qtot 0.852638
 4299         h2     99    ccc    H32   4299 0.12178000   1.008000   ; qtot 0.974418
 4300         oh     99    ccc    O10   4300 -0.56972000  16.000000   ; qtot 0.404698
 4301         oh     99    ccc    O11   4301 -0.57772000  16.000000   ; qtot -0.173022
 4302         c3     99    ccc    C22   4302 0.14548000  12.010000   ; qtot -0.027542
 4303         ho     99    ccc    H33   4303 0.40508000   1.008000   ; qtot 0.377538
 4304         hn     99    ccc    H34   4304 0.31758000   1.008000   ; qtot 0.695118
 4305         h1     99    ccc    H35   4305 0.06278000   1.008000   ; qtot 0.757898
 4306         h1     99    ccc    H36   4306 0.06278000   1.008000   ; qtot 0.820678
 4307         oh     99    ccc    O12   4307 -0.59472000  16.000000   ; qtot 0.225958
 4308         ho     99    ccc    H37   4308 0.41908000   1.008000   ; qtot 0.645038
 4309         os     99    ccc    O13   4309 -0.44552000  16.000000   ; qtot 0.199518
 4310         ho     99    ccc    H38   4310 0.41908000   1.008000   ; qtot 0.618598
 4311         h1     99    ccc    H39   4311 0.08578000   1.008000   ; qtot 0.704378
 4312         oh     99    ccc     O5   4312 -0.58672000  16.000000   ; qtot 0.117658
 4313         ho     99    ccc    H40   4313 0.41908000   1.008000   ; qtot 0.536738
 4314         n3     99    ccc     N4   4314 -0.54282000  14.010000   ; qtot -0.006082
; residue  100 ccc rtp ccc q -0.0
 4315          n    100    ccc     N1   4315 -0.46580000  14.010000   ; qtot -0.471882
 4316         hn    100    ccc     H4   4316 0.31480000   1.008000   ; qtot -0.157082
 4317         c3    100    ccc     C3   4317 -0.28250000  12.010000   ; qtot -0.439582
 4318         h1    100    ccc     H5   4318 0.15710000   1.008000   ; qtot -0.282482
 4319         c3    100    ccc     C4   4319 0.44180000  12.010000   ; qtot 0.159318
 4320         h1    100    ccc     H6   4320 0.15710000   1.008000   ; qtot 0.316418
 4321         h1    100    ccc     H7   4321 -0.03530000   1.008000   ; qtot 0.281118
 4322         h1    100    ccc     H8   4322 -0.03530000   1.008000   ; qtot 0.245818
 4323         n3    100    ccc     N2   4323 -0.74090000  14.010000   ; qtot -0.495082
 4324         c3    100    ccc     C5   4324 0.51680000  12.010000   ; qtot 0.021718
 4325         c3    100    ccc     C6   4325 0.51680000  12.010000   ; qtot 0.538518
 4326         h1    100    ccc     H9   4326 -0.05230000   1.008000   ; qtot 0.486218
 4327         c3    100    ccc     C7   4327 -0.60390000  12.010000   ; qtot -0.117682
 4328         h1    100    ccc    H10   4328 -0.05230000   1.008000   ; qtot -0.169982
 4329         hc    100    ccc    H11   4329 0.16730000   1.008000   ; qtot -0.002682
 4330         hc    100    ccc    H12   4330 0.16730000   1.008000   ; qtot 0.164618
 4331          c    100    ccc     C8   4331 0.72110000  12.010000   ; qtot 0.885718
 4332          o    100    ccc     O2   4332 -0.61950000  16.000000   ; qtot 0.266218
 4333         h1    100    ccc    H13   4333 -0.05230000   1.008000   ; qtot 0.213918
 4334         h1    100    ccc    H14   4334 -0.05230000   1.008000   ; qtot 0.161618
 4335         c3    100    ccc     C9   4335 -0.60390000  12.010000   ; qtot -0.442282
 4336         hc    100    ccc    H15   4336 0.16730000   1.008000   ; qtot -0.274982
 4337         hc    100    ccc    H16   4337 0.16730000   1.008000   ; qtot -0.107682
 4338          c    100    ccc    C10   4338 0.72110000  12.010000   ; qtot 0.613418
 4339          o    100    ccc     O4   4339 -0.61950000  16.000000   ; qtot -0.006082
 4340         c3    100    ccc    C11   4340 0.08518000  12.010000   ; qtot 0.079098
 4341         c3    100    ccc    C12   4341 0.07918000  12.010000   ; qtot 0.158278
 4342         h1    100    ccc    H17   4342 0.06978000   1.008000   ; qtot 0.228058
 4343         c3    100    ccc    C13   4343 0.07918000  12.010000   ; qtot 0.307238
 4344         c3    100    ccc    C14   4344 0.03578000  12.010000   ; qtot 0.343018
 4345         c3    100    ccc    C15   4345 0.33498000  12.010000   ; qtot 0.677998
 4346         h1    100    ccc    H18   4346 0.06178000   1.008000   ; qtot 0.739778
 4347         h1    100    ccc    H19   4347 0.11278000   1.008000   ; qtot 0.852558
 4348         h2    100    ccc    H20   4348 0.12178000   1.008000   ; qtot 0.974338
 4349         oh    100    ccc     O1   4349 -0.56972000  16.000000   ; qtot 0.404618
 4350         oh    100    ccc     O6   4350 -0.57772000  16.000000   ; qtot -0.173102
 4351         c3    100    ccc    C16   4351 0.14548000  12.010000   ; qtot -0.027622
 4352         ho    100    ccc    H21   4352 0.40508000   1.008000   ; qtot 0.377458
 4353         hn    100    ccc    H22   4353 0.31758000   1.008000   ; qtot 0.695038
 4354         h1    100    ccc    H23   4354 0.06278000   1.008000   ; qtot 0.757818
 4355         h1    100    ccc    H24   4355 0.06278000   1.008000   ; qtot 0.820598
 4356         oh    100    ccc     O7   4356 -0.59472000  16.000000   ; qtot 0.225878
 4357         ho    100    ccc    H25   4357 0.41908000   1.008000   ; qtot 0.644958
 4358         os    100    ccc     O8   4358 -0.44552000  16.000000   ; qtot 0.199438
 4359         ho    100    ccc    H26   4359 0.41908000   1.008000   ; qtot 0.618518
 4360         h1    100    ccc    H27   4360 0.08578000   1.008000   ; qtot 0.704298
 4361         oh    100    ccc     O9   4361 -0.58672000  16.000000   ; qtot 0.117578
 4362         ho    100    ccc    H28   4362 0.41908000   1.008000   ; qtot 0.536658
 4363         n3    100    ccc     N3   4363 -0.54282000  14.010000   ; qtot -0.006162
 4364         c3    100    ccc    C17   4364 0.08518000  12.010000   ; qtot 0.079018
 4365         c3    100    ccc    C18   4365 0.07918000  12.010000   ; qtot 0.158198
 4366         h1    100    ccc    H29   4366 0.06978000   1.008000   ; qtot 0.227978
 4367         c3    100    ccc    C19   4367 0.07918000  12.010000   ; qtot 0.307158
 4368         c3    100    ccc    C20   4368 0.03578000  12.010000   ; qtot 0.342938
 4369         c3    100    ccc    C21   4369 0.33498000  12.010000   ; qtot 0.677918
 4370         h1    100    ccc    H30   4370 0.06178000   1.008000   ; qtot 0.739698
 4371         h1    100    ccc    H31   4371 0.11278000   1.008000   ; qtot 0.852478
 4372         h2    100    ccc    H32   4372 0.12178000   1.008000   ; qtot 0.974258
 4373         oh    100    ccc    O10   4373 -0.56972000  16.000000   ; qtot 0.404538
 4374         oh    100    ccc    O11   4374 -0.57772000  16.000000   ; qtot -0.173182
 4375         c3    100    ccc    C22   4375 0.14548000  12.010000   ; qtot -0.027702
 4376         ho    100    ccc    H33   4376 0.40508000   1.008000   ; qtot 0.377378
 4377         hn    100    ccc    H34   4377 0.31758000   1.008000   ; qtot 0.694958
 4378         h1    100    ccc    H35   4378 0.06278000   1.008000   ; qtot 0.757738
 4379         h1    100    ccc    H36   4379 0.06278000   1.008000   ; qtot 0.820518
 4380         oh    100    ccc    O12   4380 -0.59472000  16.000000   ; qtot 0.225798
 4381         ho    100    ccc    H37   4381 0.41908000   1.008000   ; qtot 0.644878
 4382         os    100    ccc    O13   4382 -0.44552000  16.000000   ; qtot 0.199358
 4383         ho    100    ccc    H38   4383 0.41908000   1.008000   ; qtot 0.618438
 4384         h1    100    ccc    H39   4384 0.08578000   1.008000   ; qtot 0.704218
 4385         oh    100    ccc     O5   4385 -0.58672000  16.000000   ; qtot 0.117498
 4386         ho    100    ccc    H40   4386 0.41908000   1.008000   ; qtot 0.536578
 4387         n3    100    ccc     N4   4387 -0.54282000  14.010000   ; qtot -0.006242
; residue  101 ccc rtp ccc q -0.0
 4388          n    101    ccc     N1   4388 -0.46580000  14.010000   ; qtot -0.472042
 4389         hn    101    ccc     H4   4389 0.31480000   1.008000   ; qtot -0.157242
 4390         c3    101    ccc     C3   4390 -0.28250000  12.010000   ; qtot -0.439742
 4391         h1    101    ccc     H5   4391 0.15710000   1.008000   ; qtot -0.282642
 4392         c3    101    ccc     C4   4392 0.44180000  12.010000   ; qtot 0.159158
 4393         h1    101    ccc     H6   4393 0.15710000   1.008000   ; qtot 0.316258
 4394         h1    101    ccc     H7   4394 -0.03530000   1.008000   ; qtot 0.280958
 4395         h1    101    ccc     H8   4395 -0.03530000   1.008000   ; qtot 0.245658
 4396         n3    101    ccc     N2   4396 -0.74090000  14.010000   ; qtot -0.495242
 4397         c3    101    ccc     C5   4397 0.51680000  12.010000   ; qtot 0.021558
 4398         c3    101    ccc     C6   4398 0.51680000  12.010000   ; qtot 0.538358
 4399         h1    101    ccc     H9   4399 -0.05230000   1.008000   ; qtot 0.486058
 4400         c3    101    ccc     C7   4400 -0.60390000  12.010000   ; qtot -0.117842
 4401         h1    101    ccc    H10   4401 -0.05230000   1.008000   ; qtot -0.170142
 4402         hc    101    ccc    H11   4402 0.16730000   1.008000   ; qtot -0.002842
 4403         hc    101    ccc    H12   4403 0.16730000   1.008000   ; qtot 0.164458
 4404          c    101    ccc     C8   4404 0.72110000  12.010000   ; qtot 0.885558
 4405          o    101    ccc     O2   4405 -0.61950000  16.000000   ; qtot 0.266058
 4406         h1    101    ccc    H13   4406 -0.05230000   1.008000   ; qtot 0.213758
 4407         h1    101    ccc    H14   4407 -0.05230000   1.008000   ; qtot 0.161458
 4408         c3    101    ccc     C9   4408 -0.60390000  12.010000   ; qtot -0.442442
 4409         hc    101    ccc    H15   4409 0.16730000   1.008000   ; qtot -0.275142
 4410         hc    101    ccc    H16   4410 0.16730000   1.008000   ; qtot -0.107842
 4411          c    101    ccc    C10   4411 0.72110000  12.010000   ; qtot 0.613258
 4412          o    101    ccc     O4   4412 -0.61950000  16.000000   ; qtot -0.006242
 4413         c3    101    ccc    C11   4413 0.08518000  12.010000   ; qtot 0.078938
 4414         c3    101    ccc    C12   4414 0.07918000  12.010000   ; qtot 0.158118
 4415         h1    101    ccc    H17   4415 0.06978000   1.008000   ; qtot 0.227898
 4416         c3    101    ccc    C13   4416 0.07918000  12.010000   ; qtot 0.307078
 4417         c3    101    ccc    C14   4417 0.03578000  12.010000   ; qtot 0.342858
 4418         c3    101    ccc    C15   4418 0.33498000  12.010000   ; qtot 0.677838
 4419         h1    101    ccc    H18   4419 0.06178000   1.008000   ; qtot 0.739618
 4420         h1    101    ccc    H19   4420 0.11278000   1.008000   ; qtot 0.852398
 4421         h2    101    ccc    H20   4421 0.12178000   1.008000   ; qtot 0.974178
 4422         oh    101    ccc     O1   4422 -0.56972000  16.000000   ; qtot 0.404458
 4423         oh    101    ccc     O6   4423 -0.57772000  16.000000   ; qtot -0.173262
 4424         c3    101    ccc    C16   4424 0.14548000  12.010000   ; qtot -0.027782
 4425         ho    101    ccc    H21   4425 0.40508000   1.008000   ; qtot 0.377298
 4426         hn    101    ccc    H22   4426 0.31758000   1.008000   ; qtot 0.694878
 4427         h1    101    ccc    H23   4427 0.06278000   1.008000   ; qtot 0.757658
 4428         h1    101    ccc    H24   4428 0.06278000   1.008000   ; qtot 0.820438
 4429         oh    101    ccc     O7   4429 -0.59472000  16.000000   ; qtot 0.225718
 4430         ho    101    ccc    H25   4430 0.41908000   1.008000   ; qtot 0.644798
 4431         os    101    ccc     O8   4431 -0.44552000  16.000000   ; qtot 0.199278
 4432         ho    101    ccc    H26   4432 0.41908000   1.008000   ; qtot 0.618358
 4433         h1    101    ccc    H27   4433 0.08578000   1.008000   ; qtot 0.704138
 4434         oh    101    ccc     O9   4434 -0.58672000  16.000000   ; qtot 0.117418
 4435         ho    101    ccc    H28   4435 0.41908000   1.008000   ; qtot 0.536498
 4436         n3    101    ccc     N3   4436 -0.54282000  14.010000   ; qtot -0.006322
 4437         c3    101    ccc    C17   4437 0.08518000  12.010000   ; qtot 0.078858
 4438         c3    101    ccc    C18   4438 0.07918000  12.010000   ; qtot 0.158038
 4439         h1    101    ccc    H29   4439 0.06978000   1.008000   ; qtot 0.227818
 4440         c3    101    ccc    C19   4440 0.07918000  12.010000   ; qtot 0.306998
 4441         c3    101    ccc    C20   4441 0.03578000  12.010000   ; qtot 0.342778
 4442         c3    101    ccc    C21   4442 0.33498000  12.010000   ; qtot 0.677758
 4443         h1    101    ccc    H30   4443 0.06178000   1.008000   ; qtot 0.739538
 4444         h1    101    ccc    H31   4444 0.11278000   1.008000   ; qtot 0.852318
 4445         h2    101    ccc    H32   4445 0.12178000   1.008000   ; qtot 0.974098
 4446         oh    101    ccc    O10   4446 -0.56972000  16.000000   ; qtot 0.404378
 4447         oh    101    ccc    O11   4447 -0.57772000  16.000000   ; qtot -0.173342
 4448         c3    101    ccc    C22   4448 0.14548000  12.010000   ; qtot -0.027862
 4449         ho    101    ccc    H33   4449 0.40508000   1.008000   ; qtot 0.377218
 4450         hn    101    ccc    H34   4450 0.31758000   1.008000   ; qtot 0.694798
 4451         h1    101    ccc    H35   4451 0.06278000   1.008000   ; qtot 0.757578
 4452         h1    101    ccc    H36   4452 0.06278000   1.008000   ; qtot 0.820358
 4453         oh    101    ccc    O12   4453 -0.59472000  16.000000   ; qtot 0.225638
 4454         ho    101    ccc    H37   4454 0.41908000   1.008000   ; qtot 0.644718
 4455         os    101    ccc    O13   4455 -0.44552000  16.000000   ; qtot 0.199198
 4456         ho    101    ccc    H38   4456 0.41908000   1.008000   ; qtot 0.618278
 4457         h1    101    ccc    H39   4457 0.08578000   1.008000   ; qtot 0.704058
 4458         oh    101    ccc     O5   4458 -0.58672000  16.000000   ; qtot 0.117338
 4459         ho    101    ccc    H40   4459 0.41908000   1.008000   ; qtot 0.536418
 4460         n3    101    ccc     N4   4460 -0.54282000  14.010000   ; qtot -0.006402
; residue  102 ccc rtp ccc q -0.0
 4461          n    102    ccc     N1   4461 -0.46580000  14.010000   ; qtot -0.472202
 4462         hn    102    ccc     H4   4462 0.31480000   1.008000   ; qtot -0.157402
 4463         c3    102    ccc     C3   4463 -0.28250000  12.010000   ; qtot -0.439902
 4464         h1    102    ccc     H5   4464 0.15710000   1.008000   ; qtot -0.282802
 4465         c3    102    ccc     C4   4465 0.44180000  12.010000   ; qtot 0.158998
 4466         h1    102    ccc     H6   4466 0.15710000   1.008000   ; qtot 0.316098
 4467         h1    102    ccc     H7   4467 -0.03530000   1.008000   ; qtot 0.280798
 4468         h1    102    ccc     H8   4468 -0.03530000   1.008000   ; qtot 0.245498
 4469         n3    102    ccc     N2   4469 -0.74090000  14.010000   ; qtot -0.495402
 4470         c3    102    ccc     C5   4470 0.51680000  12.010000   ; qtot 0.021398
 4471         c3    102    ccc     C6   4471 0.51680000  12.010000   ; qtot 0.538198
 4472         h1    102    ccc     H9   4472 -0.05230000   1.008000   ; qtot 0.485898
 4473         c3    102    ccc     C7   4473 -0.60390000  12.010000   ; qtot -0.118002
 4474         h1    102    ccc    H10   4474 -0.05230000   1.008000   ; qtot -0.170302
 4475         hc    102    ccc    H11   4475 0.16730000   1.008000   ; qtot -0.003002
 4476         hc    102    ccc    H12   4476 0.16730000   1.008000   ; qtot 0.164298
 4477          c    102    ccc     C8   4477 0.72110000  12.010000   ; qtot 0.885398
 4478          o    102    ccc     O2   4478 -0.61950000  16.000000   ; qtot 0.265898
 4479         h1    102    ccc    H13   4479 -0.05230000   1.008000   ; qtot 0.213598
 4480         h1    102    ccc    H14   4480 -0.05230000   1.008000   ; qtot 0.161298
 4481         c3    102    ccc     C9   4481 -0.60390000  12.010000   ; qtot -0.442602
 4482         hc    102    ccc    H15   4482 0.16730000   1.008000   ; qtot -0.275302
 4483         hc    102    ccc    H16   4483 0.16730000   1.008000   ; qtot -0.108002
 4484          c    102    ccc    C10   4484 0.72110000  12.010000   ; qtot 0.613098
 4485          o    102    ccc     O4   4485 -0.61950000  16.000000   ; qtot -0.006402
 4486         c3    102    ccc    C11   4486 0.08518000  12.010000   ; qtot 0.078778
 4487         c3    102    ccc    C12   4487 0.07918000  12.010000   ; qtot 0.157958
 4488         h1    102    ccc    H17   4488 0.06978000   1.008000   ; qtot 0.227738
 4489         c3    102    ccc    C13   4489 0.07918000  12.010000   ; qtot 0.306918
 4490         c3    102    ccc    C14   4490 0.03578000  12.010000   ; qtot 0.342698
 4491         c3    102    ccc    C15   4491 0.33498000  12.010000   ; qtot 0.677678
 4492         h1    102    ccc    H18   4492 0.06178000   1.008000   ; qtot 0.739458
 4493         h1    102    ccc    H19   4493 0.11278000   1.008000   ; qtot 0.852238
 4494         h2    102    ccc    H20   4494 0.12178000   1.008000   ; qtot 0.974018
 4495         oh    102    ccc     O1   4495 -0.56972000  16.000000   ; qtot 0.404297
 4496         oh    102    ccc     O6   4496 -0.57772000  16.000000   ; qtot -0.173423
 4497         c3    102    ccc    C16   4497 0.14548000  12.010000   ; qtot -0.027943
 4498         ho    102    ccc    H21   4498 0.40508000   1.008000   ; qtot 0.377137
 4499         hn    102    ccc    H22   4499 0.31758000   1.008000   ; qtot 0.694717
 4500         h1    102    ccc    H23   4500 0.06278000   1.008000   ; qtot 0.757497
 4501         h1    102    ccc    H24   4501 0.06278000   1.008000   ; qtot 0.820277
 4502         oh    102    ccc     O7   4502 -0.59472000  16.000000   ; qtot 0.225557
 4503         ho    102    ccc    H25   4503 0.41908000   1.008000   ; qtot 0.644637
 4504         os    102    ccc     O8   4504 -0.44552000  16.000000   ; qtot 0.199117
 4505         ho    102    ccc    H26   4505 0.41908000   1.008000   ; qtot 0.618197
 4506         h1    102    ccc    H27   4506 0.08578000   1.008000   ; qtot 0.703977
 4507         oh    102    ccc     O9   4507 -0.58672000  16.000000   ; qtot 0.117257
 4508         ho    102    ccc    H28   4508 0.41908000   1.008000   ; qtot 0.536337
 4509         n3    102    ccc     N3   4509 -0.54282000  14.010000   ; qtot -0.006483
 4510         c3    102    ccc    C17   4510 0.08518000  12.010000   ; qtot 0.078697
 4511         c3    102    ccc    C18   4511 0.07918000  12.010000   ; qtot 0.157877
 4512         h1    102    ccc    H29   4512 0.06978000   1.008000   ; qtot 0.227657
 4513         c3    102    ccc    C19   4513 0.07918000  12.010000   ; qtot 0.306837
 4514         c3    102    ccc    C20   4514 0.03578000  12.010000   ; qtot 0.342617
 4515         c3    102    ccc    C21   4515 0.33498000  12.010000   ; qtot 0.677597
 4516         h1    102    ccc    H30   4516 0.06178000   1.008000   ; qtot 0.739377
 4517         h1    102    ccc    H31   4517 0.11278000   1.008000   ; qtot 0.852157
 4518         h2    102    ccc    H32   4518 0.12178000   1.008000   ; qtot 0.973937
 4519         oh    102    ccc    O10   4519 -0.56972000  16.000000   ; qtot 0.404217
 4520         oh    102    ccc    O11   4520 -0.57772000  16.000000   ; qtot -0.173503
 4521         c3    102    ccc    C22   4521 0.14548000  12.010000   ; qtot -0.028023
 4522         ho    102    ccc    H33   4522 0.40508000   1.008000   ; qtot 0.377057
 4523         hn    102    ccc    H34   4523 0.31758000   1.008000   ; qtot 0.694637
 4524         h1    102    ccc    H35   4524 0.06278000   1.008000   ; qtot 0.757417
 4525         h1    102    ccc    H36   4525 0.06278000   1.008000   ; qtot 0.820197
 4526         oh    102    ccc    O12   4526 -0.59472000  16.000000   ; qtot 0.225477
 4527         ho    102    ccc    H37   4527 0.41908000   1.008000   ; qtot 0.644557
 4528         os    102    ccc    O13   4528 -0.44552000  16.000000   ; qtot 0.199037
 4529         ho    102    ccc    H38   4529 0.41908000   1.008000   ; qtot 0.618117
 4530         h1    102    ccc    H39   4530 0.08578000   1.008000   ; qtot 0.703897
 4531         oh    102    ccc     O5   4531 -0.58672000  16.000000   ; qtot 0.117177
 4532         ho    102    ccc    H40   4532 0.41908000   1.008000   ; qtot 0.536257
 4533         n3    102    ccc     N4   4533 -0.54282000  14.010000   ; qtot -0.006563
; residue  103 ccc rtp ccc q -0.0
 4534          n    103    ccc     N1   4534 -0.46580000  14.010000   ; qtot -0.472363
 4535         hn    103    ccc     H4   4535 0.31480000   1.008000   ; qtot -0.157563
 4536         c3    103    ccc     C3   4536 -0.28250000  12.010000   ; qtot -0.440063
 4537         h1    103    ccc     H5   4537 0.15710000   1.008000   ; qtot -0.282963
 4538         c3    103    ccc     C4   4538 0.44180000  12.010000   ; qtot 0.158837
 4539         h1    103    ccc     H6   4539 0.15710000   1.008000   ; qtot 0.315937
 4540         h1    103    ccc     H7   4540 -0.03530000   1.008000   ; qtot 0.280637
 4541         h1    103    ccc     H8   4541 -0.03530000   1.008000   ; qtot 0.245337
 4542         n3    103    ccc     N2   4542 -0.74090000  14.010000   ; qtot -0.495563
 4543         c3    103    ccc     C5   4543 0.51680000  12.010000   ; qtot 0.021237
 4544         c3    103    ccc     C6   4544 0.51680000  12.010000   ; qtot 0.538037
 4545         h1    103    ccc     H9   4545 -0.05230000   1.008000   ; qtot 0.485737
 4546         c3    103    ccc     C7   4546 -0.60390000  12.010000   ; qtot -0.118163
 4547         h1    103    ccc    H10   4547 -0.05230000   1.008000   ; qtot -0.170463
 4548         hc    103    ccc    H11   4548 0.16730000   1.008000   ; qtot -0.003163
 4549         hc    103    ccc    H12   4549 0.16730000   1.008000   ; qtot 0.164137
 4550          c    103    ccc     C8   4550 0.72110000  12.010000   ; qtot 0.885237
 4551          o    103    ccc     O2   4551 -0.61950000  16.000000   ; qtot 0.265737
 4552         h1    103    ccc    H13   4552 -0.05230000   1.008000   ; qtot 0.213437
 4553         h1    103    ccc    H14   4553 -0.05230000   1.008000   ; qtot 0.161137
 4554         c3    103    ccc     C9   4554 -0.60390000  12.010000   ; qtot -0.442763
 4555         hc    103    ccc    H15   4555 0.16730000   1.008000   ; qtot -0.275463
 4556         hc    103    ccc    H16   4556 0.16730000   1.008000   ; qtot -0.108163
 4557          c    103    ccc    C10   4557 0.72110000  12.010000   ; qtot 0.612937
 4558          o    103    ccc     O4   4558 -0.61950000  16.000000   ; qtot -0.006563
 4559         c3    103    ccc    C11   4559 0.08518000  12.010000   ; qtot 0.078617
 4560         c3    103    ccc    C12   4560 0.07918000  12.010000   ; qtot 0.157797
 4561         h1    103    ccc    H17   4561 0.06978000   1.008000   ; qtot 0.227577
 4562         c3    103    ccc    C13   4562 0.07918000  12.010000   ; qtot 0.306757
 4563         c3    103    ccc    C14   4563 0.03578000  12.010000   ; qtot 0.342537
 4564         c3    103    ccc    C15   4564 0.33498000  12.010000   ; qtot 0.677517
 4565         h1    103    ccc    H18   4565 0.06178000   1.008000   ; qtot 0.739297
 4566         h1    103    ccc    H19   4566 0.11278000   1.008000   ; qtot 0.852077
 4567         h2    103    ccc    H20   4567 0.12178000   1.008000   ; qtot 0.973857
 4568         oh    103    ccc     O1   4568 -0.56972000  16.000000   ; qtot 0.404137
 4569         oh    103    ccc     O6   4569 -0.57772000  16.000000   ; qtot -0.173583
 4570         c3    103    ccc    C16   4570 0.14548000  12.010000   ; qtot -0.028103
 4571         ho    103    ccc    H21   4571 0.40508000   1.008000   ; qtot 0.376977
 4572         hn    103    ccc    H22   4572 0.31758000   1.008000   ; qtot 0.694557
 4573         h1    103    ccc    H23   4573 0.06278000   1.008000   ; qtot 0.757337
 4574         h1    103    ccc    H24   4574 0.06278000   1.008000   ; qtot 0.820117
 4575         oh    103    ccc     O7   4575 -0.59472000  16.000000   ; qtot 0.225397
 4576         ho    103    ccc    H25   4576 0.41908000   1.008000   ; qtot 0.644477
 4577         os    103    ccc     O8   4577 -0.44552000  16.000000   ; qtot 0.198957
 4578         ho    103    ccc    H26   4578 0.41908000   1.008000   ; qtot 0.618037
 4579         h1    103    ccc    H27   4579 0.08578000   1.008000   ; qtot 0.703817
 4580         oh    103    ccc     O9   4580 -0.58672000  16.000000   ; qtot 0.117097
 4581         ho    103    ccc    H28   4581 0.41908000   1.008000   ; qtot 0.536177
 4582         n3    103    ccc     N3   4582 -0.54282000  14.010000   ; qtot -0.006643
 4583         c3    103    ccc    C17   4583 0.08518000  12.010000   ; qtot 0.078537
 4584         c3    103    ccc    C18   4584 0.07918000  12.010000   ; qtot 0.157717
 4585         h1    103    ccc    H29   4585 0.06978000   1.008000   ; qtot 0.227497
 4586         c3    103    ccc    C19   4586 0.07918000  12.010000   ; qtot 0.306677
 4587         c3    103    ccc    C20   4587 0.03578000  12.010000   ; qtot 0.342457
 4588         c3    103    ccc    C21   4588 0.33498000  12.010000   ; qtot 0.677437
 4589         h1    103    ccc    H30   4589 0.06178000   1.008000   ; qtot 0.739217
 4590         h1    103    ccc    H31   4590 0.11278000   1.008000   ; qtot 0.851997
 4591         h2    103    ccc    H32   4591 0.12178000   1.008000   ; qtot 0.973777
 4592         oh    103    ccc    O10   4592 -0.56972000  16.000000   ; qtot 0.404057
 4593         oh    103    ccc    O11   4593 -0.57772000  16.000000   ; qtot -0.173663
 4594         c3    103    ccc    C22   4594 0.14548000  12.010000   ; qtot -0.028183
 4595         ho    103    ccc    H33   4595 0.40508000   1.008000   ; qtot 0.376897
 4596         hn    103    ccc    H34   4596 0.31758000   1.008000   ; qtot 0.694477
 4597         h1    103    ccc    H35   4597 0.06278000   1.008000   ; qtot 0.757257
 4598         h1    103    ccc    H36   4598 0.06278000   1.008000   ; qtot 0.820037
 4599         oh    103    ccc    O12   4599 -0.59472000  16.000000   ; qtot 0.225317
 4600         ho    103    ccc    H37   4600 0.41908000   1.008000   ; qtot 0.644397
 4601         os    103    ccc    O13   4601 -0.44552000  16.000000   ; qtot 0.198877
 4602         ho    103    ccc    H38   4602 0.41908000   1.008000   ; qtot 0.617957
 4603         h1    103    ccc    H39   4603 0.08578000   1.008000   ; qtot 0.703737
 4604         oh    103    ccc     O5   4604 -0.58672000  16.000000   ; qtot 0.117017
 4605         ho    103    ccc    H40   4605 0.41908000   1.008000   ; qtot 0.536097
 4606         n3    103    ccc     N4   4606 -0.54282000  14.010000   ; qtot -0.006723
; residue  104 ccc rtp ccc q -0.0
 4607          n    104    ccc     N1   4607 -0.46580000  14.010000   ; qtot -0.472523
 4608         hn    104    ccc     H4   4608 0.31480000   1.008000   ; qtot -0.157723
 4609         c3    104    ccc     C3   4609 -0.28250000  12.010000   ; qtot -0.440223
 4610         h1    104    ccc     H5   4610 0.15710000   1.008000   ; qtot -0.283123
 4611         c3    104    ccc     C4   4611 0.44180000  12.010000   ; qtot 0.158677
 4612         h1    104    ccc     H6   4612 0.15710000   1.008000   ; qtot 0.315777
 4613         h1    104    ccc     H7   4613 -0.03530000   1.008000   ; qtot 0.280477
 4614         h1    104    ccc     H8   4614 -0.03530000   1.008000   ; qtot 0.245177
 4615         n3    104    ccc     N2   4615 -0.74090000  14.010000   ; qtot -0.495723
 4616         c3    104    ccc     C5   4616 0.51680000  12.010000   ; qtot 0.021077
 4617         c3    104    ccc     C6   4617 0.51680000  12.010000   ; qtot 0.537877
 4618         h1    104    ccc     H9   4618 -0.05230000   1.008000   ; qtot 0.485577
 4619         c3    104    ccc     C7   4619 -0.60390000  12.010000   ; qtot -0.118323
 4620         h1    104    ccc    H10   4620 -0.05230000   1.008000   ; qtot -0.170623
 4621         hc    104    ccc    H11   4621 0.16730000   1.008000   ; qtot -0.003323
 4622         hc    104    ccc    H12   4622 0.16730000   1.008000   ; qtot 0.163977
 4623          c    104    ccc     C8   4623 0.72110000  12.010000   ; qtot 0.885077
 4624          o    104    ccc     O2   4624 -0.61950000  16.000000   ; qtot 0.265577
 4625         h1    104    ccc    H13   4625 -0.05230000   1.008000   ; qtot 0.213277
 4626         h1    104    ccc    H14   4626 -0.05230000   1.008000   ; qtot 0.160977
 4627         c3    104    ccc     C9   4627 -0.60390000  12.010000   ; qtot -0.442923
 4628         hc    104    ccc    H15   4628 0.16730000   1.008000   ; qtot -0.275623
 4629         hc    104    ccc    H16   4629 0.16730000   1.008000   ; qtot -0.108323
 4630          c    104    ccc    C10   4630 0.72110000  12.010000   ; qtot 0.612777
 4631          o    104    ccc     O4   4631 -0.61950000  16.000000   ; qtot -0.006723
 4632         c3    104    ccc    C11   4632 0.08518000  12.010000   ; qtot 0.078457
 4633         c3    104    ccc    C12   4633 0.07918000  12.010000   ; qtot 0.157637
 4634         h1    104    ccc    H17   4634 0.06978000   1.008000   ; qtot 0.227417
 4635         c3    104    ccc    C13   4635 0.07918000  12.010000   ; qtot 0.306597
 4636         c3    104    ccc    C14   4636 0.03578000  12.010000   ; qtot 0.342377
 4637         c3    104    ccc    C15   4637 0.33498000  12.010000   ; qtot 0.677357
 4638         h1    104    ccc    H18   4638 0.06178000   1.008000   ; qtot 0.739137
 4639         h1    104    ccc    H19   4639 0.11278000   1.008000   ; qtot 0.851917
 4640         h2    104    ccc    H20   4640 0.12178000   1.008000   ; qtot 0.973697
 4641         oh    104    ccc     O1   4641 -0.56972000  16.000000   ; qtot 0.403977
 4642         oh    104    ccc     O6   4642 -0.57772000  16.000000   ; qtot -0.173743
 4643         c3    104    ccc    C16   4643 0.14548000  12.010000   ; qtot -0.028263
 4644         ho    104    ccc    H21   4644 0.40508000   1.008000   ; qtot 0.376817
 4645         hn    104    ccc    H22   4645 0.31758000   1.008000   ; qtot 0.694397
 4646         h1    104    ccc    H23   4646 0.06278000   1.008000   ; qtot 0.757177
 4647         h1    104    ccc    H24   4647 0.06278000   1.008000   ; qtot 0.819957
 4648         oh    104    ccc     O7   4648 -0.59472000  16.000000   ; qtot 0.225237
 4649         ho    104    ccc    H25   4649 0.41908000   1.008000   ; qtot 0.644317
 4650         os    104    ccc     O8   4650 -0.44552000  16.000000   ; qtot 0.198797
 4651         ho    104    ccc    H26   4651 0.41908000   1.008000   ; qtot 0.617877
 4652         h1    104    ccc    H27   4652 0.08578000   1.008000   ; qtot 0.703657
 4653         oh    104    ccc     O9   4653 -0.58672000  16.000000   ; qtot 0.116937
 4654         ho    104    ccc    H28   4654 0.41908000   1.008000   ; qtot 0.536017
 4655         n3    104    ccc     N3   4655 -0.54282000  14.010000   ; qtot -0.006803
 4656         c3    104    ccc    C17   4656 0.08518000  12.010000   ; qtot 0.078377
 4657         c3    104    ccc    C18   4657 0.07918000  12.010000   ; qtot 0.157557
 4658         h1    104    ccc    H29   4658 0.06978000   1.008000   ; qtot 0.227337
 4659         c3    104    ccc    C19   4659 0.07918000  12.010000   ; qtot 0.306517
 4660         c3    104    ccc    C20   4660 0.03578000  12.010000   ; qtot 0.342297
 4661         c3    104    ccc    C21   4661 0.33498000  12.010000   ; qtot 0.677277
 4662         h1    104    ccc    H30   4662 0.06178000   1.008000   ; qtot 0.739057
 4663         h1    104    ccc    H31   4663 0.11278000   1.008000   ; qtot 0.851837
 4664         h2    104    ccc    H32   4664 0.12178000   1.008000   ; qtot 0.973617
 4665         oh    104    ccc    O10   4665 -0.56972000  16.000000   ; qtot 0.403897
 4666         oh    104    ccc    O11   4666 -0.57772000  16.000000   ; qtot -0.173823
 4667         c3    104    ccc    C22   4667 0.14548000  12.010000   ; qtot -0.028343
 4668         ho    104    ccc    H33   4668 0.40508000   1.008000   ; qtot 0.376737
 4669         hn    104    ccc    H34   4669 0.31758000   1.008000   ; qtot 0.694317
 4670         h1    104    ccc    H35   4670 0.06278000   1.008000   ; qtot 0.757097
 4671         h1    104    ccc    H36   4671 0.06278000   1.008000   ; qtot 0.819877
 4672         oh    104    ccc    O12   4672 -0.59472000  16.000000   ; qtot 0.225157
 4673         ho    104    ccc    H37   4673 0.41908000   1.008000   ; qtot 0.644237
 4674         os    104    ccc    O13   4674 -0.44552000  16.000000   ; qtot 0.198717
 4675         ho    104    ccc    H38   4675 0.41908000   1.008000   ; qtot 0.617797
 4676         h1    104    ccc    H39   4676 0.08578000   1.008000   ; qtot 0.703577
 4677         oh    104    ccc     O5   4677 -0.58672000  16.000000   ; qtot 0.116857
 4678         ho    104    ccc    H40   4678 0.41908000   1.008000   ; qtot 0.535937
 4679         n3    104    ccc     N4   4679 -0.54282000  14.010000   ; qtot -0.006883
; residue  105 ccc rtp ccc q -0.0
 4680          n    105    ccc     N1   4680 -0.46580000  14.010000   ; qtot -0.472683
 4681         hn    105    ccc     H4   4681 0.31480000   1.008000   ; qtot -0.157883
 4682         c3    105    ccc     C3   4682 -0.28250000  12.010000   ; qtot -0.440383
 4683         h1    105    ccc     H5   4683 0.15710000   1.008000   ; qtot -0.283283
 4684         c3    105    ccc     C4   4684 0.44180000  12.010000   ; qtot 0.158517
 4685         h1    105    ccc     H6   4685 0.15710000   1.008000   ; qtot 0.315617
 4686         h1    105    ccc     H7   4686 -0.03530000   1.008000   ; qtot 0.280317
 4687         h1    105    ccc     H8   4687 -0.03530000   1.008000   ; qtot 0.245017
 4688         n3    105    ccc     N2   4688 -0.74090000  14.010000   ; qtot -0.495883
 4689         c3    105    ccc     C5   4689 0.51680000  12.010000   ; qtot 0.020917
 4690         c3    105    ccc     C6   4690 0.51680000  12.010000   ; qtot 0.537717
 4691         h1    105    ccc     H9   4691 -0.05230000   1.008000   ; qtot 0.485417
 4692         c3    105    ccc     C7   4692 -0.60390000  12.010000   ; qtot -0.118483
 4693         h1    105    ccc    H10   4693 -0.05230000   1.008000   ; qtot -0.170783
 4694         hc    105    ccc    H11   4694 0.16730000   1.008000   ; qtot -0.003483
 4695         hc    105    ccc    H12   4695 0.16730000   1.008000   ; qtot 0.163817
 4696          c    105    ccc     C8   4696 0.72110000  12.010000   ; qtot 0.884917
 4697          o    105    ccc     O2   4697 -0.61950000  16.000000   ; qtot 0.265417
 4698         h1    105    ccc    H13   4698 -0.05230000   1.008000   ; qtot 0.213117
 4699         h1    105    ccc    H14   4699 -0.05230000   1.008000   ; qtot 0.160817
 4700         c3    105    ccc     C9   4700 -0.60390000  12.010000   ; qtot -0.443083
 4701         hc    105    ccc    H15   4701 0.16730000   1.008000   ; qtot -0.275783
 4702         hc    105    ccc    H16   4702 0.16730000   1.008000   ; qtot -0.108483
 4703          c    105    ccc    C10   4703 0.72110000  12.010000   ; qtot 0.612617
 4704          o    105    ccc     O4   4704 -0.61950000  16.000000   ; qtot -0.006883
 4705         c3    105    ccc    C11   4705 0.08518000  12.010000   ; qtot 0.078297
 4706         c3    105    ccc    C12   4706 0.07918000  12.010000   ; qtot 0.157477
 4707         h1    105    ccc    H17   4707 0.06978000   1.008000   ; qtot 0.227257
 4708         c3    105    ccc    C13   4708 0.07918000  12.010000   ; qtot 0.306437
 4709         c3    105    ccc    C14   4709 0.03578000  12.010000   ; qtot 0.342217
 4710         c3    105    ccc    C15   4710 0.33498000  12.010000   ; qtot 0.677197
 4711         h1    105    ccc    H18   4711 0.06178000   1.008000   ; qtot 0.738977
 4712         h1    105    ccc    H19   4712 0.11278000   1.008000   ; qtot 0.851757
 4713         h2    105    ccc    H20   4713 0.12178000   1.008000   ; qtot 0.973537
 4714         oh    105    ccc     O1   4714 -0.56972000  16.000000   ; qtot 0.403817
 4715         oh    105    ccc     O6   4715 -0.57772000  16.000000   ; qtot -0.173903
 4716         c3    105    ccc    C16   4716 0.14548000  12.010000   ; qtot -0.028423
 4717         ho    105    ccc    H21   4717 0.40508000   1.008000   ; qtot 0.376657
 4718         hn    105    ccc    H22   4718 0.31758000   1.008000   ; qtot 0.694237
 4719         h1    105    ccc    H23   4719 0.06278000   1.008000   ; qtot 0.757017
 4720         h1    105    ccc    H24   4720 0.06278000   1.008000   ; qtot 0.819797
 4721         oh    105    ccc     O7   4721 -0.59472000  16.000000   ; qtot 0.225077
 4722         ho    105    ccc    H25   4722 0.41908000   1.008000   ; qtot 0.644157
 4723         os    105    ccc     O8   4723 -0.44552000  16.000000   ; qtot 0.198637
 4724         ho    105    ccc    H26   4724 0.41908000   1.008000   ; qtot 0.617717
 4725         h1    105    ccc    H27   4725 0.08578000   1.008000   ; qtot 0.703497
 4726         oh    105    ccc     O9   4726 -0.58672000  16.000000   ; qtot 0.116777
 4727         ho    105    ccc    H28   4727 0.41908000   1.008000   ; qtot 0.535857
 4728         n3    105    ccc     N3   4728 -0.54282000  14.010000   ; qtot -0.006963
 4729         c3    105    ccc    C17   4729 0.08518000  12.010000   ; qtot 0.078217
 4730         c3    105    ccc    C18   4730 0.07918000  12.010000   ; qtot 0.157397
 4731         h1    105    ccc    H29   4731 0.06978000   1.008000   ; qtot 0.227177
 4732         c3    105    ccc    C19   4732 0.07918000  12.010000   ; qtot 0.306357
 4733         c3    105    ccc    C20   4733 0.03578000  12.010000   ; qtot 0.342137
 4734         c3    105    ccc    C21   4734 0.33498000  12.010000   ; qtot 0.677117
 4735         h1    105    ccc    H30   4735 0.06178000   1.008000   ; qtot 0.738897
 4736         h1    105    ccc    H31   4736 0.11278000   1.008000   ; qtot 0.851677
 4737         h2    105    ccc    H32   4737 0.12178000   1.008000   ; qtot 0.973457
 4738         oh    105    ccc    O10   4738 -0.56972000  16.000000   ; qtot 0.403737
 4739         oh    105    ccc    O11   4739 -0.57772000  16.000000   ; qtot -0.173983
 4740         c3    105    ccc    C22   4740 0.14548000  12.010000   ; qtot -0.028503
 4741         ho    105    ccc    H33   4741 0.40508000   1.008000   ; qtot 0.376577
 4742         hn    105    ccc    H34   4742 0.31758000   1.008000   ; qtot 0.694157
 4743         h1    105    ccc    H35   4743 0.06278000   1.008000   ; qtot 0.756937
 4744         h1    105    ccc    H36   4744 0.06278000   1.008000   ; qtot 0.819717
 4745         oh    105    ccc    O12   4745 -0.59472000  16.000000   ; qtot 0.224997
 4746         ho    105    ccc    H37   4746 0.41908000   1.008000   ; qtot 0.644077
 4747         os    105    ccc    O13   4747 -0.44552000  16.000000   ; qtot 0.198557
 4748         ho    105    ccc    H38   4748 0.41908000   1.008000   ; qtot 0.617637
 4749         h1    105    ccc    H39   4749 0.08578000   1.008000   ; qtot 0.703417
 4750         oh    105    ccc     O5   4750 -0.58672000  16.000000   ; qtot 0.116697
 4751         ho    105    ccc    H40   4751 0.41908000   1.008000   ; qtot 0.535777
 4752         n3    105    ccc     N4   4752 -0.54282000  14.010000   ; qtot -0.007043
; residue  106 ccc rtp ccc q -0.0
 4753          n    106    ccc     N1   4753 -0.46580000  14.010000   ; qtot -0.472843
 4754         hn    106    ccc     H4   4754 0.31480000   1.008000   ; qtot -0.158043
 4755         c3    106    ccc     C3   4755 -0.28250000  12.010000   ; qtot -0.440543
 4756         h1    106    ccc     H5   4756 0.15710000   1.008000   ; qtot -0.283443
 4757         c3    106    ccc     C4   4757 0.44180000  12.010000   ; qtot 0.158357
 4758         h1    106    ccc     H6   4758 0.15710000   1.008000   ; qtot 0.315457
 4759         h1    106    ccc     H7   4759 -0.03530000   1.008000   ; qtot 0.280157
 4760         h1    106    ccc     H8   4760 -0.03530000   1.008000   ; qtot 0.244857
 4761         n3    106    ccc     N2   4761 -0.74090000  14.010000   ; qtot -0.496043
 4762         c3    106    ccc     C5   4762 0.51680000  12.010000   ; qtot 0.020757
 4763         c3    106    ccc     C6   4763 0.51680000  12.010000   ; qtot 0.537557
 4764         h1    106    ccc     H9   4764 -0.05230000   1.008000   ; qtot 0.485257
 4765         c3    106    ccc     C7   4765 -0.60390000  12.010000   ; qtot -0.118643
 4766         h1    106    ccc    H10   4766 -0.05230000   1.008000   ; qtot -0.170943
 4767         hc    106    ccc    H11   4767 0.16730000   1.008000   ; qtot -0.003643
 4768         hc    106    ccc    H12   4768 0.16730000   1.008000   ; qtot 0.163657
 4769          c    106    ccc     C8   4769 0.72110000  12.010000   ; qtot 0.884757
 4770          o    106    ccc     O2   4770 -0.61950000  16.000000   ; qtot 0.265257
 4771         h1    106    ccc    H13   4771 -0.05230000   1.008000   ; qtot 0.212957
 4772         h1    106    ccc    H14   4772 -0.05230000   1.008000   ; qtot 0.160657
 4773         c3    106    ccc     C9   4773 -0.60390000  12.010000   ; qtot -0.443243
 4774         hc    106    ccc    H15   4774 0.16730000   1.008000   ; qtot -0.275943
 4775         hc    106    ccc    H16   4775 0.16730000   1.008000   ; qtot -0.108643
 4776          c    106    ccc    C10   4776 0.72110000  12.010000   ; qtot 0.612457
 4777          o    106    ccc     O4   4777 -0.61950000  16.000000   ; qtot -0.007043
 4778         c3    106    ccc    C11   4778 0.08518000  12.010000   ; qtot 0.078137
 4779         c3    106    ccc    C12   4779 0.07918000  12.010000   ; qtot 0.157317
 4780         h1    106    ccc    H17   4780 0.06978000   1.008000   ; qtot 0.227097
 4781         c3    106    ccc    C13   4781 0.07918000  12.010000   ; qtot 0.306277
 4782         c3    106    ccc    C14   4782 0.03578000  12.010000   ; qtot 0.342057
 4783         c3    106    ccc    C15   4783 0.33498000  12.010000   ; qtot 0.677037
 4784         h1    106    ccc    H18   4784 0.06178000   1.008000   ; qtot 0.738817
 4785         h1    106    ccc    H19   4785 0.11278000   1.008000   ; qtot 0.851597
 4786         h2    106    ccc    H20   4786 0.12178000   1.008000   ; qtot 0.973377
 4787         oh    106    ccc     O1   4787 -0.56972000  16.000000   ; qtot 0.403657
 4788         oh    106    ccc     O6   4788 -0.57772000  16.000000   ; qtot -0.174063
 4789         c3    106    ccc    C16   4789 0.14548000  12.010000   ; qtot -0.028583
 4790         ho    106    ccc    H21   4790 0.40508000   1.008000   ; qtot 0.376497
 4791         hn    106    ccc    H22   4791 0.31758000   1.008000   ; qtot 0.694077
 4792         h1    106    ccc    H23   4792 0.06278000   1.008000   ; qtot 0.756857
 4793         h1    106    ccc    H24   4793 0.06278000   1.008000   ; qtot 0.819637
 4794         oh    106    ccc     O7   4794 -0.59472000  16.000000   ; qtot 0.224917
 4795         ho    106    ccc    H25   4795 0.41908000   1.008000   ; qtot 0.643997
 4796         os    106    ccc     O8   4796 -0.44552000  16.000000   ; qtot 0.198477
 4797         ho    106    ccc    H26   4797 0.41908000   1.008000   ; qtot 0.617557
 4798         h1    106    ccc    H27   4798 0.08578000   1.008000   ; qtot 0.703337
 4799         oh    106    ccc     O9   4799 -0.58672000  16.000000   ; qtot 0.116617
 4800         ho    106    ccc    H28   4800 0.41908000   1.008000   ; qtot 0.535697
 4801         n3    106    ccc     N3   4801 -0.54282000  14.010000   ; qtot -0.007123
 4802         c3    106    ccc    C17   4802 0.08518000  12.010000   ; qtot 0.078057
 4803         c3    106    ccc    C18   4803 0.07918000  12.010000   ; qtot 0.157237
 4804         h1    106    ccc    H29   4804 0.06978000   1.008000   ; qtot 0.227017
 4805         c3    106    ccc    C19   4805 0.07918000  12.010000   ; qtot 0.306197
 4806         c3    106    ccc    C20   4806 0.03578000  12.010000   ; qtot 0.341977
 4807         c3    106    ccc    C21   4807 0.33498000  12.010000   ; qtot 0.676957
 4808         h1    106    ccc    H30   4808 0.06178000   1.008000   ; qtot 0.738737
 4809         h1    106    ccc    H31   4809 0.11278000   1.008000   ; qtot 0.851517
 4810         h2    106    ccc    H32   4810 0.12178000   1.008000   ; qtot 0.973297
 4811         oh    106    ccc    O10   4811 -0.56972000  16.000000   ; qtot 0.403577
 4812         oh    106    ccc    O11   4812 -0.57772000  16.000000   ; qtot -0.174143
 4813         c3    106    ccc    C22   4813 0.14548000  12.010000   ; qtot -0.028663
 4814         ho    106    ccc    H33   4814 0.40508000   1.008000   ; qtot 0.376417
 4815         hn    106    ccc    H34   4815 0.31758000   1.008000   ; qtot 0.693997
 4816         h1    106    ccc    H35   4816 0.06278000   1.008000   ; qtot 0.756777
 4817         h1    106    ccc    H36   4817 0.06278000   1.008000   ; qtot 0.819557
 4818         oh    106    ccc    O12   4818 -0.59472000  16.000000   ; qtot 0.224837
 4819         ho    106    ccc    H37   4819 0.41908000   1.008000   ; qtot 0.643917
 4820         os    106    ccc    O13   4820 -0.44552000  16.000000   ; qtot 0.198397
 4821         ho    106    ccc    H38   4821 0.41908000   1.008000   ; qtot 0.617477
 4822         h1    106    ccc    H39   4822 0.08578000   1.008000   ; qtot 0.703257
 4823         oh    106    ccc     O5   4823 -0.58672000  16.000000   ; qtot 0.116537
 4824         ho    106    ccc    H40   4824 0.41908000   1.008000   ; qtot 0.535617
 4825         n3    106    ccc     N4   4825 -0.54282000  14.010000   ; qtot -0.007203
; residue  107 ccc rtp ccc q -0.0
 4826          n    107    ccc     N1   4826 -0.46580000  14.010000   ; qtot -0.473003
 4827         hn    107    ccc     H4   4827 0.31480000   1.008000   ; qtot -0.158203
 4828         c3    107    ccc     C3   4828 -0.28250000  12.010000   ; qtot -0.440703
 4829         h1    107    ccc     H5   4829 0.15710000   1.008000   ; qtot -0.283603
 4830         c3    107    ccc     C4   4830 0.44180000  12.010000   ; qtot 0.158197
 4831         h1    107    ccc     H6   4831 0.15710000   1.008000   ; qtot 0.315297
 4832         h1    107    ccc     H7   4832 -0.03530000   1.008000   ; qtot 0.279997
 4833         h1    107    ccc     H8   4833 -0.03530000   1.008000   ; qtot 0.244697
 4834         n3    107    ccc     N2   4834 -0.74090000  14.010000   ; qtot -0.496203
 4835         c3    107    ccc     C5   4835 0.51680000  12.010000   ; qtot 0.020597
 4836         c3    107    ccc     C6   4836 0.51680000  12.010000   ; qtot 0.537397
 4837         h1    107    ccc     H9   4837 -0.05230000   1.008000   ; qtot 0.485097
 4838         c3    107    ccc     C7   4838 -0.60390000  12.010000   ; qtot -0.118803
 4839         h1    107    ccc    H10   4839 -0.05230000   1.008000   ; qtot -0.171103
 4840         hc    107    ccc    H11   4840 0.16730000   1.008000   ; qtot -0.003803
 4841         hc    107    ccc    H12   4841 0.16730000   1.008000   ; qtot 0.163497
 4842          c    107    ccc     C8   4842 0.72110000  12.010000   ; qtot 0.884597
 4843          o    107    ccc     O2   4843 -0.61950000  16.000000   ; qtot 0.265097
 4844         h1    107    ccc    H13   4844 -0.05230000   1.008000   ; qtot 0.212797
 4845         h1    107    ccc    H14   4845 -0.05230000   1.008000   ; qtot 0.160497
 4846         c3    107    ccc     C9   4846 -0.60390000  12.010000   ; qtot -0.443403
 4847         hc    107    ccc    H15   4847 0.16730000   1.008000   ; qtot -0.276103
 4848         hc    107    ccc    H16   4848 0.16730000   1.008000   ; qtot -0.108803
 4849          c    107    ccc    C10   4849 0.72110000  12.010000   ; qtot 0.612297
 4850          o    107    ccc     O4   4850 -0.61950000  16.000000   ; qtot -0.007203
 4851         c3    107    ccc    C11   4851 0.08518000  12.010000   ; qtot 0.077977
 4852         c3    107    ccc    C12   4852 0.07918000  12.010000   ; qtot 0.157157
 4853         h1    107    ccc    H17   4853 0.06978000   1.008000   ; qtot 0.226937
 4854         c3    107    ccc    C13   4854 0.07918000  12.010000   ; qtot 0.306117
 4855         c3    107    ccc    C14   4855 0.03578000  12.010000   ; qtot 0.341897
 4856         c3    107    ccc    C15   4856 0.33498000  12.010000   ; qtot 0.676877
 4857         h1    107    ccc    H18   4857 0.06178000   1.008000   ; qtot 0.738657
 4858         h1    107    ccc    H19   4858 0.11278000   1.008000   ; qtot 0.851437
 4859         h2    107    ccc    H20   4859 0.12178000   1.008000   ; qtot 0.973217
 4860         oh    107    ccc     O1   4860 -0.56972000  16.000000   ; qtot 0.403497
 4861         oh    107    ccc     O6   4861 -0.57772000  16.000000   ; qtot -0.174223
 4862         c3    107    ccc    C16   4862 0.14548000  12.010000   ; qtot -0.028743
 4863         ho    107    ccc    H21   4863 0.40508000   1.008000   ; qtot 0.376337
 4864         hn    107    ccc    H22   4864 0.31758000   1.008000   ; qtot 0.693917
 4865         h1    107    ccc    H23   4865 0.06278000   1.008000   ; qtot 0.756697
 4866         h1    107    ccc    H24   4866 0.06278000   1.008000   ; qtot 0.819477
 4867         oh    107    ccc     O7   4867 -0.59472000  16.000000   ; qtot 0.224757
 4868         ho    107    ccc    H25   4868 0.41908000   1.008000   ; qtot 0.643837
 4869         os    107    ccc     O8   4869 -0.44552000  16.000000   ; qtot 0.198317
 4870         ho    107    ccc    H26   4870 0.41908000   1.008000   ; qtot 0.617397
 4871         h1    107    ccc    H27   4871 0.08578000   1.008000   ; qtot 0.703177
 4872         oh    107    ccc     O9   4872 -0.58672000  16.000000   ; qtot 0.116457
 4873         ho    107    ccc    H28   4873 0.41908000   1.008000   ; qtot 0.535537
 4874         n3    107    ccc     N3   4874 -0.54282000  14.010000   ; qtot -0.007283
 4875         c3    107    ccc    C17   4875 0.08518000  12.010000   ; qtot 0.077897
 4876         c3    107    ccc    C18   4876 0.07918000  12.010000   ; qtot 0.157077
 4877         h1    107    ccc    H29   4877 0.06978000   1.008000   ; qtot 0.226857
 4878         c3    107    ccc    C19   4878 0.07918000  12.010000   ; qtot 0.306037
 4879         c3    107    ccc    C20   4879 0.03578000  12.010000   ; qtot 0.341817
 4880         c3    107    ccc    C21   4880 0.33498000  12.010000   ; qtot 0.676797
 4881         h1    107    ccc    H30   4881 0.06178000   1.008000   ; qtot 0.738577
 4882         h1    107    ccc    H31   4882 0.11278000   1.008000   ; qtot 0.851357
 4883         h2    107    ccc    H32   4883 0.12178000   1.008000   ; qtot 0.973137
 4884         oh    107    ccc    O10   4884 -0.56972000  16.000000   ; qtot 0.403417
 4885         oh    107    ccc    O11   4885 -0.57772000  16.000000   ; qtot -0.174303
 4886         c3    107    ccc    C22   4886 0.14548000  12.010000   ; qtot -0.028823
 4887         ho    107    ccc    H33   4887 0.40508000   1.008000   ; qtot 0.376257
 4888         hn    107    ccc    H34   4888 0.31758000   1.008000   ; qtot 0.693837
 4889         h1    107    ccc    H35   4889 0.06278000   1.008000   ; qtot 0.756617
 4890         h1    107    ccc    H36   4890 0.06278000   1.008000   ; qtot 0.819397
 4891         oh    107    ccc    O12   4891 -0.59472000  16.000000   ; qtot 0.224677
 4892         ho    107    ccc    H37   4892 0.41908000   1.008000   ; qtot 0.643757
 4893         os    107    ccc    O13   4893 -0.44552000  16.000000   ; qtot 0.198237
 4894         ho    107    ccc    H38   4894 0.41908000   1.008000   ; qtot 0.617317
 4895         h1    107    ccc    H39   4895 0.08578000   1.008000   ; qtot 0.703097
 4896         oh    107    ccc     O5   4896 -0.58672000  16.000000   ; qtot 0.116377
 4897         ho    107    ccc    H40   4897 0.41908000   1.008000   ; qtot 0.535457
 4898         n3    107    ccc     N4   4898 -0.54282000  14.010000   ; qtot -0.007363
; residue  108 ccc rtp ccc q -0.0
 4899          n    108    ccc     N1   4899 -0.46580000  14.010000   ; qtot -0.473163
 4900         hn    108    ccc     H4   4900 0.31480000   1.008000   ; qtot -0.158363
 4901         c3    108    ccc     C3   4901 -0.28250000  12.010000   ; qtot -0.440863
 4902         h1    108    ccc     H5   4902 0.15710000   1.008000   ; qtot -0.283763
 4903         c3    108    ccc     C4   4903 0.44180000  12.010000   ; qtot 0.158037
 4904         h1    108    ccc     H6   4904 0.15710000   1.008000   ; qtot 0.315137
 4905         h1    108    ccc     H7   4905 -0.03530000   1.008000   ; qtot 0.279837
 4906         h1    108    ccc     H8   4906 -0.03530000   1.008000   ; qtot 0.244537
 4907         n3    108    ccc     N2   4907 -0.74090000  14.010000   ; qtot -0.496363
 4908         c3    108    ccc     C5   4908 0.51680000  12.010000   ; qtot 0.020437
 4909         c3    108    ccc     C6   4909 0.51680000  12.010000   ; qtot 0.537237
 4910         h1    108    ccc     H9   4910 -0.05230000   1.008000   ; qtot 0.484937
 4911         c3    108    ccc     C7   4911 -0.60390000  12.010000   ; qtot -0.118963
 4912         h1    108    ccc    H10   4912 -0.05230000   1.008000   ; qtot -0.171263
 4913         hc    108    ccc    H11   4913 0.16730000   1.008000   ; qtot -0.003963
 4914         hc    108    ccc    H12   4914 0.16730000   1.008000   ; qtot 0.163337
 4915          c    108    ccc     C8   4915 0.72110000  12.010000   ; qtot 0.884437
 4916          o    108    ccc     O2   4916 -0.61950000  16.000000   ; qtot 0.264937
 4917         h1    108    ccc    H13   4917 -0.05230000   1.008000   ; qtot 0.212637
 4918         h1    108    ccc    H14   4918 -0.05230000   1.008000   ; qtot 0.160337
 4919         c3    108    ccc     C9   4919 -0.60390000  12.010000   ; qtot -0.443563
 4920         hc    108    ccc    H15   4920 0.16730000   1.008000   ; qtot -0.276263
 4921         hc    108    ccc    H16   4921 0.16730000   1.008000   ; qtot -0.108963
 4922          c    108    ccc    C10   4922 0.72110000  12.010000   ; qtot 0.612137
 4923          o    108    ccc     O4   4923 -0.61950000  16.000000   ; qtot -0.007363
 4924         c3    108    ccc    C11   4924 0.08518000  12.010000   ; qtot 0.077817
 4925         c3    108    ccc    C12   4925 0.07918000  12.010000   ; qtot 0.156997
 4926         h1    108    ccc    H17   4926 0.06978000   1.008000   ; qtot 0.226777
 4927         c3    108    ccc    C13   4927 0.07918000  12.010000   ; qtot 0.305957
 4928         c3    108    ccc    C14   4928 0.03578000  12.010000   ; qtot 0.341737
 4929         c3    108    ccc    C15   4929 0.33498000  12.010000   ; qtot 0.676717
 4930         h1    108    ccc    H18   4930 0.06178000   1.008000   ; qtot 0.738497
 4931         h1    108    ccc    H19   4931 0.11278000   1.008000   ; qtot 0.851277
 4932         h2    108    ccc    H20   4932 0.12178000   1.008000   ; qtot 0.973057
 4933         oh    108    ccc     O1   4933 -0.56972000  16.000000   ; qtot 0.403337
 4934         oh    108    ccc     O6   4934 -0.57772000  16.000000   ; qtot -0.174383
 4935         c3    108    ccc    C16   4935 0.14548000  12.010000   ; qtot -0.028903
 4936         ho    108    ccc    H21   4936 0.40508000   1.008000   ; qtot 0.376177
 4937         hn    108    ccc    H22   4937 0.31758000   1.008000   ; qtot 0.693757
 4938         h1    108    ccc    H23   4938 0.06278000   1.008000   ; qtot 0.756537
 4939         h1    108    ccc    H24   4939 0.06278000   1.008000   ; qtot 0.819317
 4940         oh    108    ccc     O7   4940 -0.59472000  16.000000   ; qtot 0.224597
 4941         ho    108    ccc    H25   4941 0.41908000   1.008000   ; qtot 0.643677
 4942         os    108    ccc     O8   4942 -0.44552000  16.000000   ; qtot 0.198157
 4943         ho    108    ccc    H26   4943 0.41908000   1.008000   ; qtot 0.617237
 4944         h1    108    ccc    H27   4944 0.08578000   1.008000   ; qtot 0.703017
 4945         oh    108    ccc     O9   4945 -0.58672000  16.000000   ; qtot 0.116297
 4946         ho    108    ccc    H28   4946 0.41908000   1.008000   ; qtot 0.535377
 4947         n3    108    ccc     N3   4947 -0.54282000  14.010000   ; qtot -0.007443
 4948         c3    108    ccc    C17   4948 0.08518000  12.010000   ; qtot 0.077737
 4949         c3    108    ccc    C18   4949 0.07918000  12.010000   ; qtot 0.156917
 4950         h1    108    ccc    H29   4950 0.06978000   1.008000   ; qtot 0.226697
 4951         c3    108    ccc    C19   4951 0.07918000  12.010000   ; qtot 0.305877
 4952         c3    108    ccc    C20   4952 0.03578000  12.010000   ; qtot 0.341657
 4953         c3    108    ccc    C21   4953 0.33498000  12.010000   ; qtot 0.676637
 4954         h1    108    ccc    H30   4954 0.06178000   1.008000   ; qtot 0.738417
 4955         h1    108    ccc    H31   4955 0.11278000   1.008000   ; qtot 0.851197
 4956         h2    108    ccc    H32   4956 0.12178000   1.008000   ; qtot 0.972977
 4957         oh    108    ccc    O10   4957 -0.56972000  16.000000   ; qtot 0.403257
 4958         oh    108    ccc    O11   4958 -0.57772000  16.000000   ; qtot -0.174463
 4959         c3    108    ccc    C22   4959 0.14548000  12.010000   ; qtot -0.028983
 4960         ho    108    ccc    H33   4960 0.40508000   1.008000   ; qtot 0.376097
 4961         hn    108    ccc    H34   4961 0.31758000   1.008000   ; qtot 0.693677
 4962         h1    108    ccc    H35   4962 0.06278000   1.008000   ; qtot 0.756457
 4963         h1    108    ccc    H36   4963 0.06278000   1.008000   ; qtot 0.819237
 4964         oh    108    ccc    O12   4964 -0.59472000  16.000000   ; qtot 0.224517
 4965         ho    108    ccc    H37   4965 0.41908000   1.008000   ; qtot 0.643597
 4966         os    108    ccc    O13   4966 -0.44552000  16.000000   ; qtot 0.198077
 4967         ho    108    ccc    H38   4967 0.41908000   1.008000   ; qtot 0.617157
 4968         h1    108    ccc    H39   4968 0.08578000   1.008000   ; qtot 0.702937
 4969         oh    108    ccc     O5   4969 -0.58672000  16.000000   ; qtot 0.116217
 4970         ho    108    ccc    H40   4970 0.41908000   1.008000   ; qtot 0.535297
 4971         n3    108    ccc     N4   4971 -0.54282000  14.010000   ; qtot -0.007523
; residue  109 ccc rtp ccc q -0.0
 4972          n    109    ccc     N1   4972 -0.46580000  14.010000   ; qtot -0.473323
 4973         hn    109    ccc     H4   4973 0.31480000   1.008000   ; qtot -0.158523
 4974         c3    109    ccc     C3   4974 -0.28250000  12.010000   ; qtot -0.441023
 4975         h1    109    ccc     H5   4975 0.15710000   1.008000   ; qtot -0.283923
 4976         c3    109    ccc     C4   4976 0.44180000  12.010000   ; qtot 0.157877
 4977         h1    109    ccc     H6   4977 0.15710000   1.008000   ; qtot 0.314977
 4978         h1    109    ccc     H7   4978 -0.03530000   1.008000   ; qtot 0.279677
 4979         h1    109    ccc     H8   4979 -0.03530000   1.008000   ; qtot 0.244377
 4980         n3    109    ccc     N2   4980 -0.74090000  14.010000   ; qtot -0.496523
 4981         c3    109    ccc     C5   4981 0.51680000  12.010000   ; qtot 0.020277
 4982         c3    109    ccc     C6   4982 0.51680000  12.010000   ; qtot 0.537077
 4983         h1    109    ccc     H9   4983 -0.05230000   1.008000   ; qtot 0.484777
 4984         c3    109    ccc     C7   4984 -0.60390000  12.010000   ; qtot -0.119123
 4985         h1    109    ccc    H10   4985 -0.05230000   1.008000   ; qtot -0.171423
 4986         hc    109    ccc    H11   4986 0.16730000   1.008000   ; qtot -0.004123
 4987         hc    109    ccc    H12   4987 0.16730000   1.008000   ; qtot 0.163177
 4988          c    109    ccc     C8   4988 0.72110000  12.010000   ; qtot 0.884277
 4989          o    109    ccc     O2   4989 -0.61950000  16.000000   ; qtot 0.264777
 4990         h1    109    ccc    H13   4990 -0.05230000   1.008000   ; qtot 0.212477
 4991         h1    109    ccc    H14   4991 -0.05230000   1.008000   ; qtot 0.160177
 4992         c3    109    ccc     C9   4992 -0.60390000  12.010000   ; qtot -0.443723
 4993         hc    109    ccc    H15   4993 0.16730000   1.008000   ; qtot -0.276423
 4994         hc    109    ccc    H16   4994 0.16730000   1.008000   ; qtot -0.109123
 4995          c    109    ccc    C10   4995 0.72110000  12.010000   ; qtot 0.611977
 4996          o    109    ccc     O4   4996 -0.61950000  16.000000   ; qtot -0.007523
 4997         c3    109    ccc    C11   4997 0.08518000  12.010000   ; qtot 0.077657
 4998         c3    109    ccc    C12   4998 0.07918000  12.010000   ; qtot 0.156837
 4999         h1    109    ccc    H17   4999 0.06978000   1.008000   ; qtot 0.226617
 5000         c3    109    ccc    C13   5000 0.07918000  12.010000   ; qtot 0.305797
 5001         c3    109    ccc    C14   5001 0.03578000  12.010000   ; qtot 0.341577
 5002         c3    109    ccc    C15   5002 0.33498000  12.010000   ; qtot 0.676557
 5003         h1    109    ccc    H18   5003 0.06178000   1.008000   ; qtot 0.738337
 5004         h1    109    ccc    H19   5004 0.11278000   1.008000   ; qtot 0.851117
 5005         h2    109    ccc    H20   5005 0.12178000   1.008000   ; qtot 0.972897
 5006         oh    109    ccc     O1   5006 -0.56972000  16.000000   ; qtot 0.403177
 5007         oh    109    ccc     O6   5007 -0.57772000  16.000000   ; qtot -0.174543
 5008         c3    109    ccc    C16   5008 0.14548000  12.010000   ; qtot -0.029063
 5009         ho    109    ccc    H21   5009 0.40508000   1.008000   ; qtot 0.376017
 5010         hn    109    ccc    H22   5010 0.31758000   1.008000   ; qtot 0.693597
 5011         h1    109    ccc    H23   5011 0.06278000   1.008000   ; qtot 0.756377
 5012         h1    109    ccc    H24   5012 0.06278000   1.008000   ; qtot 0.819157
 5013         oh    109    ccc     O7   5013 -0.59472000  16.000000   ; qtot 0.224437
 5014         ho    109    ccc    H25   5014 0.41908000   1.008000   ; qtot 0.643517
 5015         os    109    ccc     O8   5015 -0.44552000  16.000000   ; qtot 0.197997
 5016         ho    109    ccc    H26   5016 0.41908000   1.008000   ; qtot 0.617077
 5017         h1    109    ccc    H27   5017 0.08578000   1.008000   ; qtot 0.702857
 5018         oh    109    ccc     O9   5018 -0.58672000  16.000000   ; qtot 0.116137
 5019         ho    109    ccc    H28   5019 0.41908000   1.008000   ; qtot 0.535217
 5020         n3    109    ccc     N3   5020 -0.54282000  14.010000   ; qtot -0.007603
 5021         c3    109    ccc    C17   5021 0.08518000  12.010000   ; qtot 0.077577
 5022         c3    109    ccc    C18   5022 0.07918000  12.010000   ; qtot 0.156757
 5023         h1    109    ccc    H29   5023 0.06978000   1.008000   ; qtot 0.226537
 5024         c3    109    ccc    C19   5024 0.07918000  12.010000   ; qtot 0.305717
 5025         c3    109    ccc    C20   5025 0.03578000  12.010000   ; qtot 0.341497
 5026         c3    109    ccc    C21   5026 0.33498000  12.010000   ; qtot 0.676477
 5027         h1    109    ccc    H30   5027 0.06178000   1.008000   ; qtot 0.738257
 5028         h1    109    ccc    H31   5028 0.11278000   1.008000   ; qtot 0.851037
 5029         h2    109    ccc    H32   5029 0.12178000   1.008000   ; qtot 0.972817
 5030         oh    109    ccc    O10   5030 -0.56972000  16.000000   ; qtot 0.403097
 5031         oh    109    ccc    O11   5031 -0.57772000  16.000000   ; qtot -0.174623
 5032         c3    109    ccc    C22   5032 0.14548000  12.010000   ; qtot -0.029143
 5033         ho    109    ccc    H33   5033 0.40508000   1.008000   ; qtot 0.375937
 5034         hn    109    ccc    H34   5034 0.31758000   1.008000   ; qtot 0.693517
 5035         h1    109    ccc    H35   5035 0.06278000   1.008000   ; qtot 0.756297
 5036         h1    109    ccc    H36   5036 0.06278000   1.008000   ; qtot 0.819077
 5037         oh    109    ccc    O12   5037 -0.59472000  16.000000   ; qtot 0.224357
 5038         ho    109    ccc    H37   5038 0.41908000   1.008000   ; qtot 0.643437
 5039         os    109    ccc    O13   5039 -0.44552000  16.000000   ; qtot 0.197917
 5040         ho    109    ccc    H38   5040 0.41908000   1.008000   ; qtot 0.616997
 5041         h1    109    ccc    H39   5041 0.08578000   1.008000   ; qtot 0.702777
 5042         oh    109    ccc     O5   5042 -0.58672000  16.000000   ; qtot 0.116057
 5043         ho    109    ccc    H40   5043 0.41908000   1.008000   ; qtot 0.535137
 5044         n3    109    ccc     N4   5044 -0.54282000  14.010000   ; qtot -0.007683
; residue  110 ccc rtp ccc q -0.0
 5045          n    110    ccc     N1   5045 -0.46580000  14.010000   ; qtot -0.473483
 5046         hn    110    ccc     H4   5046 0.31480000   1.008000   ; qtot -0.158683
 5047         c3    110    ccc     C3   5047 -0.28250000  12.010000   ; qtot -0.441183
 5048         h1    110    ccc     H5   5048 0.15710000   1.008000   ; qtot -0.284083
 5049         c3    110    ccc     C4   5049 0.44180000  12.010000   ; qtot 0.157717
 5050         h1    110    ccc     H6   5050 0.15710000   1.008000   ; qtot 0.314817
 5051         h1    110    ccc     H7   5051 -0.03530000   1.008000   ; qtot 0.279517
 5052         h1    110    ccc     H8   5052 -0.03530000   1.008000   ; qtot 0.244217
 5053         n3    110    ccc     N2   5053 -0.74090000  14.010000   ; qtot -0.496683
 5054         c3    110    ccc     C5   5054 0.51680000  12.010000   ; qtot 0.020117
 5055         c3    110    ccc     C6   5055 0.51680000  12.010000   ; qtot 0.536917
 5056         h1    110    ccc     H9   5056 -0.05230000   1.008000   ; qtot 0.484617
 5057         c3    110    ccc     C7   5057 -0.60390000  12.010000   ; qtot -0.119283
 5058         h1    110    ccc    H10   5058 -0.05230000   1.008000   ; qtot -0.171583
 5059         hc    110    ccc    H11   5059 0.16730000   1.008000   ; qtot -0.004283
 5060         hc    110    ccc    H12   5060 0.16730000   1.008000   ; qtot 0.163017
 5061          c    110    ccc     C8   5061 0.72110000  12.010000   ; qtot 0.884117
 5062          o    110    ccc     O2   5062 -0.61950000  16.000000   ; qtot 0.264617
 5063         h1    110    ccc    H13   5063 -0.05230000   1.008000   ; qtot 0.212317
 5064         h1    110    ccc    H14   5064 -0.05230000   1.008000   ; qtot 0.160017
 5065         c3    110    ccc     C9   5065 -0.60390000  12.010000   ; qtot -0.443883
 5066         hc    110    ccc    H15   5066 0.16730000   1.008000   ; qtot -0.276583
 5067         hc    110    ccc    H16   5067 0.16730000   1.008000   ; qtot -0.109283
 5068          c    110    ccc    C10   5068 0.72110000  12.010000   ; qtot 0.611817
 5069          o    110    ccc     O4   5069 -0.61950000  16.000000   ; qtot -0.007683
 5070         c3    110    ccc    C11   5070 0.08518000  12.010000   ; qtot 0.077497
 5071         c3    110    ccc    C12   5071 0.07918000  12.010000   ; qtot 0.156677
 5072         h1    110    ccc    H17   5072 0.06978000   1.008000   ; qtot 0.226457
 5073         c3    110    ccc    C13   5073 0.07918000  12.010000   ; qtot 0.305637
 5074         c3    110    ccc    C14   5074 0.03578000  12.010000   ; qtot 0.341417
 5075         c3    110    ccc    C15   5075 0.33498000  12.010000   ; qtot 0.676397
 5076         h1    110    ccc    H18   5076 0.06178000   1.008000   ; qtot 0.738177
 5077         h1    110    ccc    H19   5077 0.11278000   1.008000   ; qtot 0.850957
 5078         h2    110    ccc    H20   5078 0.12178000   1.008000   ; qtot 0.972737
 5079         oh    110    ccc     O1   5079 -0.56972000  16.000000   ; qtot 0.403017
 5080         oh    110    ccc     O6   5080 -0.57772000  16.000000   ; qtot -0.174703
 5081         c3    110    ccc    C16   5081 0.14548000  12.010000   ; qtot -0.029223
 5082         ho    110    ccc    H21   5082 0.40508000   1.008000   ; qtot 0.375857
 5083         hn    110    ccc    H22   5083 0.31758000   1.008000   ; qtot 0.693437
 5084         h1    110    ccc    H23   5084 0.06278000   1.008000   ; qtot 0.756217
 5085         h1    110    ccc    H24   5085 0.06278000   1.008000   ; qtot 0.818997
 5086         oh    110    ccc     O7   5086 -0.59472000  16.000000   ; qtot 0.224277
 5087         ho    110    ccc    H25   5087 0.41908000   1.008000   ; qtot 0.643357
 5088         os    110    ccc     O8   5088 -0.44552000  16.000000   ; qtot 0.197837
 5089         ho    110    ccc    H26   5089 0.41908000   1.008000   ; qtot 0.616917
 5090         h1    110    ccc    H27   5090 0.08578000   1.008000   ; qtot 0.702697
 5091         oh    110    ccc     O9   5091 -0.58672000  16.000000   ; qtot 0.115977
 5092         ho    110    ccc    H28   5092 0.41908000   1.008000   ; qtot 0.535057
 5093         n3    110    ccc     N3   5093 -0.54282000  14.010000   ; qtot -0.007763
 5094         c3    110    ccc    C17   5094 0.08518000  12.010000   ; qtot 0.077417
 5095         c3    110    ccc    C18   5095 0.07918000  12.010000   ; qtot 0.156597
 5096         h1    110    ccc    H29   5096 0.06978000   1.008000   ; qtot 0.226377
 5097         c3    110    ccc    C19   5097 0.07918000  12.010000   ; qtot 0.305557
 5098         c3    110    ccc    C20   5098 0.03578000  12.010000   ; qtot 0.341337
 5099         c3    110    ccc    C21   5099 0.33498000  12.010000   ; qtot 0.676317
 5100         h1    110    ccc    H30   5100 0.06178000   1.008000   ; qtot 0.738097
 5101         h1    110    ccc    H31   5101 0.11278000   1.008000   ; qtot 0.850877
 5102         h2    110    ccc    H32   5102 0.12178000   1.008000   ; qtot 0.972657
 5103         oh    110    ccc    O10   5103 -0.56972000  16.000000   ; qtot 0.402937
 5104         oh    110    ccc    O11   5104 -0.57772000  16.000000   ; qtot -0.174783
 5105         c3    110    ccc    C22   5105 0.14548000  12.010000   ; qtot -0.029303
 5106         ho    110    ccc    H33   5106 0.40508000   1.008000   ; qtot 0.375777
 5107         hn    110    ccc    H34   5107 0.31758000   1.008000   ; qtot 0.693357
 5108         h1    110    ccc    H35   5108 0.06278000   1.008000   ; qtot 0.756137
 5109         h1    110    ccc    H36   5109 0.06278000   1.008000   ; qtot 0.818917
 5110         oh    110    ccc    O12   5110 -0.59472000  16.000000   ; qtot 0.224197
 5111         ho    110    ccc    H37   5111 0.41908000   1.008000   ; qtot 0.643277
 5112         os    110    ccc    O13   5112 -0.44552000  16.000000   ; qtot 0.197757
 5113         ho    110    ccc    H38   5113 0.41908000   1.008000   ; qtot 0.616837
 5114         h1    110    ccc    H39   5114 0.08578000   1.008000   ; qtot 0.702617
 5115         oh    110    ccc     O5   5115 -0.58672000  16.000000   ; qtot 0.115897
 5116         ho    110    ccc    H40   5116 0.41908000   1.008000   ; qtot 0.534977
 5117         n3    110    ccc     N4   5117 -0.54282000  14.010000   ; qtot -0.007843
; residue  111 ccc rtp ccc q -0.0
 5118          n    111    ccc     N1   5118 -0.46580000  14.010000   ; qtot -0.473643
 5119         hn    111    ccc     H4   5119 0.31480000   1.008000   ; qtot -0.158843
 5120         c3    111    ccc     C3   5120 -0.28250000  12.010000   ; qtot -0.441343
 5121         h1    111    ccc     H5   5121 0.15710000   1.008000   ; qtot -0.284243
 5122         c3    111    ccc     C4   5122 0.44180000  12.010000   ; qtot 0.157557
 5123         h1    111    ccc     H6   5123 0.15710000   1.008000   ; qtot 0.314657
 5124         h1    111    ccc     H7   5124 -0.03530000   1.008000   ; qtot 0.279357
 5125         h1    111    ccc     H8   5125 -0.03530000   1.008000   ; qtot 0.244057
 5126         n3    111    ccc     N2   5126 -0.74090000  14.010000   ; qtot -0.496843
 5127         c3    111    ccc     C5   5127 0.51680000  12.010000   ; qtot 0.019957
 5128         c3    111    ccc     C6   5128 0.51680000  12.010000   ; qtot 0.536757
 5129         h1    111    ccc     H9   5129 -0.05230000   1.008000   ; qtot 0.484457
 5130         c3    111    ccc     C7   5130 -0.60390000  12.010000   ; qtot -0.119443
 5131         h1    111    ccc    H10   5131 -0.05230000   1.008000   ; qtot -0.171743
 5132         hc    111    ccc    H11   5132 0.16730000   1.008000   ; qtot -0.004443
 5133         hc    111    ccc    H12   5133 0.16730000   1.008000   ; qtot 0.162857
 5134          c    111    ccc     C8   5134 0.72110000  12.010000   ; qtot 0.883957
 5135          o    111    ccc     O2   5135 -0.61950000  16.000000   ; qtot 0.264457
 5136         h1    111    ccc    H13   5136 -0.05230000   1.008000   ; qtot 0.212157
 5137         h1    111    ccc    H14   5137 -0.05230000   1.008000   ; qtot 0.159857
 5138         c3    111    ccc     C9   5138 -0.60390000  12.010000   ; qtot -0.444043
 5139         hc    111    ccc    H15   5139 0.16730000   1.008000   ; qtot -0.276743
 5140         hc    111    ccc    H16   5140 0.16730000   1.008000   ; qtot -0.109443
 5141          c    111    ccc    C10   5141 0.72110000  12.010000   ; qtot 0.611657
 5142          o    111    ccc     O4   5142 -0.61950000  16.000000   ; qtot -0.007843
 5143         c3    111    ccc    C11   5143 0.08518000  12.010000   ; qtot 0.077337
 5144         c3    111    ccc    C12   5144 0.07918000  12.010000   ; qtot 0.156517
 5145         h1    111    ccc    H17   5145 0.06978000   1.008000   ; qtot 0.226297
 5146         c3    111    ccc    C13   5146 0.07918000  12.010000   ; qtot 0.305477
 5147         c3    111    ccc    C14   5147 0.03578000  12.010000   ; qtot 0.341257
 5148         c3    111    ccc    C15   5148 0.33498000  12.010000   ; qtot 0.676237
 5149         h1    111    ccc    H18   5149 0.06178000   1.008000   ; qtot 0.738017
 5150         h1    111    ccc    H19   5150 0.11278000   1.008000   ; qtot 0.850797
 5151         h2    111    ccc    H20   5151 0.12178000   1.008000   ; qtot 0.972577
 5152         oh    111    ccc     O1   5152 -0.56972000  16.000000   ; qtot 0.402857
 5153         oh    111    ccc     O6   5153 -0.57772000  16.000000   ; qtot -0.174863
 5154         c3    111    ccc    C16   5154 0.14548000  12.010000   ; qtot -0.029383
 5155         ho    111    ccc    H21   5155 0.40508000   1.008000   ; qtot 0.375697
 5156         hn    111    ccc    H22   5156 0.31758000   1.008000   ; qtot 0.693277
 5157         h1    111    ccc    H23   5157 0.06278000   1.008000   ; qtot 0.756057
 5158         h1    111    ccc    H24   5158 0.06278000   1.008000   ; qtot 0.818837
 5159         oh    111    ccc     O7   5159 -0.59472000  16.000000   ; qtot 0.224117
 5160         ho    111    ccc    H25   5160 0.41908000   1.008000   ; qtot 0.643197
 5161         os    111    ccc     O8   5161 -0.44552000  16.000000   ; qtot 0.197677
 5162         ho    111    ccc    H26   5162 0.41908000   1.008000   ; qtot 0.616757
 5163         h1    111    ccc    H27   5163 0.08578000   1.008000   ; qtot 0.702537
 5164         oh    111    ccc     O9   5164 -0.58672000  16.000000   ; qtot 0.115817
 5165         ho    111    ccc    H28   5165 0.41908000   1.008000   ; qtot 0.534897
 5166         n3    111    ccc     N3   5166 -0.54282000  14.010000   ; qtot -0.007923
 5167         c3    111    ccc    C17   5167 0.08518000  12.010000   ; qtot 0.077257
 5168         c3    111    ccc    C18   5168 0.07918000  12.010000   ; qtot 0.156437
 5169         h1    111    ccc    H29   5169 0.06978000   1.008000   ; qtot 0.226217
 5170         c3    111    ccc    C19   5170 0.07918000  12.010000   ; qtot 0.305397
 5171         c3    111    ccc    C20   5171 0.03578000  12.010000   ; qtot 0.341177
 5172         c3    111    ccc    C21   5172 0.33498000  12.010000   ; qtot 0.676157
 5173         h1    111    ccc    H30   5173 0.06178000   1.008000   ; qtot 0.737937
 5174         h1    111    ccc    H31   5174 0.11278000   1.008000   ; qtot 0.850717
 5175         h2    111    ccc    H32   5175 0.12178000   1.008000   ; qtot 0.972497
 5176         oh    111    ccc    O10   5176 -0.56972000  16.000000   ; qtot 0.402777
 5177         oh    111    ccc    O11   5177 -0.57772000  16.000000   ; qtot -0.174943
 5178         c3    111    ccc    C22   5178 0.14548000  12.010000   ; qtot -0.029463
 5179         ho    111    ccc    H33   5179 0.40508000   1.008000   ; qtot 0.375617
 5180         hn    111    ccc    H34   5180 0.31758000   1.008000   ; qtot 0.693197
 5181         h1    111    ccc    H35   5181 0.06278000   1.008000   ; qtot 0.755977
 5182         h1    111    ccc    H36   5182 0.06278000   1.008000   ; qtot 0.818757
 5183         oh    111    ccc    O12   5183 -0.59472000  16.000000   ; qtot 0.224037
 5184         ho    111    ccc    H37   5184 0.41908000   1.008000   ; qtot 0.643117
 5185         os    111    ccc    O13   5185 -0.44552000  16.000000   ; qtot 0.197597
 5186         ho    111    ccc    H38   5186 0.41908000   1.008000   ; qtot 0.616677
 5187         h1    111    ccc    H39   5187 0.08578000   1.008000   ; qtot 0.702457
 5188         oh    111    ccc     O5   5188 -0.58672000  16.000000   ; qtot 0.115737
 5189         ho    111    ccc    H40   5189 0.41908000   1.008000   ; qtot 0.534817
 5190         n3    111    ccc     N4   5190 -0.54282000  14.010000   ; qtot -0.008003
; residue  112 ccc rtp ccc q -0.0
 5191          n    112    ccc     N1   5191 -0.46580000  14.010000   ; qtot -0.473803
 5192         hn    112    ccc     H4   5192 0.31480000   1.008000   ; qtot -0.159003
 5193         c3    112    ccc     C3   5193 -0.28250000  12.010000   ; qtot -0.441503
 5194         h1    112    ccc     H5   5194 0.15710000   1.008000   ; qtot -0.284403
 5195         c3    112    ccc     C4   5195 0.44180000  12.010000   ; qtot 0.157397
 5196         h1    112    ccc     H6   5196 0.15710000   1.008000   ; qtot 0.314497
 5197         h1    112    ccc     H7   5197 -0.03530000   1.008000   ; qtot 0.279197
 5198         h1    112    ccc     H8   5198 -0.03530000   1.008000   ; qtot 0.243897
 5199         n3    112    ccc     N2   5199 -0.74090000  14.010000   ; qtot -0.497003
 5200         c3    112    ccc     C5   5200 0.51680000  12.010000   ; qtot 0.019797
 5201         c3    112    ccc     C6   5201 0.51680000  12.010000   ; qtot 0.536597
 5202         h1    112    ccc     H9   5202 -0.05230000   1.008000   ; qtot 0.484297
 5203         c3    112    ccc     C7   5203 -0.60390000  12.010000   ; qtot -0.119603
 5204         h1    112    ccc    H10   5204 -0.05230000   1.008000   ; qtot -0.171903
 5205         hc    112    ccc    H11   5205 0.16730000   1.008000   ; qtot -0.004603
 5206         hc    112    ccc    H12   5206 0.16730000   1.008000   ; qtot 0.162697
 5207          c    112    ccc     C8   5207 0.72110000  12.010000   ; qtot 0.883797
 5208          o    112    ccc     O2   5208 -0.61950000  16.000000   ; qtot 0.264297
 5209         h1    112    ccc    H13   5209 -0.05230000   1.008000   ; qtot 0.211997
 5210         h1    112    ccc    H14   5210 -0.05230000   1.008000   ; qtot 0.159697
 5211         c3    112    ccc     C9   5211 -0.60390000  12.010000   ; qtot -0.444203
 5212         hc    112    ccc    H15   5212 0.16730000   1.008000   ; qtot -0.276903
 5213         hc    112    ccc    H16   5213 0.16730000   1.008000   ; qtot -0.109603
 5214          c    112    ccc    C10   5214 0.72110000  12.010000   ; qtot 0.611497
 5215          o    112    ccc     O4   5215 -0.61950000  16.000000   ; qtot -0.008003
 5216         c3    112    ccc    C11   5216 0.08518000  12.010000   ; qtot 0.077177
 5217         c3    112    ccc    C12   5217 0.07918000  12.010000   ; qtot 0.156357
 5218         h1    112    ccc    H17   5218 0.06978000   1.008000   ; qtot 0.226137
 5219         c3    112    ccc    C13   5219 0.07918000  12.010000   ; qtot 0.305317
 5220         c3    112    ccc    C14   5220 0.03578000  12.010000   ; qtot 0.341097
 5221         c3    112    ccc    C15   5221 0.33498000  12.010000   ; qtot 0.676077
 5222         h1    112    ccc    H18   5222 0.06178000   1.008000   ; qtot 0.737857
 5223         h1    112    ccc    H19   5223 0.11278000   1.008000   ; qtot 0.850637
 5224         h2    112    ccc    H20   5224 0.12178000   1.008000   ; qtot 0.972417
 5225         oh    112    ccc     O1   5225 -0.56972000  16.000000   ; qtot 0.402697
 5226         oh    112    ccc     O6   5226 -0.57772000  16.000000   ; qtot -0.175023
 5227         c3    112    ccc    C16   5227 0.14548000  12.010000   ; qtot -0.029543
 5228         ho    112    ccc    H21   5228 0.40508000   1.008000   ; qtot 0.375537
 5229         hn    112    ccc    H22   5229 0.31758000   1.008000   ; qtot 0.693117
 5230         h1    112    ccc    H23   5230 0.06278000   1.008000   ; qtot 0.755897
 5231         h1    112    ccc    H24   5231 0.06278000   1.008000   ; qtot 0.818677
 5232         oh    112    ccc     O7   5232 -0.59472000  16.000000   ; qtot 0.223957
 5233         ho    112    ccc    H25   5233 0.41908000   1.008000   ; qtot 0.643037
 5234         os    112    ccc     O8   5234 -0.44552000  16.000000   ; qtot 0.197517
 5235         ho    112    ccc    H26   5235 0.41908000   1.008000   ; qtot 0.616597
 5236         h1    112    ccc    H27   5236 0.08578000   1.008000   ; qtot 0.702377
 5237         oh    112    ccc     O9   5237 -0.58672000  16.000000   ; qtot 0.115657
 5238         ho    112    ccc    H28   5238 0.41908000   1.008000   ; qtot 0.534737
 5239         n3    112    ccc     N3   5239 -0.54282000  14.010000   ; qtot -0.008083
 5240         c3    112    ccc    C17   5240 0.08518000  12.010000   ; qtot 0.077097
 5241         c3    112    ccc    C18   5241 0.07918000  12.010000   ; qtot 0.156277
 5242         h1    112    ccc    H29   5242 0.06978000   1.008000   ; qtot 0.226057
 5243         c3    112    ccc    C19   5243 0.07918000  12.010000   ; qtot 0.305237
 5244         c3    112    ccc    C20   5244 0.03578000  12.010000   ; qtot 0.341017
 5245         c3    112    ccc    C21   5245 0.33498000  12.010000   ; qtot 0.675997
 5246         h1    112    ccc    H30   5246 0.06178000   1.008000   ; qtot 0.737777
 5247         h1    112    ccc    H31   5247 0.11278000   1.008000   ; qtot 0.850557
 5248         h2    112    ccc    H32   5248 0.12178000   1.008000   ; qtot 0.972337
 5249         oh    112    ccc    O10   5249 -0.56972000  16.000000   ; qtot 0.402617
 5250         oh    112    ccc    O11   5250 -0.57772000  16.000000   ; qtot -0.175103
 5251         c3    112    ccc    C22   5251 0.14548000  12.010000   ; qtot -0.029623
 5252         ho    112    ccc    H33   5252 0.40508000   1.008000   ; qtot 0.375457
 5253         hn    112    ccc    H34   5253 0.31758000   1.008000   ; qtot 0.693037
 5254         h1    112    ccc    H35   5254 0.06278000   1.008000   ; qtot 0.755817
 5255         h1    112    ccc    H36   5255 0.06278000   1.008000   ; qtot 0.818597
 5256         oh    112    ccc    O12   5256 -0.59472000  16.000000   ; qtot 0.223877
 5257         ho    112    ccc    H37   5257 0.41908000   1.008000   ; qtot 0.642957
 5258         os    112    ccc    O13   5258 -0.44552000  16.000000   ; qtot 0.197437
 5259         ho    112    ccc    H38   5259 0.41908000   1.008000   ; qtot 0.616517
 5260         h1    112    ccc    H39   5260 0.08578000   1.008000   ; qtot 0.702297
 5261         oh    112    ccc     O5   5261 -0.58672000  16.000000   ; qtot 0.115577
 5262         ho    112    ccc    H40   5262 0.41908000   1.008000   ; qtot 0.534657
 5263         n3    112    ccc     N4   5263 -0.54282000  14.010000   ; qtot -0.008163
; residue  113 ccc rtp ccc q -0.0
 5264          n    113    ccc     N1   5264 -0.46580000  14.010000   ; qtot -0.473963
 5265         hn    113    ccc     H4   5265 0.31480000   1.008000   ; qtot -0.159163
 5266         c3    113    ccc     C3   5266 -0.28250000  12.010000   ; qtot -0.441663
 5267         h1    113    ccc     H5   5267 0.15710000   1.008000   ; qtot -0.284563
 5268         c3    113    ccc     C4   5268 0.44180000  12.010000   ; qtot 0.157237
 5269         h1    113    ccc     H6   5269 0.15710000   1.008000   ; qtot 0.314337
 5270         h1    113    ccc     H7   5270 -0.03530000   1.008000   ; qtot 0.279037
 5271         h1    113    ccc     H8   5271 -0.03530000   1.008000   ; qtot 0.243737
 5272         n3    113    ccc     N2   5272 -0.74090000  14.010000   ; qtot -0.497163
 5273         c3    113    ccc     C5   5273 0.51680000  12.010000   ; qtot 0.019637
 5274         c3    113    ccc     C6   5274 0.51680000  12.010000   ; qtot 0.536437
 5275         h1    113    ccc     H9   5275 -0.05230000   1.008000   ; qtot 0.484137
 5276         c3    113    ccc     C7   5276 -0.60390000  12.010000   ; qtot -0.119763
 5277         h1    113    ccc    H10   5277 -0.05230000   1.008000   ; qtot -0.172063
 5278         hc    113    ccc    H11   5278 0.16730000   1.008000   ; qtot -0.004763
 5279         hc    113    ccc    H12   5279 0.16730000   1.008000   ; qtot 0.162537
 5280          c    113    ccc     C8   5280 0.72110000  12.010000   ; qtot 0.883637
 5281          o    113    ccc     O2   5281 -0.61950000  16.000000   ; qtot 0.264137
 5282         h1    113    ccc    H13   5282 -0.05230000   1.008000   ; qtot 0.211837
 5283         h1    113    ccc    H14   5283 -0.05230000   1.008000   ; qtot 0.159537
 5284         c3    113    ccc     C9   5284 -0.60390000  12.010000   ; qtot -0.444363
 5285         hc    113    ccc    H15   5285 0.16730000   1.008000   ; qtot -0.277063
 5286         hc    113    ccc    H16   5286 0.16730000   1.008000   ; qtot -0.109763
 5287          c    113    ccc    C10   5287 0.72110000  12.010000   ; qtot 0.611337
 5288          o    113    ccc     O4   5288 -0.61950000  16.000000   ; qtot -0.008163
 5289         c3    113    ccc    C11   5289 0.08518000  12.010000   ; qtot 0.077017
 5290         c3    113    ccc    C12   5290 0.07918000  12.010000   ; qtot 0.156197
 5291         h1    113    ccc    H17   5291 0.06978000   1.008000   ; qtot 0.225977
 5292         c3    113    ccc    C13   5292 0.07918000  12.010000   ; qtot 0.305157
 5293         c3    113    ccc    C14   5293 0.03578000  12.010000   ; qtot 0.340937
 5294         c3    113    ccc    C15   5294 0.33498000  12.010000   ; qtot 0.675917
 5295         h1    113    ccc    H18   5295 0.06178000   1.008000   ; qtot 0.737697
 5296         h1    113    ccc    H19   5296 0.11278000   1.008000   ; qtot 0.850477
 5297         h2    113    ccc    H20   5297 0.12178000   1.008000   ; qtot 0.972257
 5298         oh    113    ccc     O1   5298 -0.56972000  16.000000   ; qtot 0.402537
 5299         oh    113    ccc     O6   5299 -0.57772000  16.000000   ; qtot -0.175183
 5300         c3    113    ccc    C16   5300 0.14548000  12.010000   ; qtot -0.029703
 5301         ho    113    ccc    H21   5301 0.40508000   1.008000   ; qtot 0.375377
 5302         hn    113    ccc    H22   5302 0.31758000   1.008000   ; qtot 0.692957
 5303         h1    113    ccc    H23   5303 0.06278000   1.008000   ; qtot 0.755737
 5304         h1    113    ccc    H24   5304 0.06278000   1.008000   ; qtot 0.818517
 5305         oh    113    ccc     O7   5305 -0.59472000  16.000000   ; qtot 0.223797
 5306         ho    113    ccc    H25   5306 0.41908000   1.008000   ; qtot 0.642877
 5307         os    113    ccc     O8   5307 -0.44552000  16.000000   ; qtot 0.197357
 5308         ho    113    ccc    H26   5308 0.41908000   1.008000   ; qtot 0.616437
 5309         h1    113    ccc    H27   5309 0.08578000   1.008000   ; qtot 0.702217
 5310         oh    113    ccc     O9   5310 -0.58672000  16.000000   ; qtot 0.115497
 5311         ho    113    ccc    H28   5311 0.41908000   1.008000   ; qtot 0.534577
 5312         n3    113    ccc     N3   5312 -0.54282000  14.010000   ; qtot -0.008243
 5313         c3    113    ccc    C17   5313 0.08518000  12.010000   ; qtot 0.076937
 5314         c3    113    ccc    C18   5314 0.07918000  12.010000   ; qtot 0.156117
 5315         h1    113    ccc    H29   5315 0.06978000   1.008000   ; qtot 0.225897
 5316         c3    113    ccc    C19   5316 0.07918000  12.010000   ; qtot 0.305077
 5317         c3    113    ccc    C20   5317 0.03578000  12.010000   ; qtot 0.340857
 5318         c3    113    ccc    C21   5318 0.33498000  12.010000   ; qtot 0.675837
 5319         h1    113    ccc    H30   5319 0.06178000   1.008000   ; qtot 0.737617
 5320         h1    113    ccc    H31   5320 0.11278000   1.008000   ; qtot 0.850397
 5321         h2    113    ccc    H32   5321 0.12178000   1.008000   ; qtot 0.972177
 5322         oh    113    ccc    O10   5322 -0.56972000  16.000000   ; qtot 0.402457
 5323         oh    113    ccc    O11   5323 -0.57772000  16.000000   ; qtot -0.175263
 5324         c3    113    ccc    C22   5324 0.14548000  12.010000   ; qtot -0.029783
 5325         ho    113    ccc    H33   5325 0.40508000   1.008000   ; qtot 0.375297
 5326         hn    113    ccc    H34   5326 0.31758000   1.008000   ; qtot 0.692877
 5327         h1    113    ccc    H35   5327 0.06278000   1.008000   ; qtot 0.755657
 5328         h1    113    ccc    H36   5328 0.06278000   1.008000   ; qtot 0.818437
 5329         oh    113    ccc    O12   5329 -0.59472000  16.000000   ; qtot 0.223717
 5330         ho    113    ccc    H37   5330 0.41908000   1.008000   ; qtot 0.642797
 5331         os    113    ccc    O13   5331 -0.44552000  16.000000   ; qtot 0.197277
 5332         ho    113    ccc    H38   5332 0.41908000   1.008000   ; qtot 0.616357
 5333         h1    113    ccc    H39   5333 0.08578000   1.008000   ; qtot 0.702137
 5334         oh    113    ccc     O5   5334 -0.58672000  16.000000   ; qtot 0.115417
 5335         ho    113    ccc    H40   5335 0.41908000   1.008000   ; qtot 0.534497
 5336         n3    113    ccc     N4   5336 -0.54282000  14.010000   ; qtot -0.008323
; residue  114 ccc rtp ccc q -0.0
 5337          n    114    ccc     N1   5337 -0.46580000  14.010000   ; qtot -0.474123
 5338         hn    114    ccc     H4   5338 0.31480000   1.008000   ; qtot -0.159323
 5339         c3    114    ccc     C3   5339 -0.28250000  12.010000   ; qtot -0.441823
 5340         h1    114    ccc     H5   5340 0.15710000   1.008000   ; qtot -0.284723
 5341         c3    114    ccc     C4   5341 0.44180000  12.010000   ; qtot 0.157077
 5342         h1    114    ccc     H6   5342 0.15710000   1.008000   ; qtot 0.314177
 5343         h1    114    ccc     H7   5343 -0.03530000   1.008000   ; qtot 0.278877
 5344         h1    114    ccc     H8   5344 -0.03530000   1.008000   ; qtot 0.243577
 5345         n3    114    ccc     N2   5345 -0.74090000  14.010000   ; qtot -0.497323
 5346         c3    114    ccc     C5   5346 0.51680000  12.010000   ; qtot 0.019477
 5347         c3    114    ccc     C6   5347 0.51680000  12.010000   ; qtot 0.536277
 5348         h1    114    ccc     H9   5348 -0.05230000   1.008000   ; qtot 0.483977
 5349         c3    114    ccc     C7   5349 -0.60390000  12.010000   ; qtot -0.119923
 5350         h1    114    ccc    H10   5350 -0.05230000   1.008000   ; qtot -0.172223
 5351         hc    114    ccc    H11   5351 0.16730000   1.008000   ; qtot -0.004923
 5352         hc    114    ccc    H12   5352 0.16730000   1.008000   ; qtot 0.162377
 5353          c    114    ccc     C8   5353 0.72110000  12.010000   ; qtot 0.883477
 5354          o    114    ccc     O2   5354 -0.61950000  16.000000   ; qtot 0.263977
 5355         h1    114    ccc    H13   5355 -0.05230000   1.008000   ; qtot 0.211677
 5356         h1    114    ccc    H14   5356 -0.05230000   1.008000   ; qtot 0.159377
 5357         c3    114    ccc     C9   5357 -0.60390000  12.010000   ; qtot -0.444523
 5358         hc    114    ccc    H15   5358 0.16730000   1.008000   ; qtot -0.277223
 5359         hc    114    ccc    H16   5359 0.16730000   1.008000   ; qtot -0.109923
 5360          c    114    ccc    C10   5360 0.72110000  12.010000   ; qtot 0.611177
 5361          o    114    ccc     O4   5361 -0.61950000  16.000000   ; qtot -0.008323
 5362         c3    114    ccc    C11   5362 0.08518000  12.010000   ; qtot 0.076857
 5363         c3    114    ccc    C12   5363 0.07918000  12.010000   ; qtot 0.156037
 5364         h1    114    ccc    H17   5364 0.06978000   1.008000   ; qtot 0.225817
 5365         c3    114    ccc    C13   5365 0.07918000  12.010000   ; qtot 0.304997
 5366         c3    114    ccc    C14   5366 0.03578000  12.010000   ; qtot 0.340777
 5367         c3    114    ccc    C15   5367 0.33498000  12.010000   ; qtot 0.675757
 5368         h1    114    ccc    H18   5368 0.06178000   1.008000   ; qtot 0.737537
 5369         h1    114    ccc    H19   5369 0.11278000   1.008000   ; qtot 0.850317
 5370         h2    114    ccc    H20   5370 0.12178000   1.008000   ; qtot 0.972097
 5371         oh    114    ccc     O1   5371 -0.56972000  16.000000   ; qtot 0.402377
 5372         oh    114    ccc     O6   5372 -0.57772000  16.000000   ; qtot -0.175343
 5373         c3    114    ccc    C16   5373 0.14548000  12.010000   ; qtot -0.029863
 5374         ho    114    ccc    H21   5374 0.40508000   1.008000   ; qtot 0.375217
 5375         hn    114    ccc    H22   5375 0.31758000   1.008000   ; qtot 0.692797
 5376         h1    114    ccc    H23   5376 0.06278000   1.008000   ; qtot 0.755577
 5377         h1    114    ccc    H24   5377 0.06278000   1.008000   ; qtot 0.818357
 5378         oh    114    ccc     O7   5378 -0.59472000  16.000000   ; qtot 0.223637
 5379         ho    114    ccc    H25   5379 0.41908000   1.008000   ; qtot 0.642717
 5380         os    114    ccc     O8   5380 -0.44552000  16.000000   ; qtot 0.197197
 5381         ho    114    ccc    H26   5381 0.41908000   1.008000   ; qtot 0.616277
 5382         h1    114    ccc    H27   5382 0.08578000   1.008000   ; qtot 0.702057
 5383         oh    114    ccc     O9   5383 -0.58672000  16.000000   ; qtot 0.115337
 5384         ho    114    ccc    H28   5384 0.41908000   1.008000   ; qtot 0.534417
 5385         n3    114    ccc     N3   5385 -0.54282000  14.010000   ; qtot -0.008403
 5386         c3    114    ccc    C17   5386 0.08518000  12.010000   ; qtot 0.076777
 5387         c3    114    ccc    C18   5387 0.07918000  12.010000   ; qtot 0.155957
 5388         h1    114    ccc    H29   5388 0.06978000   1.008000   ; qtot 0.225737
 5389         c3    114    ccc    C19   5389 0.07918000  12.010000   ; qtot 0.304917
 5390         c3    114    ccc    C20   5390 0.03578000  12.010000   ; qtot 0.340697
 5391         c3    114    ccc    C21   5391 0.33498000  12.010000   ; qtot 0.675677
 5392         h1    114    ccc    H30   5392 0.06178000   1.008000   ; qtot 0.737457
 5393         h1    114    ccc    H31   5393 0.11278000   1.008000   ; qtot 0.850237
 5394         h2    114    ccc    H32   5394 0.12178000   1.008000   ; qtot 0.972017
 5395         oh    114    ccc    O10   5395 -0.56972000  16.000000   ; qtot 0.402297
 5396         oh    114    ccc    O11   5396 -0.57772000  16.000000   ; qtot -0.175423
 5397         c3    114    ccc    C22   5397 0.14548000  12.010000   ; qtot -0.029943
 5398         ho    114    ccc    H33   5398 0.40508000   1.008000   ; qtot 0.375137
 5399         hn    114    ccc    H34   5399 0.31758000   1.008000   ; qtot 0.692717
 5400         h1    114    ccc    H35   5400 0.06278000   1.008000   ; qtot 0.755497
 5401         h1    114    ccc    H36   5401 0.06278000   1.008000   ; qtot 0.818277
 5402         oh    114    ccc    O12   5402 -0.59472000  16.000000   ; qtot 0.223557
 5403         ho    114    ccc    H37   5403 0.41908000   1.008000   ; qtot 0.642637
 5404         os    114    ccc    O13   5404 -0.44552000  16.000000   ; qtot 0.197117
 5405         ho    114    ccc    H38   5405 0.41908000   1.008000   ; qtot 0.616197
 5406         h1    114    ccc    H39   5406 0.08578000   1.008000   ; qtot 0.701977
 5407         oh    114    ccc     O5   5407 -0.58672000  16.000000   ; qtot 0.115257
 5408         ho    114    ccc    H40   5408 0.41908000   1.008000   ; qtot 0.534337
 5409         n3    114    ccc     N4   5409 -0.54282000  14.010000   ; qtot -0.008483
; residue  115 ccc rtp ccc q -0.0
 5410          n    115    ccc     N1   5410 -0.46580000  14.010000   ; qtot -0.474283
 5411         hn    115    ccc     H4   5411 0.31480000   1.008000   ; qtot -0.159483
 5412         c3    115    ccc     C3   5412 -0.28250000  12.010000   ; qtot -0.441983
 5413         h1    115    ccc     H5   5413 0.15710000   1.008000   ; qtot -0.284883
 5414         c3    115    ccc     C4   5414 0.44180000  12.010000   ; qtot 0.156917
 5415         h1    115    ccc     H6   5415 0.15710000   1.008000   ; qtot 0.314017
 5416         h1    115    ccc     H7   5416 -0.03530000   1.008000   ; qtot 0.278717
 5417         h1    115    ccc     H8   5417 -0.03530000   1.008000   ; qtot 0.243417
 5418         n3    115    ccc     N2   5418 -0.74090000  14.010000   ; qtot -0.497483
 5419         c3    115    ccc     C5   5419 0.51680000  12.010000   ; qtot 0.019317
 5420         c3    115    ccc     C6   5420 0.51680000  12.010000   ; qtot 0.536117
 5421         h1    115    ccc     H9   5421 -0.05230000   1.008000   ; qtot 0.483817
 5422         c3    115    ccc     C7   5422 -0.60390000  12.010000   ; qtot -0.120083
 5423         h1    115    ccc    H10   5423 -0.05230000   1.008000   ; qtot -0.172383
 5424         hc    115    ccc    H11   5424 0.16730000   1.008000   ; qtot -0.005083
 5425         hc    115    ccc    H12   5425 0.16730000   1.008000   ; qtot 0.162217
 5426          c    115    ccc     C8   5426 0.72110000  12.010000   ; qtot 0.883317
 5427          o    115    ccc     O2   5427 -0.61950000  16.000000   ; qtot 0.263817
 5428         h1    115    ccc    H13   5428 -0.05230000   1.008000   ; qtot 0.211517
 5429         h1    115    ccc    H14   5429 -0.05230000   1.008000   ; qtot 0.159217
 5430         c3    115    ccc     C9   5430 -0.60390000  12.010000   ; qtot -0.444683
 5431         hc    115    ccc    H15   5431 0.16730000   1.008000   ; qtot -0.277383
 5432         hc    115    ccc    H16   5432 0.16730000   1.008000   ; qtot -0.110083
 5433          c    115    ccc    C10   5433 0.72110000  12.010000   ; qtot 0.611017
 5434          o    115    ccc     O4   5434 -0.61950000  16.000000   ; qtot -0.008483
 5435         c3    115    ccc    C11   5435 0.08518000  12.010000   ; qtot 0.076697
 5436         c3    115    ccc    C12   5436 0.07918000  12.010000   ; qtot 0.155877
 5437         h1    115    ccc    H17   5437 0.06978000   1.008000   ; qtot 0.225657
 5438         c3    115    ccc    C13   5438 0.07918000  12.010000   ; qtot 0.304837
 5439         c3    115    ccc    C14   5439 0.03578000  12.010000   ; qtot 0.340617
 5440         c3    115    ccc    C15   5440 0.33498000  12.010000   ; qtot 0.675597
 5441         h1    115    ccc    H18   5441 0.06178000   1.008000   ; qtot 0.737377
 5442         h1    115    ccc    H19   5442 0.11278000   1.008000   ; qtot 0.850157
 5443         h2    115    ccc    H20   5443 0.12178000   1.008000   ; qtot 0.971937
 5444         oh    115    ccc     O1   5444 -0.56972000  16.000000   ; qtot 0.402217
 5445         oh    115    ccc     O6   5445 -0.57772000  16.000000   ; qtot -0.175503
 5446         c3    115    ccc    C16   5446 0.14548000  12.010000   ; qtot -0.030023
 5447         ho    115    ccc    H21   5447 0.40508000   1.008000   ; qtot 0.375057
 5448         hn    115    ccc    H22   5448 0.31758000   1.008000   ; qtot 0.692637
 5449         h1    115    ccc    H23   5449 0.06278000   1.008000   ; qtot 0.755417
 5450         h1    115    ccc    H24   5450 0.06278000   1.008000   ; qtot 0.818197
 5451         oh    115    ccc     O7   5451 -0.59472000  16.000000   ; qtot 0.223477
 5452         ho    115    ccc    H25   5452 0.41908000   1.008000   ; qtot 0.642557
 5453         os    115    ccc     O8   5453 -0.44552000  16.000000   ; qtot 0.197037
 5454         ho    115    ccc    H26   5454 0.41908000   1.008000   ; qtot 0.616117
 5455         h1    115    ccc    H27   5455 0.08578000   1.008000   ; qtot 0.701897
 5456         oh    115    ccc     O9   5456 -0.58672000  16.000000   ; qtot 0.115177
 5457         ho    115    ccc    H28   5457 0.41908000   1.008000   ; qtot 0.534257
 5458         n3    115    ccc     N3   5458 -0.54282000  14.010000   ; qtot -0.008563
 5459         c3    115    ccc    C17   5459 0.08518000  12.010000   ; qtot 0.076617
 5460         c3    115    ccc    C18   5460 0.07918000  12.010000   ; qtot 0.155797
 5461         h1    115    ccc    H29   5461 0.06978000   1.008000   ; qtot 0.225577
 5462         c3    115    ccc    C19   5462 0.07918000  12.010000   ; qtot 0.304757
 5463         c3    115    ccc    C20   5463 0.03578000  12.010000   ; qtot 0.340537
 5464         c3    115    ccc    C21   5464 0.33498000  12.010000   ; qtot 0.675517
 5465         h1    115    ccc    H30   5465 0.06178000   1.008000   ; qtot 0.737297
 5466         h1    115    ccc    H31   5466 0.11278000   1.008000   ; qtot 0.850077
 5467         h2    115    ccc    H32   5467 0.12178000   1.008000   ; qtot 0.971857
 5468         oh    115    ccc    O10   5468 -0.56972000  16.000000   ; qtot 0.402137
 5469         oh    115    ccc    O11   5469 -0.57772000  16.000000   ; qtot -0.175583
 5470         c3    115    ccc    C22   5470 0.14548000  12.010000   ; qtot -0.030103
 5471         ho    115    ccc    H33   5471 0.40508000   1.008000   ; qtot 0.374977
 5472         hn    115    ccc    H34   5472 0.31758000   1.008000   ; qtot 0.692557
 5473         h1    115    ccc    H35   5473 0.06278000   1.008000   ; qtot 0.755337
 5474         h1    115    ccc    H36   5474 0.06278000   1.008000   ; qtot 0.818117
 5475         oh    115    ccc    O12   5475 -0.59472000  16.000000   ; qtot 0.223397
 5476         ho    115    ccc    H37   5476 0.41908000   1.008000   ; qtot 0.642477
 5477         os    115    ccc    O13   5477 -0.44552000  16.000000   ; qtot 0.196957
 5478         ho    115    ccc    H38   5478 0.41908000   1.008000   ; qtot 0.616037
 5479         h1    115    ccc    H39   5479 0.08578000   1.008000   ; qtot 0.701817
 5480         oh    115    ccc     O5   5480 -0.58672000  16.000000   ; qtot 0.115097
 5481         ho    115    ccc    H40   5481 0.41908000   1.008000   ; qtot 0.534177
 5482         n3    115    ccc     N4   5482 -0.54282000  14.010000   ; qtot -0.008643
; residue  116 ccc rtp ccc q -0.0
 5483          n    116    ccc     N1   5483 -0.46580000  14.010000   ; qtot -0.474443
 5484         hn    116    ccc     H4   5484 0.31480000   1.008000   ; qtot -0.159643
 5485         c3    116    ccc     C3   5485 -0.28250000  12.010000   ; qtot -0.442143
 5486         h1    116    ccc     H5   5486 0.15710000   1.008000   ; qtot -0.285043
 5487         c3    116    ccc     C4   5487 0.44180000  12.010000   ; qtot 0.156757
 5488         h1    116    ccc     H6   5488 0.15710000   1.008000   ; qtot 0.313857
 5489         h1    116    ccc     H7   5489 -0.03530000   1.008000   ; qtot 0.278557
 5490         h1    116    ccc     H8   5490 -0.03530000   1.008000   ; qtot 0.243257
 5491         n3    116    ccc     N2   5491 -0.74090000  14.010000   ; qtot -0.497643
 5492         c3    116    ccc     C5   5492 0.51680000  12.010000   ; qtot 0.019157
 5493         c3    116    ccc     C6   5493 0.51680000  12.010000   ; qtot 0.535957
 5494         h1    116    ccc     H9   5494 -0.05230000   1.008000   ; qtot 0.483657
 5495         c3    116    ccc     C7   5495 -0.60390000  12.010000   ; qtot -0.120243
 5496         h1    116    ccc    H10   5496 -0.05230000   1.008000   ; qtot -0.172543
 5497         hc    116    ccc    H11   5497 0.16730000   1.008000   ; qtot -0.005243
 5498         hc    116    ccc    H12   5498 0.16730000   1.008000   ; qtot 0.162057
 5499          c    116    ccc     C8   5499 0.72110000  12.010000   ; qtot 0.883157
 5500          o    116    ccc     O2   5500 -0.61950000  16.000000   ; qtot 0.263657
 5501         h1    116    ccc    H13   5501 -0.05230000   1.008000   ; qtot 0.211357
 5502         h1    116    ccc    H14   5502 -0.05230000   1.008000   ; qtot 0.159057
 5503         c3    116    ccc     C9   5503 -0.60390000  12.010000   ; qtot -0.444843
 5504         hc    116    ccc    H15   5504 0.16730000   1.008000   ; qtot -0.277543
 5505         hc    116    ccc    H16   5505 0.16730000   1.008000   ; qtot -0.110243
 5506          c    116    ccc    C10   5506 0.72110000  12.010000   ; qtot 0.610857
 5507          o    116    ccc     O4   5507 -0.61950000  16.000000   ; qtot -0.008643
 5508         c3    116    ccc    C11   5508 0.08518000  12.010000   ; qtot 0.076537
 5509         c3    116    ccc    C12   5509 0.07918000  12.010000   ; qtot 0.155717
 5510         h1    116    ccc    H17   5510 0.06978000   1.008000   ; qtot 0.225497
 5511         c3    116    ccc    C13   5511 0.07918000  12.010000   ; qtot 0.304677
 5512         c3    116    ccc    C14   5512 0.03578000  12.010000   ; qtot 0.340457
 5513         c3    116    ccc    C15   5513 0.33498000  12.010000   ; qtot 0.675437
 5514         h1    116    ccc    H18   5514 0.06178000   1.008000   ; qtot 0.737217
 5515         h1    116    ccc    H19   5515 0.11278000   1.008000   ; qtot 0.849997
 5516         h2    116    ccc    H20   5516 0.12178000   1.008000   ; qtot 0.971777
 5517         oh    116    ccc     O1   5517 -0.56972000  16.000000   ; qtot 0.402057
 5518         oh    116    ccc     O6   5518 -0.57772000  16.000000   ; qtot -0.175663
 5519         c3    116    ccc    C16   5519 0.14548000  12.010000   ; qtot -0.030183
 5520         ho    116    ccc    H21   5520 0.40508000   1.008000   ; qtot 0.374897
 5521         hn    116    ccc    H22   5521 0.31758000   1.008000   ; qtot 0.692477
 5522         h1    116    ccc    H23   5522 0.06278000   1.008000   ; qtot 0.755257
 5523         h1    116    ccc    H24   5523 0.06278000   1.008000   ; qtot 0.818037
 5524         oh    116    ccc     O7   5524 -0.59472000  16.000000   ; qtot 0.223317
 5525         ho    116    ccc    H25   5525 0.41908000   1.008000   ; qtot 0.642397
 5526         os    116    ccc     O8   5526 -0.44552000  16.000000   ; qtot 0.196877
 5527         ho    116    ccc    H26   5527 0.41908000   1.008000   ; qtot 0.615957
 5528         h1    116    ccc    H27   5528 0.08578000   1.008000   ; qtot 0.701737
 5529         oh    116    ccc     O9   5529 -0.58672000  16.000000   ; qtot 0.115017
 5530         ho    116    ccc    H28   5530 0.41908000   1.008000   ; qtot 0.534097
 5531         n3    116    ccc     N3   5531 -0.54282000  14.010000   ; qtot -0.008723
 5532         c3    116    ccc    C17   5532 0.08518000  12.010000   ; qtot 0.076457
 5533         c3    116    ccc    C18   5533 0.07918000  12.010000   ; qtot 0.155637
 5534         h1    116    ccc    H29   5534 0.06978000   1.008000   ; qtot 0.225417
 5535         c3    116    ccc    C19   5535 0.07918000  12.010000   ; qtot 0.304597
 5536         c3    116    ccc    C20   5536 0.03578000  12.010000   ; qtot 0.340377
 5537         c3    116    ccc    C21   5537 0.33498000  12.010000   ; qtot 0.675357
 5538         h1    116    ccc    H30   5538 0.06178000   1.008000   ; qtot 0.737137
 5539         h1    116    ccc    H31   5539 0.11278000   1.008000   ; qtot 0.849917
 5540         h2    116    ccc    H32   5540 0.12178000   1.008000   ; qtot 0.971697
 5541         oh    116    ccc    O10   5541 -0.56972000  16.000000   ; qtot 0.401977
 5542         oh    116    ccc    O11   5542 -0.57772000  16.000000   ; qtot -0.175743
 5543         c3    116    ccc    C22   5543 0.14548000  12.010000   ; qtot -0.030263
 5544         ho    116    ccc    H33   5544 0.40508000   1.008000   ; qtot 0.374817
 5545         hn    116    ccc    H34   5545 0.31758000   1.008000   ; qtot 0.692397
 5546         h1    116    ccc    H35   5546 0.06278000   1.008000   ; qtot 0.755177
 5547         h1    116    ccc    H36   5547 0.06278000   1.008000   ; qtot 0.817957
 5548         oh    116    ccc    O12   5548 -0.59472000  16.000000   ; qtot 0.223237
 5549         ho    116    ccc    H37   5549 0.41908000   1.008000   ; qtot 0.642317
 5550         os    116    ccc    O13   5550 -0.44552000  16.000000   ; qtot 0.196797
 5551         ho    116    ccc    H38   5551 0.41908000   1.008000   ; qtot 0.615877
 5552         h1    116    ccc    H39   5552 0.08578000   1.008000   ; qtot 0.701657
 5553         oh    116    ccc     O5   5553 -0.58672000  16.000000   ; qtot 0.114937
 5554         ho    116    ccc    H40   5554 0.41908000   1.008000   ; qtot 0.534017
 5555         n3    116    ccc     N4   5555 -0.54282000  14.010000   ; qtot -0.008803
; residue  117 ccc rtp ccc q -0.0
 5556          n    117    ccc     N1   5556 -0.46580000  14.010000   ; qtot -0.474603
 5557         hn    117    ccc     H4   5557 0.31480000   1.008000   ; qtot -0.159803
 5558         c3    117    ccc     C3   5558 -0.28250000  12.010000   ; qtot -0.442303
 5559         h1    117    ccc     H5   5559 0.15710000   1.008000   ; qtot -0.285203
 5560         c3    117    ccc     C4   5560 0.44180000  12.010000   ; qtot 0.156597
 5561         h1    117    ccc     H6   5561 0.15710000   1.008000   ; qtot 0.313697
 5562         h1    117    ccc     H7   5562 -0.03530000   1.008000   ; qtot 0.278397
 5563         h1    117    ccc     H8   5563 -0.03530000   1.008000   ; qtot 0.243097
 5564         n3    117    ccc     N2   5564 -0.74090000  14.010000   ; qtot -0.497803
 5565         c3    117    ccc     C5   5565 0.51680000  12.010000   ; qtot 0.018997
 5566         c3    117    ccc     C6   5566 0.51680000  12.010000   ; qtot 0.535797
 5567         h1    117    ccc     H9   5567 -0.05230000   1.008000   ; qtot 0.483497
 5568         c3    117    ccc     C7   5568 -0.60390000  12.010000   ; qtot -0.120403
 5569         h1    117    ccc    H10   5569 -0.05230000   1.008000   ; qtot -0.172703
 5570         hc    117    ccc    H11   5570 0.16730000   1.008000   ; qtot -0.005403
 5571         hc    117    ccc    H12   5571 0.16730000   1.008000   ; qtot 0.161897
 5572          c    117    ccc     C8   5572 0.72110000  12.010000   ; qtot 0.882997
 5573          o    117    ccc     O2   5573 -0.61950000  16.000000   ; qtot 0.263497
 5574         h1    117    ccc    H13   5574 -0.05230000   1.008000   ; qtot 0.211197
 5575         h1    117    ccc    H14   5575 -0.05230000   1.008000   ; qtot 0.158897
 5576         c3    117    ccc     C9   5576 -0.60390000  12.010000   ; qtot -0.445003
 5577         hc    117    ccc    H15   5577 0.16730000   1.008000   ; qtot -0.277703
 5578         hc    117    ccc    H16   5578 0.16730000   1.008000   ; qtot -0.110403
 5579          c    117    ccc    C10   5579 0.72110000  12.010000   ; qtot 0.610697
 5580          o    117    ccc     O4   5580 -0.61950000  16.000000   ; qtot -0.008803
 5581         c3    117    ccc    C11   5581 0.08518000  12.010000   ; qtot 0.076377
 5582         c3    117    ccc    C12   5582 0.07918000  12.010000   ; qtot 0.155557
 5583         h1    117    ccc    H17   5583 0.06978000   1.008000   ; qtot 0.225337
 5584         c3    117    ccc    C13   5584 0.07918000  12.010000   ; qtot 0.304517
 5585         c3    117    ccc    C14   5585 0.03578000  12.010000   ; qtot 0.340297
 5586         c3    117    ccc    C15   5586 0.33498000  12.010000   ; qtot 0.675277
 5587         h1    117    ccc    H18   5587 0.06178000   1.008000   ; qtot 0.737057
 5588         h1    117    ccc    H19   5588 0.11278000   1.008000   ; qtot 0.849837
 5589         h2    117    ccc    H20   5589 0.12178000   1.008000   ; qtot 0.971617
 5590         oh    117    ccc     O1   5590 -0.56972000  16.000000   ; qtot 0.401897
 5591         oh    117    ccc     O6   5591 -0.57772000  16.000000   ; qtot -0.175823
 5592         c3    117    ccc    C16   5592 0.14548000  12.010000   ; qtot -0.030343
 5593         ho    117    ccc    H21   5593 0.40508000   1.008000   ; qtot 0.374737
 5594         hn    117    ccc    H22   5594 0.31758000   1.008000   ; qtot 0.692317
 5595         h1    117    ccc    H23   5595 0.06278000   1.008000   ; qtot 0.755097
 5596         h1    117    ccc    H24   5596 0.06278000   1.008000   ; qtot 0.817877
 5597         oh    117    ccc     O7   5597 -0.59472000  16.000000   ; qtot 0.223157
 5598         ho    117    ccc    H25   5598 0.41908000   1.008000   ; qtot 0.642237
 5599         os    117    ccc     O8   5599 -0.44552000  16.000000   ; qtot 0.196717
 5600         ho    117    ccc    H26   5600 0.41908000   1.008000   ; qtot 0.615797
 5601         h1    117    ccc    H27   5601 0.08578000   1.008000   ; qtot 0.701577
 5602         oh    117    ccc     O9   5602 -0.58672000  16.000000   ; qtot 0.114857
 5603         ho    117    ccc    H28   5603 0.41908000   1.008000   ; qtot 0.533937
 5604         n3    117    ccc     N3   5604 -0.54282000  14.010000   ; qtot -0.008883
 5605         c3    117    ccc    C17   5605 0.08518000  12.010000   ; qtot 0.076297
 5606         c3    117    ccc    C18   5606 0.07918000  12.010000   ; qtot 0.155477
 5607         h1    117    ccc    H29   5607 0.06978000   1.008000   ; qtot 0.225257
 5608         c3    117    ccc    C19   5608 0.07918000  12.010000   ; qtot 0.304437
 5609         c3    117    ccc    C20   5609 0.03578000  12.010000   ; qtot 0.340217
 5610         c3    117    ccc    C21   5610 0.33498000  12.010000   ; qtot 0.675197
 5611         h1    117    ccc    H30   5611 0.06178000   1.008000   ; qtot 0.736977
 5612         h1    117    ccc    H31   5612 0.11278000   1.008000   ; qtot 0.849757
 5613         h2    117    ccc    H32   5613 0.12178000   1.008000   ; qtot 0.971537
 5614         oh    117    ccc    O10   5614 -0.56972000  16.000000   ; qtot 0.401817
 5615         oh    117    ccc    O11   5615 -0.57772000  16.000000   ; qtot -0.175903
 5616         c3    117    ccc    C22   5616 0.14548000  12.010000   ; qtot -0.030423
 5617         ho    117    ccc    H33   5617 0.40508000   1.008000   ; qtot 0.374657
 5618         hn    117    ccc    H34   5618 0.31758000   1.008000   ; qtot 0.692237
 5619         h1    117    ccc    H35   5619 0.06278000   1.008000   ; qtot 0.755017
 5620         h1    117    ccc    H36   5620 0.06278000   1.008000   ; qtot 0.817797
 5621         oh    117    ccc    O12   5621 -0.59472000  16.000000   ; qtot 0.223077
 5622         ho    117    ccc    H37   5622 0.41908000   1.008000   ; qtot 0.642157
 5623         os    117    ccc    O13   5623 -0.44552000  16.000000   ; qtot 0.196637
 5624         ho    117    ccc    H38   5624 0.41908000   1.008000   ; qtot 0.615717
 5625         h1    117    ccc    H39   5625 0.08578000   1.008000   ; qtot 0.701497
 5626         oh    117    ccc     O5   5626 -0.58672000  16.000000   ; qtot 0.114777
 5627         ho    117    ccc    H40   5627 0.41908000   1.008000   ; qtot 0.533857
 5628         n3    117    ccc     N4   5628 -0.54282000  14.010000   ; qtot -0.008963
; residue  118 ccc rtp ccc q -0.0
 5629          n    118    ccc     N1   5629 -0.46580000  14.010000   ; qtot -0.474763
 5630         hn    118    ccc     H4   5630 0.31480000   1.008000   ; qtot -0.159963
 5631         c3    118    ccc     C3   5631 -0.28250000  12.010000   ; qtot -0.442463
 5632         h1    118    ccc     H5   5632 0.15710000   1.008000   ; qtot -0.285363
 5633         c3    118    ccc     C4   5633 0.44180000  12.010000   ; qtot 0.156437
 5634         h1    118    ccc     H6   5634 0.15710000   1.008000   ; qtot 0.313537
 5635         h1    118    ccc     H7   5635 -0.03530000   1.008000   ; qtot 0.278237
 5636         h1    118    ccc     H8   5636 -0.03530000   1.008000   ; qtot 0.242937
 5637         n3    118    ccc     N2   5637 -0.74090000  14.010000   ; qtot -0.497963
 5638         c3    118    ccc     C5   5638 0.51680000  12.010000   ; qtot 0.018837
 5639         c3    118    ccc     C6   5639 0.51680000  12.010000   ; qtot 0.535637
 5640         h1    118    ccc     H9   5640 -0.05230000   1.008000   ; qtot 0.483337
 5641         c3    118    ccc     C7   5641 -0.60390000  12.010000   ; qtot -0.120563
 5642         h1    118    ccc    H10   5642 -0.05230000   1.008000   ; qtot -0.172863
 5643         hc    118    ccc    H11   5643 0.16730000   1.008000   ; qtot -0.005563
 5644         hc    118    ccc    H12   5644 0.16730000   1.008000   ; qtot 0.161737
 5645          c    118    ccc     C8   5645 0.72110000  12.010000   ; qtot 0.882837
 5646          o    118    ccc     O2   5646 -0.61950000  16.000000   ; qtot 0.263337
 5647         h1    118    ccc    H13   5647 -0.05230000   1.008000   ; qtot 0.211037
 5648         h1    118    ccc    H14   5648 -0.05230000   1.008000   ; qtot 0.158737
 5649         c3    118    ccc     C9   5649 -0.60390000  12.010000   ; qtot -0.445163
 5650         hc    118    ccc    H15   5650 0.16730000   1.008000   ; qtot -0.277863
 5651         hc    118    ccc    H16   5651 0.16730000   1.008000   ; qtot -0.110563
 5652          c    118    ccc    C10   5652 0.72110000  12.010000   ; qtot 0.610537
 5653          o    118    ccc     O4   5653 -0.61950000  16.000000   ; qtot -0.008963
 5654         c3    118    ccc    C11   5654 0.08518000  12.010000   ; qtot 0.076217
 5655         c3    118    ccc    C12   5655 0.07918000  12.010000   ; qtot 0.155397
 5656         h1    118    ccc    H17   5656 0.06978000   1.008000   ; qtot 0.225177
 5657         c3    118    ccc    C13   5657 0.07918000  12.010000   ; qtot 0.304357
 5658         c3    118    ccc    C14   5658 0.03578000  12.010000   ; qtot 0.340137
 5659         c3    118    ccc    C15   5659 0.33498000  12.010000   ; qtot 0.675117
 5660         h1    118    ccc    H18   5660 0.06178000   1.008000   ; qtot 0.736897
 5661         h1    118    ccc    H19   5661 0.11278000   1.008000   ; qtot 0.849677
 5662         h2    118    ccc    H20   5662 0.12178000   1.008000   ; qtot 0.971457
 5663         oh    118    ccc     O1   5663 -0.56972000  16.000000   ; qtot 0.401737
 5664         oh    118    ccc     O6   5664 -0.57772000  16.000000   ; qtot -0.175983
 5665         c3    118    ccc    C16   5665 0.14548000  12.010000   ; qtot -0.030503
 5666         ho    118    ccc    H21   5666 0.40508000   1.008000   ; qtot 0.374577
 5667         hn    118    ccc    H22   5667 0.31758000   1.008000   ; qtot 0.692157
 5668         h1    118    ccc    H23   5668 0.06278000   1.008000   ; qtot 0.754937
 5669         h1    118    ccc    H24   5669 0.06278000   1.008000   ; qtot 0.817717
 5670         oh    118    ccc     O7   5670 -0.59472000  16.000000   ; qtot 0.222997
 5671         ho    118    ccc    H25   5671 0.41908000   1.008000   ; qtot 0.642077
 5672         os    118    ccc     O8   5672 -0.44552000  16.000000   ; qtot 0.196557
 5673         ho    118    ccc    H26   5673 0.41908000   1.008000   ; qtot 0.615637
 5674         h1    118    ccc    H27   5674 0.08578000   1.008000   ; qtot 0.701417
 5675         oh    118    ccc     O9   5675 -0.58672000  16.000000   ; qtot 0.114697
 5676         ho    118    ccc    H28   5676 0.41908000   1.008000   ; qtot 0.533777
 5677         n3    118    ccc     N3   5677 -0.54282000  14.010000   ; qtot -0.009043
 5678         c3    118    ccc    C17   5678 0.08518000  12.010000   ; qtot 0.076137
 5679         c3    118    ccc    C18   5679 0.07918000  12.010000   ; qtot 0.155317
 5680         h1    118    ccc    H29   5680 0.06978000   1.008000   ; qtot 0.225097
 5681         c3    118    ccc    C19   5681 0.07918000  12.010000   ; qtot 0.304277
 5682         c3    118    ccc    C20   5682 0.03578000  12.010000   ; qtot 0.340057
 5683         c3    118    ccc    C21   5683 0.33498000  12.010000   ; qtot 0.675037
 5684         h1    118    ccc    H30   5684 0.06178000   1.008000   ; qtot 0.736817
 5685         h1    118    ccc    H31   5685 0.11278000   1.008000   ; qtot 0.849597
 5686         h2    118    ccc    H32   5686 0.12178000   1.008000   ; qtot 0.971377
 5687         oh    118    ccc    O10   5687 -0.56972000  16.000000   ; qtot 0.401657
 5688         oh    118    ccc    O11   5688 -0.57772000  16.000000   ; qtot -0.176063
 5689         c3    118    ccc    C22   5689 0.14548000  12.010000   ; qtot -0.030583
 5690         ho    118    ccc    H33   5690 0.40508000   1.008000   ; qtot 0.374497
 5691         hn    118    ccc    H34   5691 0.31758000   1.008000   ; qtot 0.692077
 5692         h1    118    ccc    H35   5692 0.06278000   1.008000   ; qtot 0.754857
 5693         h1    118    ccc    H36   5693 0.06278000   1.008000   ; qtot 0.817637
 5694         oh    118    ccc    O12   5694 -0.59472000  16.000000   ; qtot 0.222917
 5695         ho    118    ccc    H37   5695 0.41908000   1.008000   ; qtot 0.641997
 5696         os    118    ccc    O13   5696 -0.44552000  16.000000   ; qtot 0.196477
 5697         ho    118    ccc    H38   5697 0.41908000   1.008000   ; qtot 0.615557
 5698         h1    118    ccc    H39   5698 0.08578000   1.008000   ; qtot 0.701337
 5699         oh    118    ccc     O5   5699 -0.58672000  16.000000   ; qtot 0.114617
 5700         ho    118    ccc    H40   5700 0.41908000   1.008000   ; qtot 0.533697
 5701         n3    118    ccc     N4   5701 -0.54282000  14.010000   ; qtot -0.009123
; residue  119 ccc rtp ccc q -0.0
 5702          n    119    ccc     N1   5702 -0.46580000  14.010000   ; qtot -0.474923
 5703         hn    119    ccc     H4   5703 0.31480000   1.008000   ; qtot -0.160123
 5704         c3    119    ccc     C3   5704 -0.28250000  12.010000   ; qtot -0.442623
 5705         h1    119    ccc     H5   5705 0.15710000   1.008000   ; qtot -0.285523
 5706         c3    119    ccc     C4   5706 0.44180000  12.010000   ; qtot 0.156277
 5707         h1    119    ccc     H6   5707 0.15710000   1.008000   ; qtot 0.313377
 5708         h1    119    ccc     H7   5708 -0.03530000   1.008000   ; qtot 0.278077
 5709         h1    119    ccc     H8   5709 -0.03530000   1.008000   ; qtot 0.242777
 5710         n3    119    ccc     N2   5710 -0.74090000  14.010000   ; qtot -0.498123
 5711         c3    119    ccc     C5   5711 0.51680000  12.010000   ; qtot 0.018677
 5712         c3    119    ccc     C6   5712 0.51680000  12.010000   ; qtot 0.535477
 5713         h1    119    ccc     H9   5713 -0.05230000   1.008000   ; qtot 0.483177
 5714         c3    119    ccc     C7   5714 -0.60390000  12.010000   ; qtot -0.120723
 5715         h1    119    ccc    H10   5715 -0.05230000   1.008000   ; qtot -0.173023
 5716         hc    119    ccc    H11   5716 0.16730000   1.008000   ; qtot -0.005723
 5717         hc    119    ccc    H12   5717 0.16730000   1.008000   ; qtot 0.161577
 5718          c    119    ccc     C8   5718 0.72110000  12.010000   ; qtot 0.882677
 5719          o    119    ccc     O2   5719 -0.61950000  16.000000   ; qtot 0.263177
 5720         h1    119    ccc    H13   5720 -0.05230000   1.008000   ; qtot 0.210877
 5721         h1    119    ccc    H14   5721 -0.05230000   1.008000   ; qtot 0.158577
 5722         c3    119    ccc     C9   5722 -0.60390000  12.010000   ; qtot -0.445323
 5723         hc    119    ccc    H15   5723 0.16730000   1.008000   ; qtot -0.278023
 5724         hc    119    ccc    H16   5724 0.16730000   1.008000   ; qtot -0.110723
 5725          c    119    ccc    C10   5725 0.72110000  12.010000   ; qtot 0.610377
 5726          o    119    ccc     O4   5726 -0.61950000  16.000000   ; qtot -0.009123
 5727         c3    119    ccc    C11   5727 0.08518000  12.010000   ; qtot 0.076057
 5728         c3    119    ccc    C12   5728 0.07918000  12.010000   ; qtot 0.155237
 5729         h1    119    ccc    H17   5729 0.06978000   1.008000   ; qtot 0.225017
 5730         c3    119    ccc    C13   5730 0.07918000  12.010000   ; qtot 0.304197
 5731         c3    119    ccc    C14   5731 0.03578000  12.010000   ; qtot 0.339977
 5732         c3    119    ccc    C15   5732 0.33498000  12.010000   ; qtot 0.674957
 5733         h1    119    ccc    H18   5733 0.06178000   1.008000   ; qtot 0.736737
 5734         h1    119    ccc    H19   5734 0.11278000   1.008000   ; qtot 0.849517
 5735         h2    119    ccc    H20   5735 0.12178000   1.008000   ; qtot 0.971297
 5736         oh    119    ccc     O1   5736 -0.56972000  16.000000   ; qtot 0.401577
 5737         oh    119    ccc     O6   5737 -0.57772000  16.000000   ; qtot -0.176143
 5738         c3    119    ccc    C16   5738 0.14548000  12.010000   ; qtot -0.030663
 5739         ho    119    ccc    H21   5739 0.40508000   1.008000   ; qtot 0.374417
 5740         hn    119    ccc    H22   5740 0.31758000   1.008000   ; qtot 0.691997
 5741         h1    119    ccc    H23   5741 0.06278000   1.008000   ; qtot 0.754777
 5742         h1    119    ccc    H24   5742 0.06278000   1.008000   ; qtot 0.817557
 5743         oh    119    ccc     O7   5743 -0.59472000  16.000000   ; qtot 0.222837
 5744         ho    119    ccc    H25   5744 0.41908000   1.008000   ; qtot 0.641917
 5745         os    119    ccc     O8   5745 -0.44552000  16.000000   ; qtot 0.196397
 5746         ho    119    ccc    H26   5746 0.41908000   1.008000   ; qtot 0.615477
 5747         h1    119    ccc    H27   5747 0.08578000   1.008000   ; qtot 0.701257
 5748         oh    119    ccc     O9   5748 -0.58672000  16.000000   ; qtot 0.114537
 5749         ho    119    ccc    H28   5749 0.41908000   1.008000   ; qtot 0.533617
 5750         n3    119    ccc     N3   5750 -0.54282000  14.010000   ; qtot -0.009203
 5751         c3    119    ccc    C17   5751 0.08518000  12.010000   ; qtot 0.075977
 5752         c3    119    ccc    C18   5752 0.07918000  12.010000   ; qtot 0.155157
 5753         h1    119    ccc    H29   5753 0.06978000   1.008000   ; qtot 0.224937
 5754         c3    119    ccc    C19   5754 0.07918000  12.010000   ; qtot 0.304117
 5755         c3    119    ccc    C20   5755 0.03578000  12.010000   ; qtot 0.339897
 5756         c3    119    ccc    C21   5756 0.33498000  12.010000   ; qtot 0.674877
 5757         h1    119    ccc    H30   5757 0.06178000   1.008000   ; qtot 0.736657
 5758         h1    119    ccc    H31   5758 0.11278000   1.008000   ; qtot 0.849437
 5759         h2    119    ccc    H32   5759 0.12178000   1.008000   ; qtot 0.971217
 5760         oh    119    ccc    O10   5760 -0.56972000  16.000000   ; qtot 0.401497
 5761         oh    119    ccc    O11   5761 -0.57772000  16.000000   ; qtot -0.176223
 5762         c3    119    ccc    C22   5762 0.14548000  12.010000   ; qtot -0.030743
 5763         ho    119    ccc    H33   5763 0.40508000   1.008000   ; qtot 0.374337
 5764         hn    119    ccc    H34   5764 0.31758000   1.008000   ; qtot 0.691917
 5765         h1    119    ccc    H35   5765 0.06278000   1.008000   ; qtot 0.754697
 5766         h1    119    ccc    H36   5766 0.06278000   1.008000   ; qtot 0.817477
 5767         oh    119    ccc    O12   5767 -0.59472000  16.000000   ; qtot 0.222757
 5768         ho    119    ccc    H37   5768 0.41908000   1.008000   ; qtot 0.641837
 5769         os    119    ccc    O13   5769 -0.44552000  16.000000   ; qtot 0.196317
 5770         ho    119    ccc    H38   5770 0.41908000   1.008000   ; qtot 0.615397
 5771         h1    119    ccc    H39   5771 0.08578000   1.008000   ; qtot 0.701177
 5772         oh    119    ccc     O5   5772 -0.58672000  16.000000   ; qtot 0.114457
 5773         ho    119    ccc    H40   5773 0.41908000   1.008000   ; qtot 0.533537
 5774         n3    119    ccc     N4   5774 -0.54282000  14.010000   ; qtot -0.009283
; residue  120 ccc rtp ccc q -0.0
 5775          n    120    ccc     N1   5775 -0.46580000  14.010000   ; qtot -0.475083
 5776         hn    120    ccc     H4   5776 0.31480000   1.008000   ; qtot -0.160283
 5777         c3    120    ccc     C3   5777 -0.28250000  12.010000   ; qtot -0.442783
 5778         h1    120    ccc     H5   5778 0.15710000   1.008000   ; qtot -0.285683
 5779         c3    120    ccc     C4   5779 0.44180000  12.010000   ; qtot 0.156117
 5780         h1    120    ccc     H6   5780 0.15710000   1.008000   ; qtot 0.313217
 5781         h1    120    ccc     H7   5781 -0.03530000   1.008000   ; qtot 0.277917
 5782         h1    120    ccc     H8   5782 -0.03530000   1.008000   ; qtot 0.242617
 5783         n3    120    ccc     N2   5783 -0.74090000  14.010000   ; qtot -0.498283
 5784         c3    120    ccc     C5   5784 0.51680000  12.010000   ; qtot 0.018517
 5785         c3    120    ccc     C6   5785 0.51680000  12.010000   ; qtot 0.535317
 5786         h1    120    ccc     H9   5786 -0.05230000   1.008000   ; qtot 0.483017
 5787         c3    120    ccc     C7   5787 -0.60390000  12.010000   ; qtot -0.120883
 5788         h1    120    ccc    H10   5788 -0.05230000   1.008000   ; qtot -0.173183
 5789         hc    120    ccc    H11   5789 0.16730000   1.008000   ; qtot -0.005883
 5790         hc    120    ccc    H12   5790 0.16730000   1.008000   ; qtot 0.161417
 5791          c    120    ccc     C8   5791 0.72110000  12.010000   ; qtot 0.882517
 5792          o    120    ccc     O2   5792 -0.61950000  16.000000   ; qtot 0.263017
 5793         h1    120    ccc    H13   5793 -0.05230000   1.008000   ; qtot 0.210717
 5794         h1    120    ccc    H14   5794 -0.05230000   1.008000   ; qtot 0.158417
 5795         c3    120    ccc     C9   5795 -0.60390000  12.010000   ; qtot -0.445483
 5796         hc    120    ccc    H15   5796 0.16730000   1.008000   ; qtot -0.278183
 5797         hc    120    ccc    H16   5797 0.16730000   1.008000   ; qtot -0.110883
 5798          c    120    ccc    C10   5798 0.72110000  12.010000   ; qtot 0.610217
 5799          o    120    ccc     O4   5799 -0.61950000  16.000000   ; qtot -0.009283
 5800         c3    120    ccc    C11   5800 0.08518000  12.010000   ; qtot 0.075897
 5801         c3    120    ccc    C12   5801 0.07918000  12.010000   ; qtot 0.155077
 5802         h1    120    ccc    H17   5802 0.06978000   1.008000   ; qtot 0.224857
 5803         c3    120    ccc    C13   5803 0.07918000  12.010000   ; qtot 0.304037
 5804         c3    120    ccc    C14   5804 0.03578000  12.010000   ; qtot 0.339817
 5805         c3    120    ccc    C15   5805 0.33498000  12.010000   ; qtot 0.674797
 5806         h1    120    ccc    H18   5806 0.06178000   1.008000   ; qtot 0.736577
 5807         h1    120    ccc    H19   5807 0.11278000   1.008000   ; qtot 0.849357
 5808         h2    120    ccc    H20   5808 0.12178000   1.008000   ; qtot 0.971137
 5809         oh    120    ccc     O1   5809 -0.56972000  16.000000   ; qtot 0.401417
 5810         oh    120    ccc     O6   5810 -0.57772000  16.000000   ; qtot -0.176303
 5811         c3    120    ccc    C16   5811 0.14548000  12.010000   ; qtot -0.030823
 5812         ho    120    ccc    H21   5812 0.40508000   1.008000   ; qtot 0.374257
 5813         hn    120    ccc    H22   5813 0.31758000   1.008000   ; qtot 0.691837
 5814         h1    120    ccc    H23   5814 0.06278000   1.008000   ; qtot 0.754617
 5815         h1    120    ccc    H24   5815 0.06278000   1.008000   ; qtot 0.817397
 5816         oh    120    ccc     O7   5816 -0.59472000  16.000000   ; qtot 0.222677
 5817         ho    120    ccc    H25   5817 0.41908000   1.008000   ; qtot 0.641757
 5818         os    120    ccc     O8   5818 -0.44552000  16.000000   ; qtot 0.196237
 5819         ho    120    ccc    H26   5819 0.41908000   1.008000   ; qtot 0.615317
 5820         h1    120    ccc    H27   5820 0.08578000   1.008000   ; qtot 0.701097
 5821         oh    120    ccc     O9   5821 -0.58672000  16.000000   ; qtot 0.114377
 5822         ho    120    ccc    H28   5822 0.41908000   1.008000   ; qtot 0.533457
 5823         n3    120    ccc     N3   5823 -0.54282000  14.010000   ; qtot -0.009363
 5824         c3    120    ccc    C17   5824 0.08518000  12.010000   ; qtot 0.075817
 5825         c3    120    ccc    C18   5825 0.07918000  12.010000   ; qtot 0.154997
 5826         h1    120    ccc    H29   5826 0.06978000   1.008000   ; qtot 0.224777
 5827         c3    120    ccc    C19   5827 0.07918000  12.010000   ; qtot 0.303957
 5828         c3    120    ccc    C20   5828 0.03578000  12.010000   ; qtot 0.339737
 5829         c3    120    ccc    C21   5829 0.33498000  12.010000   ; qtot 0.674717
 5830         h1    120    ccc    H30   5830 0.06178000   1.008000   ; qtot 0.736497
 5831         h1    120    ccc    H31   5831 0.11278000   1.008000   ; qtot 0.849277
 5832         h2    120    ccc    H32   5832 0.12178000   1.008000   ; qtot 0.971057
 5833         oh    120    ccc    O10   5833 -0.56972000  16.000000   ; qtot 0.401337
 5834         oh    120    ccc    O11   5834 -0.57772000  16.000000   ; qtot -0.176383
 5835         c3    120    ccc    C22   5835 0.14548000  12.010000   ; qtot -0.030903
 5836         ho    120    ccc    H33   5836 0.40508000   1.008000   ; qtot 0.374177
 5837         hn    120    ccc    H34   5837 0.31758000   1.008000   ; qtot 0.691757
 5838         h1    120    ccc    H35   5838 0.06278000   1.008000   ; qtot 0.754537
 5839         h1    120    ccc    H36   5839 0.06278000   1.008000   ; qtot 0.817317
 5840         oh    120    ccc    O12   5840 -0.59472000  16.000000   ; qtot 0.222597
 5841         ho    120    ccc    H37   5841 0.41908000   1.008000   ; qtot 0.641677
 5842         os    120    ccc    O13   5842 -0.44552000  16.000000   ; qtot 0.196157
 5843         ho    120    ccc    H38   5843 0.41908000   1.008000   ; qtot 0.615237
 5844         h1    120    ccc    H39   5844 0.08578000   1.008000   ; qtot 0.701017
 5845         oh    120    ccc     O5   5845 -0.58672000  16.000000   ; qtot 0.114297
 5846         ho    120    ccc    H40   5846 0.41908000   1.008000   ; qtot 0.533377
 5847         n3    120    ccc     N4   5847 -0.54282000  14.010000   ; qtot -0.009443
; residue  121 ccc rtp ccc q -0.0
 5848          n    121    ccc     N1   5848 -0.46580000  14.010000   ; qtot -0.475243
 5849         hn    121    ccc     H4   5849 0.31480000   1.008000   ; qtot -0.160443
 5850         c3    121    ccc     C3   5850 -0.28250000  12.010000   ; qtot -0.442943
 5851         h1    121    ccc     H5   5851 0.15710000   1.008000   ; qtot -0.285843
 5852         c3    121    ccc     C4   5852 0.44180000  12.010000   ; qtot 0.155957
 5853         h1    121    ccc     H6   5853 0.15710000   1.008000   ; qtot 0.313057
 5854         h1    121    ccc     H7   5854 -0.03530000   1.008000   ; qtot 0.277757
 5855         h1    121    ccc     H8   5855 -0.03530000   1.008000   ; qtot 0.242457
 5856         n3    121    ccc     N2   5856 -0.74090000  14.010000   ; qtot -0.498443
 5857         c3    121    ccc     C5   5857 0.51680000  12.010000   ; qtot 0.018357
 5858         c3    121    ccc     C6   5858 0.51680000  12.010000   ; qtot 0.535157
 5859         h1    121    ccc     H9   5859 -0.05230000   1.008000   ; qtot 0.482857
 5860         c3    121    ccc     C7   5860 -0.60390000  12.010000   ; qtot -0.121043
 5861         h1    121    ccc    H10   5861 -0.05230000   1.008000   ; qtot -0.173343
 5862         hc    121    ccc    H11   5862 0.16730000   1.008000   ; qtot -0.006043
 5863         hc    121    ccc    H12   5863 0.16730000   1.008000   ; qtot 0.161257
 5864          c    121    ccc     C8   5864 0.72110000  12.010000   ; qtot 0.882357
 5865          o    121    ccc     O2   5865 -0.61950000  16.000000   ; qtot 0.262857
 5866         h1    121    ccc    H13   5866 -0.05230000   1.008000   ; qtot 0.210557
 5867         h1    121    ccc    H14   5867 -0.05230000   1.008000   ; qtot 0.158257
 5868         c3    121    ccc     C9   5868 -0.60390000  12.010000   ; qtot -0.445643
 5869         hc    121    ccc    H15   5869 0.16730000   1.008000   ; qtot -0.278343
 5870         hc    121    ccc    H16   5870 0.16730000   1.008000   ; qtot -0.111043
 5871          c    121    ccc    C10   5871 0.72110000  12.010000   ; qtot 0.610057
 5872          o    121    ccc     O4   5872 -0.61950000  16.000000   ; qtot -0.009443
 5873         c3    121    ccc    C11   5873 0.08518000  12.010000   ; qtot 0.075737
 5874         c3    121    ccc    C12   5874 0.07918000  12.010000   ; qtot 0.154917
 5875         h1    121    ccc    H17   5875 0.06978000   1.008000   ; qtot 0.224697
 5876         c3    121    ccc    C13   5876 0.07918000  12.010000   ; qtot 0.303877
 5877         c3    121    ccc    C14   5877 0.03578000  12.010000   ; qtot 0.339657
 5878         c3    121    ccc    C15   5878 0.33498000  12.010000   ; qtot 0.674637
 5879         h1    121    ccc    H18   5879 0.06178000   1.008000   ; qtot 0.736417
 5880         h1    121    ccc    H19   5880 0.11278000   1.008000   ; qtot 0.849197
 5881         h2    121    ccc    H20   5881 0.12178000   1.008000   ; qtot 0.970977
 5882         oh    121    ccc     O1   5882 -0.56972000  16.000000   ; qtot 0.401257
 5883         oh    121    ccc     O6   5883 -0.57772000  16.000000   ; qtot -0.176463
 5884         c3    121    ccc    C16   5884 0.14548000  12.010000   ; qtot -0.030983
 5885         ho    121    ccc    H21   5885 0.40508000   1.008000   ; qtot 0.374097
 5886         hn    121    ccc    H22   5886 0.31758000   1.008000   ; qtot 0.691677
 5887         h1    121    ccc    H23   5887 0.06278000   1.008000   ; qtot 0.754457
 5888         h1    121    ccc    H24   5888 0.06278000   1.008000   ; qtot 0.817237
 5889         oh    121    ccc     O7   5889 -0.59472000  16.000000   ; qtot 0.222517
 5890         ho    121    ccc    H25   5890 0.41908000   1.008000   ; qtot 0.641597
 5891         os    121    ccc     O8   5891 -0.44552000  16.000000   ; qtot 0.196077
 5892         ho    121    ccc    H26   5892 0.41908000   1.008000   ; qtot 0.615157
 5893         h1    121    ccc    H27   5893 0.08578000   1.008000   ; qtot 0.700937
 5894         oh    121    ccc     O9   5894 -0.58672000  16.000000   ; qtot 0.114217
 5895         ho    121    ccc    H28   5895 0.41908000   1.008000   ; qtot 0.533297
 5896         n3    121    ccc     N3   5896 -0.54282000  14.010000   ; qtot -0.009523
 5897         c3    121    ccc    C17   5897 0.08518000  12.010000   ; qtot 0.075657
 5898         c3    121    ccc    C18   5898 0.07918000  12.010000   ; qtot 0.154837
 5899         h1    121    ccc    H29   5899 0.06978000   1.008000   ; qtot 0.224617
 5900         c3    121    ccc    C19   5900 0.07918000  12.010000   ; qtot 0.303797
 5901         c3    121    ccc    C20   5901 0.03578000  12.010000   ; qtot 0.339577
 5902         c3    121    ccc    C21   5902 0.33498000  12.010000   ; qtot 0.674557
 5903         h1    121    ccc    H30   5903 0.06178000   1.008000   ; qtot 0.736337
 5904         h1    121    ccc    H31   5904 0.11278000   1.008000   ; qtot 0.849117
 5905         h2    121    ccc    H32   5905 0.12178000   1.008000   ; qtot 0.970897
 5906         oh    121    ccc    O10   5906 -0.56972000  16.000000   ; qtot 0.401177
 5907         oh    121    ccc    O11   5907 -0.57772000  16.000000   ; qtot -0.176543
 5908         c3    121    ccc    C22   5908 0.14548000  12.010000   ; qtot -0.031063
 5909         ho    121    ccc    H33   5909 0.40508000   1.008000   ; qtot 0.374017
 5910         hn    121    ccc    H34   5910 0.31758000   1.008000   ; qtot 0.691597
 5911         h1    121    ccc    H35   5911 0.06278000   1.008000   ; qtot 0.754377
 5912         h1    121    ccc    H36   5912 0.06278000   1.008000   ; qtot 0.817157
 5913         oh    121    ccc    O12   5913 -0.59472000  16.000000   ; qtot 0.222437
 5914         ho    121    ccc    H37   5914 0.41908000   1.008000   ; qtot 0.641517
 5915         os    121    ccc    O13   5915 -0.44552000  16.000000   ; qtot 0.195997
 5916         ho    121    ccc    H38   5916 0.41908000   1.008000   ; qtot 0.615077
 5917         h1    121    ccc    H39   5917 0.08578000   1.008000   ; qtot 0.700857
 5918         oh    121    ccc     O5   5918 -0.58672000  16.000000   ; qtot 0.114137
 5919         ho    121    ccc    H40   5919 0.41908000   1.008000   ; qtot 0.533217
 5920         n3    121    ccc     N4   5920 -0.54282000  14.010000   ; qtot -0.009603
; residue  122 ccc rtp ccc q -0.0
 5921          n    122    ccc     N1   5921 -0.46580000  14.010000   ; qtot -0.475403
 5922         hn    122    ccc     H4   5922 0.31480000   1.008000   ; qtot -0.160603
 5923         c3    122    ccc     C3   5923 -0.28250000  12.010000   ; qtot -0.443103
 5924         h1    122    ccc     H5   5924 0.15710000   1.008000   ; qtot -0.286003
 5925         c3    122    ccc     C4   5925 0.44180000  12.010000   ; qtot 0.155797
 5926         h1    122    ccc     H6   5926 0.15710000   1.008000   ; qtot 0.312897
 5927         h1    122    ccc     H7   5927 -0.03530000   1.008000   ; qtot 0.277597
 5928         h1    122    ccc     H8   5928 -0.03530000   1.008000   ; qtot 0.242297
 5929         n3    122    ccc     N2   5929 -0.74090000  14.010000   ; qtot -0.498603
 5930         c3    122    ccc     C5   5930 0.51680000  12.010000   ; qtot 0.018197
 5931         c3    122    ccc     C6   5931 0.51680000  12.010000   ; qtot 0.534997
 5932         h1    122    ccc     H9   5932 -0.05230000   1.008000   ; qtot 0.482697
 5933         c3    122    ccc     C7   5933 -0.60390000  12.010000   ; qtot -0.121203
 5934         h1    122    ccc    H10   5934 -0.05230000   1.008000   ; qtot -0.173503
 5935         hc    122    ccc    H11   5935 0.16730000   1.008000   ; qtot -0.006203
 5936         hc    122    ccc    H12   5936 0.16730000   1.008000   ; qtot 0.161097
 5937          c    122    ccc     C8   5937 0.72110000  12.010000   ; qtot 0.882197
 5938          o    122    ccc     O2   5938 -0.61950000  16.000000   ; qtot 0.262697
 5939         h1    122    ccc    H13   5939 -0.05230000   1.008000   ; qtot 0.210397
 5940         h1    122    ccc    H14   5940 -0.05230000   1.008000   ; qtot 0.158097
 5941         c3    122    ccc     C9   5941 -0.60390000  12.010000   ; qtot -0.445803
 5942         hc    122    ccc    H15   5942 0.16730000   1.008000   ; qtot -0.278503
 5943         hc    122    ccc    H16   5943 0.16730000   1.008000   ; qtot -0.111203
 5944          c    122    ccc    C10   5944 0.72110000  12.010000   ; qtot 0.609897
 5945          o    122    ccc     O4   5945 -0.61950000  16.000000   ; qtot -0.009603
 5946         c3    122    ccc    C11   5946 0.08518000  12.010000   ; qtot 0.075577
 5947         c3    122    ccc    C12   5947 0.07918000  12.010000   ; qtot 0.154757
 5948         h1    122    ccc    H17   5948 0.06978000   1.008000   ; qtot 0.224537
 5949         c3    122    ccc    C13   5949 0.07918000  12.010000   ; qtot 0.303717
 5950         c3    122    ccc    C14   5950 0.03578000  12.010000   ; qtot 0.339497
 5951         c3    122    ccc    C15   5951 0.33498000  12.010000   ; qtot 0.674477
 5952         h1    122    ccc    H18   5952 0.06178000   1.008000   ; qtot 0.736257
 5953         h1    122    ccc    H19   5953 0.11278000   1.008000   ; qtot 0.849037
 5954         h2    122    ccc    H20   5954 0.12178000   1.008000   ; qtot 0.970817
 5955         oh    122    ccc     O1   5955 -0.56972000  16.000000   ; qtot 0.401097
 5956         oh    122    ccc     O6   5956 -0.57772000  16.000000   ; qtot -0.176623
 5957         c3    122    ccc    C16   5957 0.14548000  12.010000   ; qtot -0.031143
 5958         ho    122    ccc    H21   5958 0.40508000   1.008000   ; qtot 0.373937
 5959         hn    122    ccc    H22   5959 0.31758000   1.008000   ; qtot 0.691517
 5960         h1    122    ccc    H23   5960 0.06278000   1.008000   ; qtot 0.754297
 5961         h1    122    ccc    H24   5961 0.06278000   1.008000   ; qtot 0.817077
 5962         oh    122    ccc     O7   5962 -0.59472000  16.000000   ; qtot 0.222357
 5963         ho    122    ccc    H25   5963 0.41908000   1.008000   ; qtot 0.641437
 5964         os    122    ccc     O8   5964 -0.44552000  16.000000   ; qtot 0.195917
 5965         ho    122    ccc    H26   5965 0.41908000   1.008000   ; qtot 0.614997
 5966         h1    122    ccc    H27   5966 0.08578000   1.008000   ; qtot 0.700777
 5967         oh    122    ccc     O9   5967 -0.58672000  16.000000   ; qtot 0.114057
 5968         ho    122    ccc    H28   5968 0.41908000   1.008000   ; qtot 0.533137
 5969         n3    122    ccc     N3   5969 -0.54282000  14.010000   ; qtot -0.009683
 5970         c3    122    ccc    C17   5970 0.08518000  12.010000   ; qtot 0.075497
 5971         c3    122    ccc    C18   5971 0.07918000  12.010000   ; qtot 0.154677
 5972         h1    122    ccc    H29   5972 0.06978000   1.008000   ; qtot 0.224457
 5973         c3    122    ccc    C19   5973 0.07918000  12.010000   ; qtot 0.303637
 5974         c3    122    ccc    C20   5974 0.03578000  12.010000   ; qtot 0.339417
 5975         c3    122    ccc    C21   5975 0.33498000  12.010000   ; qtot 0.674397
 5976         h1    122    ccc    H30   5976 0.06178000   1.008000   ; qtot 0.736177
 5977         h1    122    ccc    H31   5977 0.11278000   1.008000   ; qtot 0.848957
 5978         h2    122    ccc    H32   5978 0.12178000   1.008000   ; qtot 0.970737
 5979         oh    122    ccc    O10   5979 -0.56972000  16.000000   ; qtot 0.401017
 5980         oh    122    ccc    O11   5980 -0.57772000  16.000000   ; qtot -0.176703
 5981         c3    122    ccc    C22   5981 0.14548000  12.010000   ; qtot -0.031223
 5982         ho    122    ccc    H33   5982 0.40508000   1.008000   ; qtot 0.373857
 5983         hn    122    ccc    H34   5983 0.31758000   1.008000   ; qtot 0.691437
 5984         h1    122    ccc    H35   5984 0.06278000   1.008000   ; qtot 0.754217
 5985         h1    122    ccc    H36   5985 0.06278000   1.008000   ; qtot 0.816997
 5986         oh    122    ccc    O12   5986 -0.59472000  16.000000   ; qtot 0.222277
 5987         ho    122    ccc    H37   5987 0.41908000   1.008000   ; qtot 0.641357
 5988         os    122    ccc    O13   5988 -0.44552000  16.000000   ; qtot 0.195837
 5989         ho    122    ccc    H38   5989 0.41908000   1.008000   ; qtot 0.614917
 5990         h1    122    ccc    H39   5990 0.08578000   1.008000   ; qtot 0.700697
 5991         oh    122    ccc     O5   5991 -0.58672000  16.000000   ; qtot 0.113977
 5992         ho    122    ccc    H40   5992 0.41908000   1.008000   ; qtot 0.533057
 5993         n3    122    ccc     N4   5993 -0.54282000  14.010000   ; qtot -0.009763
; residue  123 ccc rtp ccc q -0.0
 5994          n    123    ccc     N1   5994 -0.46580000  14.010000   ; qtot -0.475563
 5995         hn    123    ccc     H4   5995 0.31480000   1.008000   ; qtot -0.160763
 5996         c3    123    ccc     C3   5996 -0.28250000  12.010000   ; qtot -0.443263
 5997         h1    123    ccc     H5   5997 0.15710000   1.008000   ; qtot -0.286163
 5998         c3    123    ccc     C4   5998 0.44180000  12.010000   ; qtot 0.155637
 5999         h1    123    ccc     H6   5999 0.15710000   1.008000   ; qtot 0.312737
 6000         h1    123    ccc     H7   6000 -0.03530000   1.008000   ; qtot 0.277437
 6001         h1    123    ccc     H8   6001 -0.03530000   1.008000   ; qtot 0.242137
 6002         n3    123    ccc     N2   6002 -0.74090000  14.010000   ; qtot -0.498763
 6003         c3    123    ccc     C5   6003 0.51680000  12.010000   ; qtot 0.018037
 6004         c3    123    ccc     C6   6004 0.51680000  12.010000   ; qtot 0.534837
 6005         h1    123    ccc     H9   6005 -0.05230000   1.008000   ; qtot 0.482537
 6006         c3    123    ccc     C7   6006 -0.60390000  12.010000   ; qtot -0.121363
 6007         h1    123    ccc    H10   6007 -0.05230000   1.008000   ; qtot -0.173663
 6008         hc    123    ccc    H11   6008 0.16730000   1.008000   ; qtot -0.006363
 6009         hc    123    ccc    H12   6009 0.16730000   1.008000   ; qtot 0.160937
 6010          c    123    ccc     C8   6010 0.72110000  12.010000   ; qtot 0.882037
 6011          o    123    ccc     O2   6011 -0.61950000  16.000000   ; qtot 0.262537
 6012         h1    123    ccc    H13   6012 -0.05230000   1.008000   ; qtot 0.210237
 6013         h1    123    ccc    H14   6013 -0.05230000   1.008000   ; qtot 0.157937
 6014         c3    123    ccc     C9   6014 -0.60390000  12.010000   ; qtot -0.445963
 6015         hc    123    ccc    H15   6015 0.16730000   1.008000   ; qtot -0.278663
 6016         hc    123    ccc    H16   6016 0.16730000   1.008000   ; qtot -0.111363
 6017          c    123    ccc    C10   6017 0.72110000  12.010000   ; qtot 0.609737
 6018          o    123    ccc     O4   6018 -0.61950000  16.000000   ; qtot -0.009763
 6019         c3    123    ccc    C11   6019 0.08518000  12.010000   ; qtot 0.075417
 6020         c3    123    ccc    C12   6020 0.07918000  12.010000   ; qtot 0.154597
 6021         h1    123    ccc    H17   6021 0.06978000   1.008000   ; qtot 0.224377
 6022         c3    123    ccc    C13   6022 0.07918000  12.010000   ; qtot 0.303557
 6023         c3    123    ccc    C14   6023 0.03578000  12.010000   ; qtot 0.339337
 6024         c3    123    ccc    C15   6024 0.33498000  12.010000   ; qtot 0.674317
 6025         h1    123    ccc    H18   6025 0.06178000   1.008000   ; qtot 0.736097
 6026         h1    123    ccc    H19   6026 0.11278000   1.008000   ; qtot 0.848877
 6027         h2    123    ccc    H20   6027 0.12178000   1.008000   ; qtot 0.970657
 6028         oh    123    ccc     O1   6028 -0.56972000  16.000000   ; qtot 0.400937
 6029         oh    123    ccc     O6   6029 -0.57772000  16.000000   ; qtot -0.176783
 6030         c3    123    ccc    C16   6030 0.14548000  12.010000   ; qtot -0.031303
 6031         ho    123    ccc    H21   6031 0.40508000   1.008000   ; qtot 0.373777
 6032         hn    123    ccc    H22   6032 0.31758000   1.008000   ; qtot 0.691357
 6033         h1    123    ccc    H23   6033 0.06278000   1.008000   ; qtot 0.754137
 6034         h1    123    ccc    H24   6034 0.06278000   1.008000   ; qtot 0.816917
 6035         oh    123    ccc     O7   6035 -0.59472000  16.000000   ; qtot 0.222197
 6036         ho    123    ccc    H25   6036 0.41908000   1.008000   ; qtot 0.641277
 6037         os    123    ccc     O8   6037 -0.44552000  16.000000   ; qtot 0.195757
 6038         ho    123    ccc    H26   6038 0.41908000   1.008000   ; qtot 0.614837
 6039         h1    123    ccc    H27   6039 0.08578000   1.008000   ; qtot 0.700617
 6040         oh    123    ccc     O9   6040 -0.58672000  16.000000   ; qtot 0.113897
 6041         ho    123    ccc    H28   6041 0.41908000   1.008000   ; qtot 0.532977
 6042         n3    123    ccc     N3   6042 -0.54282000  14.010000   ; qtot -0.009843
 6043         c3    123    ccc    C17   6043 0.08518000  12.010000   ; qtot 0.075337
 6044         c3    123    ccc    C18   6044 0.07918000  12.010000   ; qtot 0.154517
 6045         h1    123    ccc    H29   6045 0.06978000   1.008000   ; qtot 0.224297
 6046         c3    123    ccc    C19   6046 0.07918000  12.010000   ; qtot 0.303477
 6047         c3    123    ccc    C20   6047 0.03578000  12.010000   ; qtot 0.339257
 6048         c3    123    ccc    C21   6048 0.33498000  12.010000   ; qtot 0.674237
 6049         h1    123    ccc    H30   6049 0.06178000   1.008000   ; qtot 0.736017
 6050         h1    123    ccc    H31   6050 0.11278000   1.008000   ; qtot 0.848797
 6051         h2    123    ccc    H32   6051 0.12178000   1.008000   ; qtot 0.970577
 6052         oh    123    ccc    O10   6052 -0.56972000  16.000000   ; qtot 0.400857
 6053         oh    123    ccc    O11   6053 -0.57772000  16.000000   ; qtot -0.176863
 6054         c3    123    ccc    C22   6054 0.14548000  12.010000   ; qtot -0.031383
 6055         ho    123    ccc    H33   6055 0.40508000   1.008000   ; qtot 0.373697
 6056         hn    123    ccc    H34   6056 0.31758000   1.008000   ; qtot 0.691277
 6057         h1    123    ccc    H35   6057 0.06278000   1.008000   ; qtot 0.754057
 6058         h1    123    ccc    H36   6058 0.06278000   1.008000   ; qtot 0.816837
 6059         oh    123    ccc    O12   6059 -0.59472000  16.000000   ; qtot 0.222117
 6060         ho    123    ccc    H37   6060 0.41908000   1.008000   ; qtot 0.641197
 6061         os    123    ccc    O13   6061 -0.44552000  16.000000   ; qtot 0.195677
 6062         ho    123    ccc    H38   6062 0.41908000   1.008000   ; qtot 0.614757
 6063         h1    123    ccc    H39   6063 0.08578000   1.008000   ; qtot 0.700537
 6064         oh    123    ccc     O5   6064 -0.58672000  16.000000   ; qtot 0.113817
 6065         ho    123    ccc    H40   6065 0.41908000   1.008000   ; qtot 0.532897
 6066         n3    123    ccc     N4   6066 -0.54282000  14.010000   ; qtot -0.009923
; residue  124 ccc rtp ccc q -0.0
 6067          n    124    ccc     N1   6067 -0.46580000  14.010000   ; qtot -0.475723
 6068         hn    124    ccc     H4   6068 0.31480000   1.008000   ; qtot -0.160923
 6069         c3    124    ccc     C3   6069 -0.28250000  12.010000   ; qtot -0.443423
 6070         h1    124    ccc     H5   6070 0.15710000   1.008000   ; qtot -0.286323
 6071         c3    124    ccc     C4   6071 0.44180000  12.010000   ; qtot 0.155477
 6072         h1    124    ccc     H6   6072 0.15710000   1.008000   ; qtot 0.312577
 6073         h1    124    ccc     H7   6073 -0.03530000   1.008000   ; qtot 0.277277
 6074         h1    124    ccc     H8   6074 -0.03530000   1.008000   ; qtot 0.241977
 6075         n3    124    ccc     N2   6075 -0.74090000  14.010000   ; qtot -0.498923
 6076         c3    124    ccc     C5   6076 0.51680000  12.010000   ; qtot 0.017877
 6077         c3    124    ccc     C6   6077 0.51680000  12.010000   ; qtot 0.534677
 6078         h1    124    ccc     H9   6078 -0.05230000   1.008000   ; qtot 0.482377
 6079         c3    124    ccc     C7   6079 -0.60390000  12.010000   ; qtot -0.121523
 6080         h1    124    ccc    H10   6080 -0.05230000   1.008000   ; qtot -0.173823
 6081         hc    124    ccc    H11   6081 0.16730000   1.008000   ; qtot -0.006523
 6082         hc    124    ccc    H12   6082 0.16730000   1.008000   ; qtot 0.160777
 6083          c    124    ccc     C8   6083 0.72110000  12.010000   ; qtot 0.881877
 6084          o    124    ccc     O2   6084 -0.61950000  16.000000   ; qtot 0.262377
 6085         h1    124    ccc    H13   6085 -0.05230000   1.008000   ; qtot 0.210077
 6086         h1    124    ccc    H14   6086 -0.05230000   1.008000   ; qtot 0.157777
 6087         c3    124    ccc     C9   6087 -0.60390000  12.010000   ; qtot -0.446123
 6088         hc    124    ccc    H15   6088 0.16730000   1.008000   ; qtot -0.278823
 6089         hc    124    ccc    H16   6089 0.16730000   1.008000   ; qtot -0.111523
 6090          c    124    ccc    C10   6090 0.72110000  12.010000   ; qtot 0.609577
 6091          o    124    ccc     O4   6091 -0.61950000  16.000000   ; qtot -0.009923
 6092         c3    124    ccc    C11   6092 0.08518000  12.010000   ; qtot 0.075257
 6093         c3    124    ccc    C12   6093 0.07918000  12.010000   ; qtot 0.154437
 6094         h1    124    ccc    H17   6094 0.06978000   1.008000   ; qtot 0.224217
 6095         c3    124    ccc    C13   6095 0.07918000  12.010000   ; qtot 0.303397
 6096         c3    124    ccc    C14   6096 0.03578000  12.010000   ; qtot 0.339177
 6097         c3    124    ccc    C15   6097 0.33498000  12.010000   ; qtot 0.674157
 6098         h1    124    ccc    H18   6098 0.06178000   1.008000   ; qtot 0.735937
 6099         h1    124    ccc    H19   6099 0.11278000   1.008000   ; qtot 0.848717
 6100         h2    124    ccc    H20   6100 0.12178000   1.008000   ; qtot 0.970497
 6101         oh    124    ccc     O1   6101 -0.56972000  16.000000   ; qtot 0.400777
 6102         oh    124    ccc     O6   6102 -0.57772000  16.000000   ; qtot -0.176943
 6103         c3    124    ccc    C16   6103 0.14548000  12.010000   ; qtot -0.031463
 6104         ho    124    ccc    H21   6104 0.40508000   1.008000   ; qtot 0.373617
 6105         hn    124    ccc    H22   6105 0.31758000   1.008000   ; qtot 0.691197
 6106         h1    124    ccc    H23   6106 0.06278000   1.008000   ; qtot 0.753977
 6107         h1    124    ccc    H24   6107 0.06278000   1.008000   ; qtot 0.816757
 6108         oh    124    ccc     O7   6108 -0.59472000  16.000000   ; qtot 0.222037
 6109         ho    124    ccc    H25   6109 0.41908000   1.008000   ; qtot 0.641117
 6110         os    124    ccc     O8   6110 -0.44552000  16.000000   ; qtot 0.195597
 6111         ho    124    ccc    H26   6111 0.41908000   1.008000   ; qtot 0.614677
 6112         h1    124    ccc    H27   6112 0.08578000   1.008000   ; qtot 0.700457
 6113         oh    124    ccc     O9   6113 -0.58672000  16.000000   ; qtot 0.113737
 6114         ho    124    ccc    H28   6114 0.41908000   1.008000   ; qtot 0.532817
 6115         n3    124    ccc     N3   6115 -0.54282000  14.010000   ; qtot -0.010003
 6116         c3    124    ccc    C17   6116 0.08518000  12.010000   ; qtot 0.075177
 6117         c3    124    ccc    C18   6117 0.07918000  12.010000   ; qtot 0.154357
 6118         h1    124    ccc    H29   6118 0.06978000   1.008000   ; qtot 0.224137
 6119         c3    124    ccc    C19   6119 0.07918000  12.010000   ; qtot 0.303317
 6120         c3    124    ccc    C20   6120 0.03578000  12.010000   ; qtot 0.339097
 6121         c3    124    ccc    C21   6121 0.33498000  12.010000   ; qtot 0.674077
 6122         h1    124    ccc    H30   6122 0.06178000   1.008000   ; qtot 0.735857
 6123         h1    124    ccc    H31   6123 0.11278000   1.008000   ; qtot 0.848637
 6124         h2    124    ccc    H32   6124 0.12178000   1.008000   ; qtot 0.970417
 6125         oh    124    ccc    O10   6125 -0.56972000  16.000000   ; qtot 0.400697
 6126         oh    124    ccc    O11   6126 -0.57772000  16.000000   ; qtot -0.177023
 6127         c3    124    ccc    C22   6127 0.14548000  12.010000   ; qtot -0.031543
 6128         ho    124    ccc    H33   6128 0.40508000   1.008000   ; qtot 0.373537
 6129         hn    124    ccc    H34   6129 0.31758000   1.008000   ; qtot 0.691117
 6130         h1    124    ccc    H35   6130 0.06278000   1.008000   ; qtot 0.753897
 6131         h1    124    ccc    H36   6131 0.06278000   1.008000   ; qtot 0.816677
 6132         oh    124    ccc    O12   6132 -0.59472000  16.000000   ; qtot 0.221957
 6133         ho    124    ccc    H37   6133 0.41908000   1.008000   ; qtot 0.641037
 6134         os    124    ccc    O13   6134 -0.44552000  16.000000   ; qtot 0.195517
 6135         ho    124    ccc    H38   6135 0.41908000   1.008000   ; qtot 0.614597
 6136         h1    124    ccc    H39   6136 0.08578000   1.008000   ; qtot 0.700377
 6137         oh    124    ccc     O5   6137 -0.58672000  16.000000   ; qtot 0.113657
 6138         ho    124    ccc    H40   6138 0.41908000   1.008000   ; qtot 0.532737
 6139         n3    124    ccc     N4   6139 -0.54282000  14.010000   ; qtot -0.010083
; residue  125 ccc rtp ccc q -0.0
 6140          n    125    ccc     N1   6140 -0.46580000  14.010000   ; qtot -0.475883
 6141         hn    125    ccc     H4   6141 0.31480000   1.008000   ; qtot -0.161083
 6142         c3    125    ccc     C3   6142 -0.28250000  12.010000   ; qtot -0.443583
 6143         h1    125    ccc     H5   6143 0.15710000   1.008000   ; qtot -0.286483
 6144         c3    125    ccc     C4   6144 0.44180000  12.010000   ; qtot 0.155317
 6145         h1    125    ccc     H6   6145 0.15710000   1.008000   ; qtot 0.312417
 6146         h1    125    ccc     H7   6146 -0.03530000   1.008000   ; qtot 0.277117
 6147         h1    125    ccc     H8   6147 -0.03530000   1.008000   ; qtot 0.241817
 6148         n3    125    ccc     N2   6148 -0.74090000  14.010000   ; qtot -0.499083
 6149         c3    125    ccc     C5   6149 0.51680000  12.010000   ; qtot 0.017717
 6150         c3    125    ccc     C6   6150 0.51680000  12.010000   ; qtot 0.534517
 6151         h1    125    ccc     H9   6151 -0.05230000   1.008000   ; qtot 0.482217
 6152         c3    125    ccc     C7   6152 -0.60390000  12.010000   ; qtot -0.121683
 6153         h1    125    ccc    H10   6153 -0.05230000   1.008000   ; qtot -0.173983
 6154         hc    125    ccc    H11   6154 0.16730000   1.008000   ; qtot -0.006683
 6155         hc    125    ccc    H12   6155 0.16730000   1.008000   ; qtot 0.160617
 6156          c    125    ccc     C8   6156 0.72110000  12.010000   ; qtot 0.881717
 6157          o    125    ccc     O2   6157 -0.61950000  16.000000   ; qtot 0.262217
 6158         h1    125    ccc    H13   6158 -0.05230000   1.008000   ; qtot 0.209917
 6159         h1    125    ccc    H14   6159 -0.05230000   1.008000   ; qtot 0.157617
 6160         c3    125    ccc     C9   6160 -0.60390000  12.010000   ; qtot -0.446283
 6161         hc    125    ccc    H15   6161 0.16730000   1.008000   ; qtot -0.278983
 6162         hc    125    ccc    H16   6162 0.16730000   1.008000   ; qtot -0.111683
 6163          c    125    ccc    C10   6163 0.72110000  12.010000   ; qtot 0.609417
 6164          o    125    ccc     O4   6164 -0.61950000  16.000000   ; qtot -0.010083
 6165         c3    125    ccc    C11   6165 0.08518000  12.010000   ; qtot 0.075097
 6166         c3    125    ccc    C12   6166 0.07918000  12.010000   ; qtot 0.154277
 6167         h1    125    ccc    H17   6167 0.06978000   1.008000   ; qtot 0.224057
 6168         c3    125    ccc    C13   6168 0.07918000  12.010000   ; qtot 0.303237
 6169         c3    125    ccc    C14   6169 0.03578000  12.010000   ; qtot 0.339017
 6170         c3    125    ccc    C15   6170 0.33498000  12.010000   ; qtot 0.673997
 6171         h1    125    ccc    H18   6171 0.06178000   1.008000   ; qtot 0.735777
 6172         h1    125    ccc    H19   6172 0.11278000   1.008000   ; qtot 0.848557
 6173         h2    125    ccc    H20   6173 0.12178000   1.008000   ; qtot 0.970337
 6174         oh    125    ccc     O1   6174 -0.56972000  16.000000   ; qtot 0.400617
 6175         oh    125    ccc     O6   6175 -0.57772000  16.000000   ; qtot -0.177103
 6176         c3    125    ccc    C16   6176 0.14548000  12.010000   ; qtot -0.031623
 6177         ho    125    ccc    H21   6177 0.40508000   1.008000   ; qtot 0.373457
 6178         hn    125    ccc    H22   6178 0.31758000   1.008000   ; qtot 0.691037
 6179         h1    125    ccc    H23   6179 0.06278000   1.008000   ; qtot 0.753817
 6180         h1    125    ccc    H24   6180 0.06278000   1.008000   ; qtot 0.816597
 6181         oh    125    ccc     O7   6181 -0.59472000  16.000000   ; qtot 0.221877
 6182         ho    125    ccc    H25   6182 0.41908000   1.008000   ; qtot 0.640957
 6183         os    125    ccc     O8   6183 -0.44552000  16.000000   ; qtot 0.195437
 6184         ho    125    ccc    H26   6184 0.41908000   1.008000   ; qtot 0.614517
 6185         h1    125    ccc    H27   6185 0.08578000   1.008000   ; qtot 0.700297
 6186         oh    125    ccc     O9   6186 -0.58672000  16.000000   ; qtot 0.113577
 6187         ho    125    ccc    H28   6187 0.41908000   1.008000   ; qtot 0.532657
 6188         n3    125    ccc     N3   6188 -0.54282000  14.010000   ; qtot -0.010163
 6189         c3    125    ccc    C17   6189 0.08518000  12.010000   ; qtot 0.075017
 6190         c3    125    ccc    C18   6190 0.07918000  12.010000   ; qtot 0.154197
 6191         h1    125    ccc    H29   6191 0.06978000   1.008000   ; qtot 0.223977
 6192         c3    125    ccc    C19   6192 0.07918000  12.010000   ; qtot 0.303157
 6193         c3    125    ccc    C20   6193 0.03578000  12.010000   ; qtot 0.338937
 6194         c3    125    ccc    C21   6194 0.33498000  12.010000   ; qtot 0.673917
 6195         h1    125    ccc    H30   6195 0.06178000   1.008000   ; qtot 0.735697
 6196         h1    125    ccc    H31   6196 0.11278000   1.008000   ; qtot 0.848477
 6197         h2    125    ccc    H32   6197 0.12178000   1.008000   ; qtot 0.970257
 6198         oh    125    ccc    O10   6198 -0.56972000  16.000000   ; qtot 0.400537
 6199         oh    125    ccc    O11   6199 -0.57772000  16.000000   ; qtot -0.177183
 6200         c3    125    ccc    C22   6200 0.14548000  12.010000   ; qtot -0.031703
 6201         ho    125    ccc    H33   6201 0.40508000   1.008000   ; qtot 0.373377
 6202         hn    125    ccc    H34   6202 0.31758000   1.008000   ; qtot 0.690957
 6203         h1    125    ccc    H35   6203 0.06278000   1.008000   ; qtot 0.753737
 6204         h1    125    ccc    H36   6204 0.06278000   1.008000   ; qtot 0.816517
 6205         oh    125    ccc    O12   6205 -0.59472000  16.000000   ; qtot 0.221797
 6206         ho    125    ccc    H37   6206 0.41908000   1.008000   ; qtot 0.640877
 6207         os    125    ccc    O13   6207 -0.44552000  16.000000   ; qtot 0.195357
 6208         ho    125    ccc    H38   6208 0.41908000   1.008000   ; qtot 0.614437
 6209         h1    125    ccc    H39   6209 0.08578000   1.008000   ; qtot 0.700217
 6210         oh    125    ccc     O5   6210 -0.58672000  16.000000   ; qtot 0.113497
 6211         ho    125    ccc    H40   6211 0.41908000   1.008000   ; qtot 0.532577
 6212         n3    125    ccc     N4   6212 -0.54282000  14.010000   ; qtot -0.010243

[ bonds ]
;    ai     aj funct         c0         c1         c2         c3
      1      4     1   0.15375 251793.120000
      1      8     1   0.14647 272713.120000
      4      7     1   0.14647 272713.120000
      7     15     1   0.14647 272713.120000
      7     18     1   0.14647 272713.120000
      8      9     1   0.14647 272713.120000
      8     12     1   0.14647 272713.120000
      9     30     1   0.15375 251793.120000
     12     27     1   0.15375 251793.120000
     15     21     1   0.15375 251793.120000
     18     24     1   0.15375 251793.120000
     21     35     1   0.15241 261918.400000
     24     36     1   0.15241 261918.400000
     27     33     1   0.15241 261918.400000
     30     34     1   0.15241 261918.400000
     33     37     1   0.12183 533627.360000
     33     64     1   0.13789 357815.680000
     34     40     1   0.12183 533627.360000
     34     89     1   0.13789 357815.680000
     35     38     1   0.12183 533627.360000
     35    114     1   0.13789 357815.680000
     36     39     1   0.12183 533627.360000
     36    139     1   0.13789 357815.680000
     41     44     1   0.15375 251793.120000
     41     47     1   0.14647 272713.120000
     44     64     1   0.14619 275056.160000
     47     48     1   0.14647 272713.120000
     47     51     1   0.14647 272713.120000
     48     57     1   0.15375 251793.120000
     51     54     1   0.15375 251793.120000
     54     60     1   0.15241 261918.400000
     57     61     1   0.15241 261918.400000
     60     62     1   0.12183 533627.360000
     60    164     1   0.13789 357815.680000
     61     63     1   0.12183 533627.360000
     61    189     1   0.13789 357815.680000
     66     69     1   0.15375 251793.120000
     66     72     1   0.14647 272713.120000
     69     89     1   0.14619 275056.160000
     72     73     1   0.14647 272713.120000
     72     76     1   0.14647 272713.120000
     73     82     1   0.15375 251793.120000
     76     79     1   0.15375 251793.120000
     79     85     1   0.15241 261918.400000
     82     86     1   0.15241 261918.400000
     85     87     1   0.12183 533627.360000
     85    214     1   0.13789 357815.680000
     86     88     1   0.12183 533627.360000
     86    239     1   0.13789 357815.680000
     91     94     1   0.15375 251793.120000
     91     97     1   0.14647 272713.120000
     94    114     1   0.14619 275056.160000
     97     98     1   0.14647 272713.120000
     97    101     1   0.14647 272713.120000
     98    107     1   0.15375 251793.120000
    101    104     1   0.15375 251793.120000
    104    110     1   0.15241 261918.400000
    107    111     1   0.15241 261918.400000
    110    112     1   0.12183 533627.360000
    110    264     1   0.13789 357815.680000
    111    113     1   0.12183 533627.360000
    111    289     1   0.13789 357815.680000
    116    119     1   0.15375 251793.120000
    116    122     1   0.14647 272713.120000
    119    139     1   0.14619 275056.160000
    122    123     1   0.14647 272713.120000
    122    126     1   0.14647 272713.120000
    123    132     1   0.15375 251793.120000
    126    129     1   0.15375 251793.120000
    129    135     1   0.15241 261918.400000
    132    136     1   0.15241 261918.400000
    135    137     1   0.12183 533627.360000
    135    314     1   0.13789 357815.680000
    136    138     1   0.12183 533627.360000
    136    339     1   0.13789 357815.680000
    141    144     1   0.15375 251793.120000
    141    147     1   0.14647 272713.120000
    144    164     1   0.14619 275056.160000
    147    148     1   0.14647 272713.120000
    147    151     1   0.14647 272713.120000
    148    157     1   0.15375 251793.120000
    151    154     1   0.15375 251793.120000
    154    160     1   0.15241 261918.400000
    157    161     1   0.15241 261918.400000
    160    162     1   0.12183 533627.360000
    160    364     1   0.13789 357815.680000
    161    163     1   0.12183 533627.360000
    161    389     1   0.13789 357815.680000
    166    169     1   0.15375 251793.120000
    166    172     1   0.14647 272713.120000
    169    189     1   0.14619 275056.160000
    172    173     1   0.14647 272713.120000
    172    176     1   0.14647 272713.120000
    173    182     1   0.15375 251793.120000
    176    179     1   0.15375 251793.120000
    179    185     1   0.15241 261918.400000
    182    186     1   0.15241 261918.400000
    185    187     1   0.12183 533627.360000
    185    414     1   0.13789 357815.680000
    186    188     1   0.12183 533627.360000
    186    439     1   0.13789 357815.680000
    191    194     1   0.15375 251793.120000
    191    197     1   0.14647 272713.120000
    194    214     1   0.14619 275056.160000
    197    198     1   0.14647 272713.120000
    197    201     1   0.14647 272713.120000
    198    207     1   0.15375 251793.120000
    201    204     1   0.15375 251793.120000
    204    210     1   0.15241 261918.400000
    207    211     1   0.15241 261918.400000
    210    212     1   0.12183 533627.360000
    210    464     1   0.13789 357815.680000
    211    213     1   0.12183 533627.360000
    211    489     1   0.13789 357815.680000
    216    219     1   0.15375 251793.120000
    216    222     1   0.14647 272713.120000
    219    239     1   0.14619 275056.160000
    222    223     1   0.14647 272713.120000
    222    226     1   0.14647 272713.120000
    223    232     1   0.15375 251793.120000
    226    229     1   0.15375 251793.120000
    229    235     1   0.15241 261918.400000
    232    236     1   0.15241 261918.400000
    235    237     1   0.12183 533627.360000
    235    514     1   0.13789 357815.680000
    236    238     1   0.12183 533627.360000
    236    539     1   0.13789 357815.680000
    241    244     1   0.15375 251793.120000
    241    247     1   0.14647 272713.120000
    244    264     1   0.14619 275056.160000
    247    248     1   0.14647 272713.120000
    247    251     1   0.14647 272713.120000
    248    257     1   0.15375 251793.120000
    251    254     1   0.15375 251793.120000
    254    260     1   0.15241 261918.400000
    257    261     1   0.15241 261918.400000
    260    262     1   0.12183 533627.360000
    260    564     1   0.13789 357815.680000
    261    263     1   0.12183 533627.360000
    261    589     1   0.13789 357815.680000
    266    269     1   0.15375 251793.120000
    266    272     1   0.14647 272713.120000
    269    289     1   0.14619 275056.160000
    272    273     1   0.14647 272713.120000
    272    276     1   0.14647 272713.120000
    273    282     1   0.15375 251793.120000
    276    279     1   0.15375 251793.120000
    279    285     1   0.15241 261918.400000
    282    286     1   0.15241 261918.400000
    285    287     1   0.12183 533627.360000
    285    614     1   0.13789 357815.680000
    286    288     1   0.12183 533627.360000
    286    639     1   0.13789 357815.680000
    291    294     1   0.15375 251793.120000
    291    297     1   0.14647 272713.120000
    294    314     1   0.14619 275056.160000
    297    298     1   0.14647 272713.120000
    297    301     1   0.14647 272713.120000
    298    307     1   0.15375 251793.120000
    301    304     1   0.15375 251793.120000
    304    310     1   0.15241 261918.400000
    307    311     1   0.15241 261918.400000
    310    312     1   0.12183 533627.360000
    310    664     1   0.13789 357815.680000
    311    313     1   0.12183 533627.360000
    311    689     1   0.13789 357815.680000
    316    319     1   0.15375 251793.120000
    316    322     1   0.14647 272713.120000
    319    339     1   0.14619 275056.160000
    322    323     1   0.14647 272713.120000
    322    326     1   0.14647 272713.120000
    323    332     1   0.15375 251793.120000
    326    329     1   0.15375 251793.120000
    329    335     1   0.15241 261918.400000
    332    336     1   0.15241 261918.400000
    335    337     1   0.12183 533627.360000
    335    714     1   0.13789 357815.680000
    336    338     1   0.12183 533627.360000
    336    739     1   0.13789 357815.680000
    341    344     1   0.15375 251793.120000
    341    347     1   0.14647 272713.120000
    344    364     1   0.14619 275056.160000
    347    348     1   0.14647 272713.120000
    347    351     1   0.14647 272713.120000
    348    357     1   0.15375 251793.120000
    351    354     1   0.15375 251793.120000
    354    360     1   0.15241 261918.400000
    357    361     1   0.15241 261918.400000
    360    362     1   0.12183 533627.360000
    360    764     1   0.13789 357815.680000
    361    363     1   0.12183 533627.360000
    361    789     1   0.13789 357815.680000
    366    369     1   0.15375 251793.120000
    366    372     1   0.14647 272713.120000
    369    389     1   0.14619 275056.160000
    372    373     1   0.14647 272713.120000
    372    376     1   0.14647 272713.120000
    373    382     1   0.15375 251793.120000
    376    379     1   0.15375 251793.120000
    379    385     1   0.15241 261918.400000
    382    386     1   0.15241 261918.400000
    385    387     1   0.12183 533627.360000
    385    814     1   0.13789 357815.680000
    386    388     1   0.12183 533627.360000
    386    839     1   0.13789 357815.680000
    391    394     1   0.15375 251793.120000
    391    397     1   0.14647 272713.120000
    394    414     1   0.14619 275056.160000
    397    398     1   0.14647 272713.120000
    397    401     1   0.14647 272713.120000
    398    407     1   0.15375 251793.120000
    401    404     1   0.15375 251793.120000
    404    410     1   0.15241 261918.400000
    407    411     1   0.15241 261918.400000
    410    412     1   0.12183 533627.360000
    410    864     1   0.13789 357815.680000
    411    413     1   0.12183 533627.360000
    411    889     1   0.13789 357815.680000
    416    419     1   0.15375 251793.120000
    416    422     1   0.14647 272713.120000
    419    439     1   0.14619 275056.160000
    422    423     1   0.14647 272713.120000
    422    426     1   0.14647 272713.120000
    423    432     1   0.15375 251793.120000
    426    429     1   0.15375 251793.120000
    429    435     1   0.15241 261918.400000
    432    436     1   0.15241 261918.400000
    435    437     1   0.12183 533627.360000
    435    914     1   0.13789 357815.680000
    436    438     1   0.12183 533627.360000
    436    939     1   0.13789 357815.680000
    441    444     1   0.15375 251793.120000
    441    447     1   0.14647 272713.120000
    444    464     1   0.14619 275056.160000
    447    448     1   0.14647 272713.120000
    447    451     1   0.14647 272713.120000
    448    457     1   0.15375 251793.120000
    451    454     1   0.15375 251793.120000
    454    460     1   0.15241 261918.400000
    457    461     1   0.15241 261918.400000
    460    462     1   0.12183 533627.360000
    460    964     1   0.13789 357815.680000
    461    463     1   0.12183 533627.360000
    461    989     1   0.13789 357815.680000
    466    469     1   0.15375 251793.120000
    466    472     1   0.14647 272713.120000
    469    489     1   0.14619 275056.160000
    472    473     1   0.14647 272713.120000
    472    476     1   0.14647 272713.120000
    473    482     1   0.15375 251793.120000
    476    479     1   0.15375 251793.120000
    479    485     1   0.15241 261918.400000
    482    486     1   0.15241 261918.400000
    485    487     1   0.12183 533627.360000
    485   1014     1   0.13789 357815.680000
    486    488     1   0.12183 533627.360000
    486   1039     1   0.13789 357815.680000
    491    494     1   0.15375 251793.120000
    491    497     1   0.14647 272713.120000
    494    514     1   0.14619 275056.160000
    497    498     1   0.14647 272713.120000
    497    501     1   0.14647 272713.120000
    498    507     1   0.15375 251793.120000
    501    504     1   0.15375 251793.120000
    504    510     1   0.15241 261918.400000
    507    511     1   0.15241 261918.400000
    510    512     1   0.12183 533627.360000
    510   1064     1   0.13789 357815.680000
    511    513     1   0.12183 533627.360000
    511   1089     1   0.13789 357815.680000
    516    519     1   0.15375 251793.120000
    516    522     1   0.14647 272713.120000
    519    539     1   0.14619 275056.160000
    522    523     1   0.14647 272713.120000
    522    526     1   0.14647 272713.120000
    523    532     1   0.15375 251793.120000
    526    529     1   0.15375 251793.120000
    529    535     1   0.15241 261918.400000
    532    536     1   0.15241 261918.400000
    535    537     1   0.12183 533627.360000
    535   1114     1   0.13789 357815.680000
    536    538     1   0.12183 533627.360000
    536   1139     1   0.13789 357815.680000
    541    544     1   0.15375 251793.120000
    541    547     1   0.14647 272713.120000
    544    564     1   0.14619 275056.160000
    547    548     1   0.14647 272713.120000
    547    551     1   0.14647 272713.120000
    548    557     1   0.15375 251793.120000
    551    554     1   0.15375 251793.120000
    554    560     1   0.15241 261918.400000
    557    561     1   0.15241 261918.400000
    560    562     1   0.12183 533627.360000
    560   1164     1   0.13789 357815.680000
    561    563     1   0.12183 533627.360000
    561   1189     1   0.13789 357815.680000
    566    569     1   0.15375 251793.120000
    566    572     1   0.14647 272713.120000
    569    589     1   0.14619 275056.160000
    572    573     1   0.14647 272713.120000
    572    576     1   0.14647 272713.120000
    573    582     1   0.15375 251793.120000
    576    579     1   0.15375 251793.120000
    579    585     1   0.15241 261918.400000
    582    586     1   0.15241 261918.400000
    585    587     1   0.12183 533627.360000
    585   1214     1   0.13789 357815.680000
    586    588     1   0.12183 533627.360000
    586   1239     1   0.13789 357815.680000
    591    594     1   0.15375 251793.120000
    591    597     1   0.14647 272713.120000
    594    614     1   0.14619 275056.160000
    597    598     1   0.14647 272713.120000
    597    601     1   0.14647 272713.120000
    598    607     1   0.15375 251793.120000
    601    604     1   0.15375 251793.120000
    604    610     1   0.15241 261918.400000
    607    611     1   0.15241 261918.400000
    610    612     1   0.12183 533627.360000
    610   1264     1   0.13789 357815.680000
    611    613     1   0.12183 533627.360000
    611   1289     1   0.13789 357815.680000
    616    619     1   0.15375 251793.120000
    616    622     1   0.14647 272713.120000
    619    639     1   0.14619 275056.160000
    622    623     1   0.14647 272713.120000
    622    626     1   0.14647 272713.120000
    623    632     1   0.15375 251793.120000
    626    629     1   0.15375 251793.120000
    629    635     1   0.15241 261918.400000
    632    636     1   0.15241 261918.400000
    635    637     1   0.12183 533627.360000
    635   1314     1   0.13789 357815.680000
    636    638     1   0.12183 533627.360000
    636   1339     1   0.13789 357815.680000
    641    644     1   0.15375 251793.120000
    641    647     1   0.14647 272713.120000
    644    664     1   0.14619 275056.160000
    647    648     1   0.14647 272713.120000
    647    651     1   0.14647 272713.120000
    648    657     1   0.15375 251793.120000
    651    654     1   0.15375 251793.120000
    654    660     1   0.15241 261918.400000
    657    661     1   0.15241 261918.400000
    660    662     1   0.12183 533627.360000
    660   1364     1   0.13789 357815.680000
    661    663     1   0.12183 533627.360000
    661   1389     1   0.13789 357815.680000
    666    669     1   0.15375 251793.120000
    666    672     1   0.14647 272713.120000
    669    689     1   0.14619 275056.160000
    672    673     1   0.14647 272713.120000
    672    676     1   0.14647 272713.120000
    673    682     1   0.15375 251793.120000
    676    679     1   0.15375 251793.120000
    679    685     1   0.15241 261918.400000
    682    686     1   0.15241 261918.400000
    685    687     1   0.12183 533627.360000
    685   1414     1   0.13789 357815.680000
    686    688     1   0.12183 533627.360000
    686   1439     1   0.13789 357815.680000
    691    694     1   0.15375 251793.120000
    691    697     1   0.14647 272713.120000
    694    714     1   0.14619 275056.160000
    697    698     1   0.14647 272713.120000
    697    701     1   0.14647 272713.120000
    698    707     1   0.15375 251793.120000
    701    704     1   0.15375 251793.120000
    704    710     1   0.15241 261918.400000
    707    711     1   0.15241 261918.400000
    710    712     1   0.12183 533627.360000
    710   1464     1   0.13789 357815.680000
    711    713     1   0.12183 533627.360000
    711   1489     1   0.13789 357815.680000
    716    719     1   0.15375 251793.120000
    716    722     1   0.14647 272713.120000
    719    739     1   0.14619 275056.160000
    722    723     1   0.14647 272713.120000
    722    726     1   0.14647 272713.120000
    723    732     1   0.15375 251793.120000
    726    729     1   0.15375 251793.120000
    729    735     1   0.15241 261918.400000
    732    736     1   0.15241 261918.400000
    735    737     1   0.12183 533627.360000
    735   1514     1   0.13789 357815.680000
    736    738     1   0.12183 533627.360000
    736   1539     1   0.13789 357815.680000
    741    744     1   0.15375 251793.120000
    741    747     1   0.14647 272713.120000
    744    764     1   0.14619 275056.160000
    747    748     1   0.14647 272713.120000
    747    751     1   0.14647 272713.120000
    748    757     1   0.15375 251793.120000
    751    754     1   0.15375 251793.120000
    754    760     1   0.15241 261918.400000
    757    761     1   0.15241 261918.400000
    760   1541     1   0.13789 357815.680000
    760    762     1   0.12183 533627.360000
    761    763     1   0.12183 533627.360000
    761   1614     1   0.13789 357815.680000
    766    769     1   0.15375 251793.120000
    766    772     1   0.14647 272713.120000
    769    789     1   0.14619 275056.160000
    772    773     1   0.14647 272713.120000
    772    776     1   0.14647 272713.120000
    773    782     1   0.15375 251793.120000
    776    779     1   0.15375 251793.120000
    779    785     1   0.15241 261918.400000
    782    786     1   0.15241 261918.400000
    785   1687     1   0.13789 357815.680000
    785    787     1   0.12183 533627.360000
    786    788     1   0.12183 533627.360000
    786   1760     1   0.13789 357815.680000
    791    794     1   0.15375 251793.120000
    791    797     1   0.14647 272713.120000
    794    814     1   0.14619 275056.160000
    797    798     1   0.14647 272713.120000
    797    801     1   0.14647 272713.120000
    798    807     1   0.15375 251793.120000
    801    804     1   0.15375 251793.120000
    804    810     1   0.15241 261918.400000
    807    811     1   0.15241 261918.400000
    810   1833     1   0.13789 357815.680000
    810    812     1   0.12183 533627.360000
    811    813     1   0.12183 533627.360000
    811   1906     1   0.13789 357815.680000
    816    819     1   0.15375 251793.120000
    816    822     1   0.14647 272713.120000
    819    839     1   0.14619 275056.160000
    822    823     1   0.14647 272713.120000
    822    826     1   0.14647 272713.120000
    823    832     1   0.15375 251793.120000
    826    829     1   0.15375 251793.120000
    829    835     1   0.15241 261918.400000
    832    836     1   0.15241 261918.400000
    835   1979     1   0.13789 357815.680000
    835    837     1   0.12183 533627.360000
    836    838     1   0.12183 533627.360000
    836   2052     1   0.13789 357815.680000
    841    844     1   0.15375 251793.120000
    841    847     1   0.14647 272713.120000
    844    864     1   0.14619 275056.160000
    847    848     1   0.14647 272713.120000
    847    851     1   0.14647 272713.120000
    848    857     1   0.15375 251793.120000
    851    854     1   0.15375 251793.120000
    854    860     1   0.15241 261918.400000
    857    861     1   0.15241 261918.400000
    860   2125     1   0.13789 357815.680000
    860    862     1   0.12183 533627.360000
    861    863     1   0.12183 533627.360000
    861   2198     1   0.13789 357815.680000
    866    869     1   0.15375 251793.120000
    866    872     1   0.14647 272713.120000
    869    889     1   0.14619 275056.160000
    872    873     1   0.14647 272713.120000
    872    876     1   0.14647 272713.120000
    873    882     1   0.15375 251793.120000
    876    879     1   0.15375 251793.120000
    879    885     1   0.15241 261918.400000
    882    886     1   0.15241 261918.400000
    885   2271     1   0.13789 357815.680000
    885    887     1   0.12183 533627.360000
    886    888     1   0.12183 533627.360000
    886   2344     1   0.13789 357815.680000
    891    894     1   0.15375 251793.120000
    891    897     1   0.14647 272713.120000
    894    914     1   0.14619 275056.160000
    897    898     1   0.14647 272713.120000
    897    901     1   0.14647 272713.120000
    898    907     1   0.15375 251793.120000
    901    904     1   0.15375 251793.120000
    904    910     1   0.15241 261918.400000
    907    911     1   0.15241 261918.400000
    910   2417     1   0.13789 357815.680000
    910    912     1   0.12183 533627.360000
    911    913     1   0.12183 533627.360000
    911   2490     1   0.13789 357815.680000
    916    919     1   0.15375 251793.120000
    916    922     1   0.14647 272713.120000
    919    939     1   0.14619 275056.160000
    922    923     1   0.14647 272713.120000
    922    926     1   0.14647 272713.120000
    923    932     1   0.15375 251793.120000
    926    929     1   0.15375 251793.120000
    929    935     1   0.15241 261918.400000
    932    936     1   0.15241 261918.400000
    935   2563     1   0.13789 357815.680000
    935    937     1   0.12183 533627.360000
    936    938     1   0.12183 533627.360000
    936   2636     1   0.13789 357815.680000
    941    944     1   0.15375 251793.120000
    941    947     1   0.14647 272713.120000
    944    964     1   0.14619 275056.160000
    947    948     1   0.14647 272713.120000
    947    951     1   0.14647 272713.120000
    948    957     1   0.15375 251793.120000
    951    954     1   0.15375 251793.120000
    954    960     1   0.15241 261918.400000
    957    961     1   0.15241 261918.400000
    960   2709     1   0.13789 357815.680000
    960    962     1   0.12183 533627.360000
    961    963     1   0.12183 533627.360000
    961   2782     1   0.13789 357815.680000
    966    969     1   0.15375 251793.120000
    966    972     1   0.14647 272713.120000
    969    989     1   0.14619 275056.160000
    972    973     1   0.14647 272713.120000
    972    976     1   0.14647 272713.120000
    973    982     1   0.15375 251793.120000
    976    979     1   0.15375 251793.120000
    979    985     1   0.15241 261918.400000
    982    986     1   0.15241 261918.400000
    985   2855     1   0.13789 357815.680000
    985    987     1   0.12183 533627.360000
    986    988     1   0.12183 533627.360000
    986   2928     1   0.13789 357815.680000
    991    994     1   0.15375 251793.120000
    991    997     1   0.14647 272713.120000
    994   1014     1   0.14619 275056.160000
    997    998     1   0.14647 272713.120000
    997   1001     1   0.14647 272713.120000
    998   1007     1   0.15375 251793.120000
   1001   1004     1   0.15375 251793.120000
   1004   1010     1   0.15241 261918.400000
   1007   1011     1   0.15241 261918.400000
   1010   3001     1   0.13789 357815.680000
   1010   1012     1   0.12183 533627.360000
   1011   1013     1   0.12183 533627.360000
   1011   3074     1   0.13789 357815.680000
   1016   1019     1   0.15375 251793.120000
   1016   1022     1   0.14647 272713.120000
   1019   1039     1   0.14619 275056.160000
   1022   1023     1   0.14647 272713.120000
   1022   1026     1   0.14647 272713.120000
   1023   1032     1   0.15375 251793.120000
   1026   1029     1   0.15375 251793.120000
   1029   1035     1   0.15241 261918.400000
   1032   1036     1   0.15241 261918.400000
   1035   3147     1   0.13789 357815.680000
   1035   1037     1   0.12183 533627.360000
   1036   1038     1   0.12183 533627.360000
   1036   3220     1   0.13789 357815.680000
   1041   1044     1   0.15375 251793.120000
   1041   1047     1   0.14647 272713.120000
   1044   1064     1   0.14619 275056.160000
   1047   1048     1   0.14647 272713.120000
   1047   1051     1   0.14647 272713.120000
   1048   1057     1   0.15375 251793.120000
   1051   1054     1   0.15375 251793.120000
   1054   1060     1   0.15241 261918.400000
   1057   1061     1   0.15241 261918.400000
   1060   3293     1   0.13789 357815.680000
   1060   1062     1   0.12183 533627.360000
   1061   1063     1   0.12183 533627.360000
   1061   3366     1   0.13789 357815.680000
   1066   1069     1   0.15375 251793.120000
   1066   1072     1   0.14647 272713.120000
   1069   1089     1   0.14619 275056.160000
   1072   1073     1   0.14647 272713.120000
   1072   1076     1   0.14647 272713.120000
   1073   1082     1   0.15375 251793.120000
   1076   1079     1   0.15375 251793.120000
   1079   1085     1   0.15241 261918.400000
   1082   1086     1   0.15241 261918.400000
   1085   3439     1   0.13789 357815.680000
   1085   1087     1   0.12183 533627.360000
   1086   1088     1   0.12183 533627.360000
   1086   3512     1   0.13789 357815.680000
   1091   1094     1   0.15375 251793.120000
   1091   1097     1   0.14647 272713.120000
   1094   1114     1   0.14619 275056.160000
   1097   1098     1   0.14647 272713.120000
   1097   1101     1   0.14647 272713.120000
   1098   1107     1   0.15375 251793.120000
   1101   1104     1   0.15375 251793.120000
   1104   1110     1   0.15241 261918.400000
   1107   1111     1   0.15241 261918.400000
   1110   3585     1   0.13789 357815.680000
   1110   1112     1   0.12183 533627.360000
   1111   1113     1   0.12183 533627.360000
   1111   3658     1   0.13789 357815.680000
   1116   1119     1   0.15375 251793.120000
   1116   1122     1   0.14647 272713.120000
   1119   1139     1   0.14619 275056.160000
   1122   1123     1   0.14647 272713.120000
   1122   1126     1   0.14647 272713.120000
   1123   1132     1   0.15375 251793.120000
   1126   1129     1   0.15375 251793.120000
   1129   1135     1   0.15241 261918.400000
   1132   1136     1   0.15241 261918.400000
   1135   3731     1   0.13789 357815.680000
   1135   1137     1   0.12183 533627.360000
   1136   1138     1   0.12183 533627.360000
   1136   3804     1   0.13789 357815.680000
   1141   1144     1   0.15375 251793.120000
   1141   1147     1   0.14647 272713.120000
   1144   1164     1   0.14619 275056.160000
   1147   1148     1   0.14647 272713.120000
   1147   1151     1   0.14647 272713.120000
   1148   1157     1   0.15375 251793.120000
   1151   1154     1   0.15375 251793.120000
   1154   1160     1   0.15241 261918.400000
   1157   1161     1   0.15241 261918.400000
   1160   3877     1   0.13789 357815.680000
   1160   1162     1   0.12183 533627.360000
   1161   1163     1   0.12183 533627.360000
   1161   3950     1   0.13789 357815.680000
   1166   1169     1   0.15375 251793.120000
   1166   1172     1   0.14647 272713.120000
   1169   1189     1   0.14619 275056.160000
   1172   1173     1   0.14647 272713.120000
   1172   1176     1   0.14647 272713.120000
   1173   1182     1   0.15375 251793.120000
   1176   1179     1   0.15375 251793.120000
   1179   1185     1   0.15241 261918.400000
   1182   1186     1   0.15241 261918.400000
   1185   4023     1   0.13789 357815.680000
   1185   1187     1   0.12183 533627.360000
   1186   1188     1   0.12183 533627.360000
   1186   4096     1   0.13789 357815.680000
   1191   1194     1   0.15375 251793.120000
   1191   1197     1   0.14647 272713.120000
   1194   1214     1   0.14619 275056.160000
   1197   1198     1   0.14647 272713.120000
   1197   1201     1   0.14647 272713.120000
   1198   1207     1   0.15375 251793.120000
   1201   1204     1   0.15375 251793.120000
   1204   1210     1   0.15241 261918.400000
   1207   1211     1   0.15241 261918.400000
   1210   4169     1   0.13789 357815.680000
   1210   1212     1   0.12183 533627.360000
   1211   1213     1   0.12183 533627.360000
   1211   4242     1   0.13789 357815.680000
   1216   1219     1   0.15375 251793.120000
   1216   1222     1   0.14647 272713.120000
   1219   1239     1   0.14619 275056.160000
   1222   1223     1   0.14647 272713.120000
   1222   1226     1   0.14647 272713.120000
   1223   1232     1   0.15375 251793.120000
   1226   1229     1   0.15375 251793.120000
   1229   1235     1   0.15241 261918.400000
   1232   1236     1   0.15241 261918.400000
   1235   4315     1   0.13789 357815.680000
   1235   1237     1   0.12183 533627.360000
   1236   1238     1   0.12183 533627.360000
   1236   4388     1   0.13789 357815.680000
   1241   1244     1   0.15375 251793.120000
   1241   1247     1   0.14647 272713.120000
   1244   1264     1   0.14619 275056.160000
   1247   1248     1   0.14647 272713.120000
   1247   1251     1   0.14647 272713.120000
   1248   1257     1   0.15375 251793.120000
   1251   1254     1   0.15375 251793.120000
   1254   1260     1   0.15241 261918.400000
   1257   1261     1   0.15241 261918.400000
   1260   4461     1   0.13789 357815.680000
   1260   1262     1   0.12183 533627.360000
   1261   1263     1   0.12183 533627.360000
   1261   4534     1   0.13789 357815.680000
   1266   1269     1   0.15375 251793.120000
   1266   1272     1   0.14647 272713.120000
   1269   1289     1   0.14619 275056.160000
   1272   1273     1   0.14647 272713.120000
   1272   1276     1   0.14647 272713.120000
   1273   1282     1   0.15375 251793.120000
   1276   1279     1   0.15375 251793.120000
   1279   1285     1   0.15241 261918.400000
   1282   1286     1   0.15241 261918.400000
   1285   4607     1   0.13789 357815.680000
   1285   1287     1   0.12183 533627.360000
   1286   1288     1   0.12183 533627.360000
   1286   4680     1   0.13789 357815.680000
   1291   1294     1   0.15375 251793.120000
   1291   1297     1   0.14647 272713.120000
   1294   1314     1   0.14619 275056.160000
   1297   1298     1   0.14647 272713.120000
   1297   1301     1   0.14647 272713.120000
   1298   1307     1   0.15375 251793.120000
   1301   1304     1   0.15375 251793.120000
   1304   1310     1   0.15241 261918.400000
   1307   1311     1   0.15241 261918.400000
   1310   4753     1   0.13789 357815.680000
   1310   1312     1   0.12183 533627.360000
   1311   1313     1   0.12183 533627.360000
   1311   4826     1   0.13789 357815.680000
   1316   1319     1   0.15375 251793.120000
   1316   1322     1   0.14647 272713.120000
   1319   1339     1   0.14619 275056.160000
   1322   1323     1   0.14647 272713.120000
   1322   1326     1   0.14647 272713.120000
   1323   1332     1   0.15375 251793.120000
   1326   1329     1   0.15375 251793.120000
   1329   1335     1   0.15241 261918.400000
   1332   1336     1   0.15241 261918.400000
   1335   4899     1   0.13789 357815.680000
   1335   1337     1   0.12183 533627.360000
   1336   1338     1   0.12183 533627.360000
   1336   4972     1   0.13789 357815.680000
   1341   1344     1   0.15375 251793.120000
   1341   1347     1   0.14647 272713.120000
   1344   1364     1   0.14619 275056.160000
   1347   1348     1   0.14647 272713.120000
   1347   1351     1   0.14647 272713.120000
   1348   1357     1   0.15375 251793.120000
   1351   1354     1   0.15375 251793.120000
   1354   1360     1   0.15241 261918.400000
   1357   1361     1   0.15241 261918.400000
   1360   5045     1   0.13789 357815.680000
   1360   1362     1   0.12183 533627.360000
   1361   1363     1   0.12183 533627.360000
   1361   5118     1   0.13789 357815.680000
   1366   1369     1   0.15375 251793.120000
   1366   1372     1   0.14647 272713.120000
   1369   1389     1   0.14619 275056.160000
   1372   1373     1   0.14647 272713.120000
   1372   1376     1   0.14647 272713.120000
   1373   1382     1   0.15375 251793.120000
   1376   1379     1   0.15375 251793.120000
   1379   1385     1   0.15241 261918.400000
   1382   1386     1   0.15241 261918.400000
   1385   5191     1   0.13789 357815.680000
   1385   1387     1   0.12183 533627.360000
   1386   1388     1   0.12183 533627.360000
   1386   5264     1   0.13789 357815.680000
   1391   1394     1   0.15375 251793.120000
   1391   1397     1   0.14647 272713.120000
   1394   1414     1   0.14619 275056.160000
   1397   1398     1   0.14647 272713.120000
   1397   1401     1   0.14647 272713.120000
   1398   1407     1   0.15375 251793.120000
   1401   1404     1   0.15375 251793.120000
   1404   1410     1   0.15241 261918.400000
   1407   1411     1   0.15241 261918.400000
   1410   5337     1   0.13789 357815.680000
   1410   1412     1   0.12183 533627.360000
   1411   1413     1   0.12183 533627.360000
   1411   5410     1   0.13789 357815.680000
   1416   1419     1   0.15375 251793.120000
   1416   1422     1   0.14647 272713.120000
   1419   1439     1   0.14619 275056.160000
   1422   1423     1   0.14647 272713.120000
   1422   1426     1   0.14647 272713.120000
   1423   1432     1   0.15375 251793.120000
   1426   1429     1   0.15375 251793.120000
   1429   1435     1   0.15241 261918.400000
   1432   1436     1   0.15241 261918.400000
   1435   5483     1   0.13789 357815.680000
   1435   1437     1   0.12183 533627.360000
   1436   1438     1   0.12183 533627.360000
   1436   5556     1   0.13789 357815.680000
   1441   1444     1   0.15375 251793.120000
   1441   1447     1   0.14647 272713.120000
   1444   1464     1   0.14619 275056.160000
   1447   1448     1   0.14647 272713.120000
   1447   1451     1   0.14647 272713.120000
   1448   1457     1   0.15375 251793.120000
   1451   1454     1   0.15375 251793.120000
   1454   1460     1   0.15241 261918.400000
   1457   1461     1   0.15241 261918.400000
   1460   5629     1   0.13789 357815.680000
   1460   1462     1   0.12183 533627.360000
   1461   1463     1   0.12183 533627.360000
   1461   5702     1   0.13789 357815.680000
   1466   1469     1   0.15375 251793.120000
   1466   1472     1   0.14647 272713.120000
   1469   1489     1   0.14619 275056.160000
   1472   1473     1   0.14647 272713.120000
   1472   1476     1   0.14647 272713.120000
   1473   1482     1   0.15375 251793.120000
   1476   1479     1   0.15375 251793.120000
   1479   1485     1   0.15241 261918.400000
   1482   1486     1   0.15241 261918.400000
   1485   5775     1   0.13789 357815.680000
   1485   1487     1   0.12183 533627.360000
   1486   1488     1   0.12183 533627.360000
   1486   5848     1   0.13789 357815.680000
   1491   1494     1   0.15375 251793.120000
   1491   1497     1   0.14647 272713.120000
   1494   1514     1   0.14619 275056.160000
   1497   1498     1   0.14647 272713.120000
   1497   1501     1   0.14647 272713.120000
   1498   1507     1   0.15375 251793.120000
   1501   1504     1   0.15375 251793.120000
   1504   1510     1   0.15241 261918.400000
   1507   1511     1   0.15241 261918.400000
   1510   5921     1   0.13789 357815.680000
   1510   1512     1   0.12183 533627.360000
   1511   1513     1   0.12183 533627.360000
   1511   5994     1   0.13789 357815.680000
   1516   1519     1   0.15375 251793.120000
   1516   1522     1   0.14647 272713.120000
   1519   1539     1   0.14619 275056.160000
   1522   1523     1   0.14647 272713.120000
   1522   1526     1   0.14647 272713.120000
   1523   1532     1   0.15375 251793.120000
   1526   1529     1   0.15375 251793.120000
   1529   1535     1   0.15241 261918.400000
   1532   1536     1   0.15241 261918.400000
   1535   6067     1   0.13789 357815.680000
   1535   1537     1   0.12183 533627.360000
   1536   6140     1   0.13789 357815.680000
   1536   1538     1   0.12183 533627.360000
   1541   1543     1   0.14619 275056.160000
   1543   1545     1   0.15375 251793.120000
   1545   1549     1   0.14647 272713.120000
   1549   1550     1   0.14647 272713.120000
   1549   1551     1   0.14647 272713.120000
   1550   1561     1   0.15375 251793.120000
   1551   1553     1   0.15375 251793.120000
   1553   1557     1   0.15241 261918.400000
   1557   1558     1   0.12183 533627.360000
   1557   1589     1   0.13400 406935.840000
   1561   1564     1   0.15241 261918.400000
   1564   1565     1   0.12183 533627.360000
   1564   1613     1   0.13400 406935.840000
   1566   1567     1   0.15375 251793.120000
   1566   1577     1   0.15375 251793.120000
   1566   1584     1   0.14316 258236.480000
   1567   1569     1   0.15375 251793.120000
   1567   1587     1   0.14233 265014.560000
   1569   1570     1   0.15375 251793.120000
   1569   1576     1   0.14233 265014.560000
   1570   1571     1   0.15375 251793.120000
   1570   1589     1   0.14647 272713.120000
   1571   1575     1   0.14233 265014.560000
   1571   1584     1   0.14316 258236.480000
   1577   1582     1   0.14233 265014.560000
   1590   1591     1   0.15375 251793.120000
   1590   1601     1   0.15375 251793.120000
   1590   1608     1   0.14316 258236.480000
   1591   1593     1   0.15375 251793.120000
   1591   1611     1   0.14233 265014.560000
   1593   1594     1   0.15375 251793.120000
   1593   1600     1   0.14233 265014.560000
   1594   1595     1   0.15375 251793.120000
   1594   1613     1   0.14647 272713.120000
   1595   1599     1   0.14233 265014.560000
   1595   1608     1   0.14316 258236.480000
   1601   1606     1   0.14233 265014.560000
   1614   1616     1   0.14619 275056.160000
   1616   1618     1   0.15375 251793.120000
   1618   1622     1   0.14647 272713.120000
   1622   1623     1   0.14647 272713.120000
   1622   1624     1   0.14647 272713.120000
   1623   1634     1   0.15375 251793.120000
   1624   1626     1   0.15375 251793.120000
   1626   1630     1   0.15241 261918.400000
   1630   1631     1   0.12183 533627.360000
   1630   1662     1   0.13400 406935.840000
   1634   1637     1   0.15241 261918.400000
   1637   1638     1   0.12183 533627.360000
   1637   1686     1   0.13400 406935.840000
   1639   1640     1   0.15375 251793.120000
   1639   1650     1   0.15375 251793.120000
   1639   1657     1   0.14316 258236.480000
   1640   1642     1   0.15375 251793.120000
   1640   1660     1   0.14233 265014.560000
   1642   1643     1   0.15375 251793.120000
   1642   1649     1   0.14233 265014.560000
   1643   1644     1   0.15375 251793.120000
   1643   1662     1   0.14647 272713.120000
   1644   1648     1   0.14233 265014.560000
   1644   1657     1   0.14316 258236.480000
   1650   1655     1   0.14233 265014.560000
   1663   1664     1   0.15375 251793.120000
   1663   1674     1   0.15375 251793.120000
   1663   1681     1   0.14316 258236.480000
   1664   1666     1   0.15375 251793.120000
   1664   1684     1   0.14233 265014.560000
   1666   1667     1   0.15375 251793.120000
   1666   1673     1   0.14233 265014.560000
   1667   1668     1   0.15375 251793.120000
   1667   1686     1   0.14647 272713.120000
   1668   1672     1   0.14233 265014.560000
   1668   1681     1   0.14316 258236.480000
   1674   1679     1   0.14233 265014.560000
   1687   1689     1   0.14619 275056.160000
   1689   1691     1   0.15375 251793.120000
   1691   1695     1   0.14647 272713.120000
   1695   1696     1   0.14647 272713.120000
   1695   1697     1   0.14647 272713.120000
   1696   1707     1   0.15375 251793.120000
   1697   1699     1   0.15375 251793.120000
   1699   1703     1   0.15241 261918.400000
   1703   1704     1   0.12183 533627.360000
   1703   1735     1   0.13400 406935.840000
   1707   1710     1   0.15241 261918.400000
   1710   1711     1   0.12183 533627.360000
   1710   1759     1   0.13400 406935.840000
   1712   1713     1   0.15375 251793.120000
   1712   1723     1   0.15375 251793.120000
   1712   1730     1   0.14316 258236.480000
   1713   1715     1   0.15375 251793.120000
   1713   1733     1   0.14233 265014.560000
   1715   1716     1   0.15375 251793.120000
   1715   1722     1   0.14233 265014.560000
   1716   1717     1   0.15375 251793.120000
   1716   1735     1   0.14647 272713.120000
   1717   1721     1   0.14233 265014.560000
   1717   1730     1   0.14316 258236.480000
   1723   1728     1   0.14233 265014.560000
   1736   1737     1   0.15375 251793.120000
   1736   1747     1   0.15375 251793.120000
   1736   1754     1   0.14316 258236.480000
   1737   1739     1   0.15375 251793.120000
   1737   1757     1   0.14233 265014.560000
   1739   1740     1   0.15375 251793.120000
   1739   1746     1   0.14233 265014.560000
   1740   1741     1   0.15375 251793.120000
   1740   1759     1   0.14647 272713.120000
   1741   1745     1   0.14233 265014.560000
   1741   1754     1   0.14316 258236.480000
   1747   1752     1   0.14233 265014.560000
   1760   1762     1   0.14619 275056.160000
   1762   1764     1   0.15375 251793.120000
   1764   1768     1   0.14647 272713.120000
   1768   1769     1   0.14647 272713.120000
   1768   1770     1   0.14647 272713.120000
   1769   1780     1   0.15375 251793.120000
   1770   1772     1   0.15375 251793.120000
   1772   1776     1   0.15241 261918.400000
   1776   1777     1   0.12183 533627.360000
   1776   1808     1   0.13400 406935.840000
   1780   1783     1   0.15241 261918.400000
   1783   1784     1   0.12183 533627.360000
   1783   1832     1   0.13400 406935.840000
   1785   1786     1   0.15375 251793.120000
   1785   1796     1   0.15375 251793.120000
   1785   1803     1   0.14316 258236.480000
   1786   1788     1   0.15375 251793.120000
   1786   1806     1   0.14233 265014.560000
   1788   1789     1   0.15375 251793.120000
   1788   1795     1   0.14233 265014.560000
   1789   1790     1   0.15375 251793.120000
   1789   1808     1   0.14647 272713.120000
   1790   1794     1   0.14233 265014.560000
   1790   1803     1   0.14316 258236.480000
   1796   1801     1   0.14233 265014.560000
   1809   1810     1   0.15375 251793.120000
   1809   1820     1   0.15375 251793.120000
   1809   1827     1   0.14316 258236.480000
   1810   1812     1   0.15375 251793.120000
   1810   1830     1   0.14233 265014.560000
   1812   1813     1   0.15375 251793.120000
   1812   1819     1   0.14233 265014.560000
   1813   1814     1   0.15375 251793.120000
   1813   1832     1   0.14647 272713.120000
   1814   1818     1   0.14233 265014.560000
   1814   1827     1   0.14316 258236.480000
   1820   1825     1   0.14233 265014.560000
   1833   1835     1   0.14619 275056.160000
   1835   1837     1   0.15375 251793.120000
   1837   1841     1   0.14647 272713.120000
   1841   1842     1   0.14647 272713.120000
   1841   1843     1   0.14647 272713.120000
   1842   1853     1   0.15375 251793.120000
   1843   1845     1   0.15375 251793.120000
   1845   1849     1   0.15241 261918.400000
   1849   1850     1   0.12183 533627.360000
   1849   1881     1   0.13400 406935.840000
   1853   1856     1   0.15241 261918.400000
   1856   1857     1   0.12183 533627.360000
   1856   1905     1   0.13400 406935.840000
   1858   1859     1   0.15375 251793.120000
   1858   1869     1   0.15375 251793.120000
   1858   1876     1   0.14316 258236.480000
   1859   1861     1   0.15375 251793.120000
   1859   1879     1   0.14233 265014.560000
   1861   1862     1   0.15375 251793.120000
   1861   1868     1   0.14233 265014.560000
   1862   1863     1   0.15375 251793.120000
   1862   1881     1   0.14647 272713.120000
   1863   1867     1   0.14233 265014.560000
   1863   1876     1   0.14316 258236.480000
   1869   1874     1   0.14233 265014.560000
   1882   1883     1   0.15375 251793.120000
   1882   1893     1   0.15375 251793.120000
   1882   1900     1   0.14316 258236.480000
   1883   1885     1   0.15375 251793.120000
   1883   1903     1   0.14233 265014.560000
   1885   1886     1   0.15375 251793.120000
   1885   1892     1   0.14233 265014.560000
   1886   1887     1   0.15375 251793.120000
   1886   1905     1   0.14647 272713.120000
   1887   1891     1   0.14233 265014.560000
   1887   1900     1   0.14316 258236.480000
   1893   1898     1   0.14233 265014.560000
   1906   1908     1   0.14619 275056.160000
   1908   1910     1   0.15375 251793.120000
   1910   1914     1   0.14647 272713.120000
   1914   1915     1   0.14647 272713.120000
   1914   1916     1   0.14647 272713.120000
   1915   1926     1   0.15375 251793.120000
   1916   1918     1   0.15375 251793.120000
   1918   1922     1   0.15241 261918.400000
   1922   1923     1   0.12183 533627.360000
   1922   1954     1   0.13400 406935.840000
   1926   1929     1   0.15241 261918.400000
   1929   1930     1   0.12183 533627.360000
   1929   1978     1   0.13400 406935.840000
   1931   1932     1   0.15375 251793.120000
   1931   1942     1   0.15375 251793.120000
   1931   1949     1   0.14316 258236.480000
   1932   1934     1   0.15375 251793.120000
   1932   1952     1   0.14233 265014.560000
   1934   1935     1   0.15375 251793.120000
   1934   1941     1   0.14233 265014.560000
   1935   1936     1   0.15375 251793.120000
   1935   1954     1   0.14647 272713.120000
   1936   1940     1   0.14233 265014.560000
   1936   1949     1   0.14316 258236.480000
   1942   1947     1   0.14233 265014.560000
   1955   1956     1   0.15375 251793.120000
   1955   1966     1   0.15375 251793.120000
   1955   1973     1   0.14316 258236.480000
   1956   1958     1   0.15375 251793.120000
   1956   1976     1   0.14233 265014.560000
   1958   1959     1   0.15375 251793.120000
   1958   1965     1   0.14233 265014.560000
   1959   1960     1   0.15375 251793.120000
   1959   1978     1   0.14647 272713.120000
   1960   1964     1   0.14233 265014.560000
   1960   1973     1   0.14316 258236.480000
   1966   1971     1   0.14233 265014.560000
   1979   1981     1   0.14619 275056.160000
   1981   1983     1   0.15375 251793.120000
   1983   1987     1   0.14647 272713.120000
   1987   1988     1   0.14647 272713.120000
   1987   1989     1   0.14647 272713.120000
   1988   1999     1   0.15375 251793.120000
   1989   1991     1   0.15375 251793.120000
   1991   1995     1   0.15241 261918.400000
   1995   1996     1   0.12183 533627.360000
   1995   2027     1   0.13400 406935.840000
   1999   2002     1   0.15241 261918.400000
   2002   2003     1   0.12183 533627.360000
   2002   2051     1   0.13400 406935.840000
   2004   2005     1   0.15375 251793.120000
   2004   2015     1   0.15375 251793.120000
   2004   2022     1   0.14316 258236.480000
   2005   2007     1   0.15375 251793.120000
   2005   2025     1   0.14233 265014.560000
   2007   2008     1   0.15375 251793.120000
   2007   2014     1   0.14233 265014.560000
   2008   2009     1   0.15375 251793.120000
   2008   2027     1   0.14647 272713.120000
   2009   2013     1   0.14233 265014.560000
   2009   2022     1   0.14316 258236.480000
   2015   2020     1   0.14233 265014.560000
   2028   2029     1   0.15375 251793.120000
   2028   2039     1   0.15375 251793.120000
   2028   2046     1   0.14316 258236.480000
   2029   2031     1   0.15375 251793.120000
   2029   2049     1   0.14233 265014.560000
   2031   2032     1   0.15375 251793.120000
   2031   2038     1   0.14233 265014.560000
   2032   2033     1   0.15375 251793.120000
   2032   2051     1   0.14647 272713.120000
   2033   2037     1   0.14233 265014.560000
   2033   2046     1   0.14316 258236.480000
   2039   2044     1   0.14233 265014.560000
   2052   2054     1   0.14619 275056.160000
   2054   2056     1   0.15375 251793.120000
   2056   2060     1   0.14647 272713.120000
   2060   2061     1   0.14647 272713.120000
   2060   2062     1   0.14647 272713.120000
   2061   2072     1   0.15375 251793.120000
   2062   2064     1   0.15375 251793.120000
   2064   2068     1   0.15241 261918.400000
   2068   2069     1   0.12183 533627.360000
   2068   2100     1   0.13400 406935.840000
   2072   2075     1   0.15241 261918.400000
   2075   2076     1   0.12183 533627.360000
   2075   2124     1   0.13400 406935.840000
   2077   2078     1   0.15375 251793.120000
   2077   2088     1   0.15375 251793.120000
   2077   2095     1   0.14316 258236.480000
   2078   2080     1   0.15375 251793.120000
   2078   2098     1   0.14233 265014.560000
   2080   2081     1   0.15375 251793.120000
   2080   2087     1   0.14233 265014.560000
   2081   2082     1   0.15375 251793.120000
   2081   2100     1   0.14647 272713.120000
   2082   2086     1   0.14233 265014.560000
   2082   2095     1   0.14316 258236.480000
   2088   2093     1   0.14233 265014.560000
   2101   2102     1   0.15375 251793.120000
   2101   2112     1   0.15375 251793.120000
   2101   2119     1   0.14316 258236.480000
   2102   2104     1   0.15375 251793.120000
   2102   2122     1   0.14233 265014.560000
   2104   2105     1   0.15375 251793.120000
   2104   2111     1   0.14233 265014.560000
   2105   2106     1   0.15375 251793.120000
   2105   2124     1   0.14647 272713.120000
   2106   2110     1   0.14233 265014.560000
   2106   2119     1   0.14316 258236.480000
   2112   2117     1   0.14233 265014.560000
   2125   2127     1   0.14619 275056.160000
   2127   2129     1   0.15375 251793.120000
   2129   2133     1   0.14647 272713.120000
   2133   2134     1   0.14647 272713.120000
   2133   2135     1   0.14647 272713.120000
   2134   2145     1   0.15375 251793.120000
   2135   2137     1   0.15375 251793.120000
   2137   2141     1   0.15241 261918.400000
   2141   2142     1   0.12183 533627.360000
   2141   2173     1   0.13400 406935.840000
   2145   2148     1   0.15241 261918.400000
   2148   2149     1   0.12183 533627.360000
   2148   2197     1   0.13400 406935.840000
   2150   2151     1   0.15375 251793.120000
   2150   2161     1   0.15375 251793.120000
   2150   2168     1   0.14316 258236.480000
   2151   2153     1   0.15375 251793.120000
   2151   2171     1   0.14233 265014.560000
   2153   2154     1   0.15375 251793.120000
   2153   2160     1   0.14233 265014.560000
   2154   2155     1   0.15375 251793.120000
   2154   2173     1   0.14647 272713.120000
   2155   2159     1   0.14233 265014.560000
   2155   2168     1   0.14316 258236.480000
   2161   2166     1   0.14233 265014.560000
   2174   2175     1   0.15375 251793.120000
   2174   2185     1   0.15375 251793.120000
   2174   2192     1   0.14316 258236.480000
   2175   2177     1   0.15375 251793.120000
   2175   2195     1   0.14233 265014.560000
   2177   2178     1   0.15375 251793.120000
   2177   2184     1   0.14233 265014.560000
   2178   2179     1   0.15375 251793.120000
   2178   2197     1   0.14647 272713.120000
   2179   2183     1   0.14233 265014.560000
   2179   2192     1   0.14316 258236.480000
   2185   2190     1   0.14233 265014.560000
   2198   2200     1   0.14619 275056.160000
   2200   2202     1   0.15375 251793.120000
   2202   2206     1   0.14647 272713.120000
   2206   2207     1   0.14647 272713.120000
   2206   2208     1   0.14647 272713.120000
   2207   2218     1   0.15375 251793.120000
   2208   2210     1   0.15375 251793.120000
   2210   2214     1   0.15241 261918.400000
   2214   2215     1   0.12183 533627.360000
   2214   2246     1   0.13400 406935.840000
   2218   2221     1   0.15241 261918.400000
   2221   2222     1   0.12183 533627.360000
   2221   2270     1   0.13400 406935.840000
   2223   2224     1   0.15375 251793.120000
   2223   2234     1   0.15375 251793.120000
   2223   2241     1   0.14316 258236.480000
   2224   2226     1   0.15375 251793.120000
   2224   2244     1   0.14233 265014.560000
   2226   2227     1   0.15375 251793.120000
   2226   2233     1   0.14233 265014.560000
   2227   2228     1   0.15375 251793.120000
   2227   2246     1   0.14647 272713.120000
   2228   2232     1   0.14233 265014.560000
   2228   2241     1   0.14316 258236.480000
   2234   2239     1   0.14233 265014.560000
   2247   2248     1   0.15375 251793.120000
   2247   2258     1   0.15375 251793.120000
   2247   2265     1   0.14316 258236.480000
   2248   2250     1   0.15375 251793.120000
   2248   2268     1   0.14233 265014.560000
   2250   2251     1   0.15375 251793.120000
   2250   2257     1   0.14233 265014.560000
   2251   2252     1   0.15375 251793.120000
   2251   2270     1   0.14647 272713.120000
   2252   2256     1   0.14233 265014.560000
   2252   2265     1   0.14316 258236.480000
   2258   2263     1   0.14233 265014.560000
   2271   2273     1   0.14619 275056.160000
   2273   2275     1   0.15375 251793.120000
   2275   2279     1   0.14647 272713.120000
   2279   2280     1   0.14647 272713.120000
   2279   2281     1   0.14647 272713.120000
   2280   2291     1   0.15375 251793.120000
   2281   2283     1   0.15375 251793.120000
   2283   2287     1   0.15241 261918.400000
   2287   2288     1   0.12183 533627.360000
   2287   2319     1   0.13400 406935.840000
   2291   2294     1   0.15241 261918.400000
   2294   2295     1   0.12183 533627.360000
   2294   2343     1   0.13400 406935.840000
   2296   2297     1   0.15375 251793.120000
   2296   2307     1   0.15375 251793.120000
   2296   2314     1   0.14316 258236.480000
   2297   2299     1   0.15375 251793.120000
   2297   2317     1   0.14233 265014.560000
   2299   2300     1   0.15375 251793.120000
   2299   2306     1   0.14233 265014.560000
   2300   2301     1   0.15375 251793.120000
   2300   2319     1   0.14647 272713.120000
   2301   2305     1   0.14233 265014.560000
   2301   2314     1   0.14316 258236.480000
   2307   2312     1   0.14233 265014.560000
   2320   2321     1   0.15375 251793.120000
   2320   2331     1   0.15375 251793.120000
   2320   2338     1   0.14316 258236.480000
   2321   2323     1   0.15375 251793.120000
   2321   2341     1   0.14233 265014.560000
   2323   2324     1   0.15375 251793.120000
   2323   2330     1   0.14233 265014.560000
   2324   2325     1   0.15375 251793.120000
   2324   2343     1   0.14647 272713.120000
   2325   2329     1   0.14233 265014.560000
   2325   2338     1   0.14316 258236.480000
   2331   2336     1   0.14233 265014.560000
   2344   2346     1   0.14619 275056.160000
   2346   2348     1   0.15375 251793.120000
   2348   2352     1   0.14647 272713.120000
   2352   2353     1   0.14647 272713.120000
   2352   2354     1   0.14647 272713.120000
   2353   2364     1   0.15375 251793.120000
   2354   2356     1   0.15375 251793.120000
   2356   2360     1   0.15241 261918.400000
   2360   2361     1   0.12183 533627.360000
   2360   2392     1   0.13400 406935.840000
   2364   2367     1   0.15241 261918.400000
   2367   2368     1   0.12183 533627.360000
   2367   2416     1   0.13400 406935.840000
   2369   2370     1   0.15375 251793.120000
   2369   2380     1   0.15375 251793.120000
   2369   2387     1   0.14316 258236.480000
   2370   2372     1   0.15375 251793.120000
   2370   2390     1   0.14233 265014.560000
   2372   2373     1   0.15375 251793.120000
   2372   2379     1   0.14233 265014.560000
   2373   2374     1   0.15375 251793.120000
   2373   2392     1   0.14647 272713.120000
   2374   2378     1   0.14233 265014.560000
   2374   2387     1   0.14316 258236.480000
   2380   2385     1   0.14233 265014.560000
   2393   2394     1   0.15375 251793.120000
   2393   2404     1   0.15375 251793.120000
   2393   2411     1   0.14316 258236.480000
   2394   2396     1   0.15375 251793.120000
   2394   2414     1   0.14233 265014.560000
   2396   2397     1   0.15375 251793.120000
   2396   2403     1   0.14233 265014.560000
   2397   2398     1   0.15375 251793.120000
   2397   2416     1   0.14647 272713.120000
   2398   2402     1   0.14233 265014.560000
   2398   2411     1   0.14316 258236.480000
   2404   2409     1   0.14233 265014.560000
   2417   2419     1   0.14619 275056.160000
   2419   2421     1   0.15375 251793.120000
   2421   2425     1   0.14647 272713.120000
   2425   2426     1   0.14647 272713.120000
   2425   2427     1   0.14647 272713.120000
   2426   2437     1   0.15375 251793.120000
   2427   2429     1   0.15375 251793.120000
   2429   2433     1   0.15241 261918.400000
   2433   2434     1   0.12183 533627.360000
   2433   2465     1   0.13400 406935.840000
   2437   2440     1   0.15241 261918.400000
   2440   2441     1   0.12183 533627.360000
   2440   2489     1   0.13400 406935.840000
   2442   2443     1   0.15375 251793.120000
   2442   2453     1   0.15375 251793.120000
   2442   2460     1   0.14316 258236.480000
   2443   2445     1   0.15375 251793.120000
   2443   2463     1   0.14233 265014.560000
   2445   2446     1   0.15375 251793.120000
   2445   2452     1   0.14233 265014.560000
   2446   2447     1   0.15375 251793.120000
   2446   2465     1   0.14647 272713.120000
   2447   2451     1   0.14233 265014.560000
   2447   2460     1   0.14316 258236.480000
   2453   2458     1   0.14233 265014.560000
   2466   2467     1   0.15375 251793.120000
   2466   2477     1   0.15375 251793.120000
   2466   2484     1   0.14316 258236.480000
   2467   2469     1   0.15375 251793.120000
   2467   2487     1   0.14233 265014.560000
   2469   2470     1   0.15375 251793.120000
   2469   2476     1   0.14233 265014.560000
   2470   2471     1   0.15375 251793.120000
   2470   2489     1   0.14647 272713.120000
   2471   2475     1   0.14233 265014.560000
   2471   2484     1   0.14316 258236.480000
   2477   2482     1   0.14233 265014.560000
   2490   2492     1   0.14619 275056.160000
   2492   2494     1   0.15375 251793.120000
   2494   2498     1   0.14647 272713.120000
   2498   2499     1   0.14647 272713.120000
   2498   2500     1   0.14647 272713.120000
   2499   2510     1   0.15375 251793.120000
   2500   2502     1   0.15375 251793.120000
   2502   2506     1   0.15241 261918.400000
   2506   2507     1   0.12183 533627.360000
   2506   2538     1   0.13400 406935.840000
   2510   2513     1   0.15241 261918.400000
   2513   2514     1   0.12183 533627.360000
   2513   2562     1   0.13400 406935.840000
   2515   2516     1   0.15375 251793.120000
   2515   2526     1   0.15375 251793.120000
   2515   2533     1   0.14316 258236.480000
   2516   2518     1   0.15375 251793.120000
   2516   2536     1   0.14233 265014.560000
   2518   2519     1   0.15375 251793.120000
   2518   2525     1   0.14233 265014.560000
   2519   2520     1   0.15375 251793.120000
   2519   2538     1   0.14647 272713.120000
   2520   2524     1   0.14233 265014.560000
   2520   2533     1   0.14316 258236.480000
   2526   2531     1   0.14233 265014.560000
   2539   2540     1   0.15375 251793.120000
   2539   2550     1   0.15375 251793.120000
   2539   2557     1   0.14316 258236.480000
   2540   2542     1   0.15375 251793.120000
   2540   2560     1   0.14233 265014.560000
   2542   2543     1   0.15375 251793.120000
   2542   2549     1   0.14233 265014.560000
   2543   2544     1   0.15375 251793.120000
   2543   2562     1   0.14647 272713.120000
   2544   2548     1   0.14233 265014.560000
   2544   2557     1   0.14316 258236.480000
   2550   2555     1   0.14233 265014.560000
   2563   2565     1   0.14619 275056.160000
   2565   2567     1   0.15375 251793.120000
   2567   2571     1   0.14647 272713.120000
   2571   2572     1   0.14647 272713.120000
   2571   2573     1   0.14647 272713.120000
   2572   2583     1   0.15375 251793.120000
   2573   2575     1   0.15375 251793.120000
   2575   2579     1   0.15241 261918.400000
   2579   2580     1   0.12183 533627.360000
   2579   2611     1   0.13400 406935.840000
   2583   2586     1   0.15241 261918.400000
   2586   2587     1   0.12183 533627.360000
   2586   2635     1   0.13400 406935.840000
   2588   2589     1   0.15375 251793.120000
   2588   2599     1   0.15375 251793.120000
   2588   2606     1   0.14316 258236.480000
   2589   2591     1   0.15375 251793.120000
   2589   2609     1   0.14233 265014.560000
   2591   2592     1   0.15375 251793.120000
   2591   2598     1   0.14233 265014.560000
   2592   2593     1   0.15375 251793.120000
   2592   2611     1   0.14647 272713.120000
   2593   2597     1   0.14233 265014.560000
   2593   2606     1   0.14316 258236.480000
   2599   2604     1   0.14233 265014.560000
   2612   2613     1   0.15375 251793.120000
   2612   2623     1   0.15375 251793.120000
   2612   2630     1   0.14316 258236.480000
   2613   2615     1   0.15375 251793.120000
   2613   2633     1   0.14233 265014.560000
   2615   2616     1   0.15375 251793.120000
   2615   2622     1   0.14233 265014.560000
   2616   2617     1   0.15375 251793.120000
   2616   2635     1   0.14647 272713.120000
   2617   2621     1   0.14233 265014.560000
   2617   2630     1   0.14316 258236.480000
   2623   2628     1   0.14233 265014.560000
   2636   2638     1   0.14619 275056.160000
   2638   2640     1   0.15375 251793.120000
   2640   2644     1   0.14647 272713.120000
   2644   2645     1   0.14647 272713.120000
   2644   2646     1   0.14647 272713.120000
   2645   2656     1   0.15375 251793.120000
   2646   2648     1   0.15375 251793.120000
   2648   2652     1   0.15241 261918.400000
   2652   2653     1   0.12183 533627.360000
   2652   2684     1   0.13400 406935.840000
   2656   2659     1   0.15241 261918.400000
   2659   2660     1   0.12183 533627.360000
   2659   2708     1   0.13400 406935.840000
   2661   2662     1   0.15375 251793.120000
   2661   2672     1   0.15375 251793.120000
   2661   2679     1   0.14316 258236.480000
   2662   2664     1   0.15375 251793.120000
   2662   2682     1   0.14233 265014.560000
   2664   2665     1   0.15375 251793.120000
   2664   2671     1   0.14233 265014.560000
   2665   2666     1   0.15375 251793.120000
   2665   2684     1   0.14647 272713.120000
   2666   2670     1   0.14233 265014.560000
   2666   2679     1   0.14316 258236.480000
   2672   2677     1   0.14233 265014.560000
   2685   2686     1   0.15375 251793.120000
   2685   2696     1   0.15375 251793.120000
   2685   2703     1   0.14316 258236.480000
   2686   2688     1   0.15375 251793.120000
   2686   2706     1   0.14233 265014.560000
   2688   2689     1   0.15375 251793.120000
   2688   2695     1   0.14233 265014.560000
   2689   2690     1   0.15375 251793.120000
   2689   2708     1   0.14647 272713.120000
   2690   2694     1   0.14233 265014.560000
   2690   2703     1   0.14316 258236.480000
   2696   2701     1   0.14233 265014.560000
   2709   2711     1   0.14619 275056.160000
   2711   2713     1   0.15375 251793.120000
   2713   2717     1   0.14647 272713.120000
   2717   2718     1   0.14647 272713.120000
   2717   2719     1   0.14647 272713.120000
   2718   2729     1   0.15375 251793.120000
   2719   2721     1   0.15375 251793.120000
   2721   2725     1   0.15241 261918.400000
   2725   2726     1   0.12183 533627.360000
   2725   2757     1   0.13400 406935.840000
   2729   2732     1   0.15241 261918.400000
   2732   2733     1   0.12183 533627.360000
   2732   2781     1   0.13400 406935.840000
   2734   2735     1   0.15375 251793.120000
   2734   2745     1   0.15375 251793.120000
   2734   2752     1   0.14316 258236.480000
   2735   2737     1   0.15375 251793.120000
   2735   2755     1   0.14233 265014.560000
   2737   2738     1   0.15375 251793.120000
   2737   2744     1   0.14233 265014.560000
   2738   2739     1   0.15375 251793.120000
   2738   2757     1   0.14647 272713.120000
   2739   2743     1   0.14233 265014.560000
   2739   2752     1   0.14316 258236.480000
   2745   2750     1   0.14233 265014.560000
   2758   2759     1   0.15375 251793.120000
   2758   2769     1   0.15375 251793.120000
   2758   2776     1   0.14316 258236.480000
   2759   2761     1   0.15375 251793.120000
   2759   2779     1   0.14233 265014.560000
   2761   2762     1   0.15375 251793.120000
   2761   2768     1   0.14233 265014.560000
   2762   2763     1   0.15375 251793.120000
   2762   2781     1   0.14647 272713.120000
   2763   2767     1   0.14233 265014.560000
   2763   2776     1   0.14316 258236.480000
   2769   2774     1   0.14233 265014.560000
   2782   2784     1   0.14619 275056.160000
   2784   2786     1   0.15375 251793.120000
   2786   2790     1   0.14647 272713.120000
   2790   2791     1   0.14647 272713.120000
   2790   2792     1   0.14647 272713.120000
   2791   2802     1   0.15375 251793.120000
   2792   2794     1   0.15375 251793.120000
   2794   2798     1   0.15241 261918.400000
   2798   2799     1   0.12183 533627.360000
   2798   2830     1   0.13400 406935.840000
   2802   2805     1   0.15241 261918.400000
   2805   2806     1   0.12183 533627.360000
   2805   2854     1   0.13400 406935.840000
   2807   2808     1   0.15375 251793.120000
   2807   2818     1   0.15375 251793.120000
   2807   2825     1   0.14316 258236.480000
   2808   2810     1   0.15375 251793.120000
   2808   2828     1   0.14233 265014.560000
   2810   2811     1   0.15375 251793.120000
   2810   2817     1   0.14233 265014.560000
   2811   2812     1   0.15375 251793.120000
   2811   2830     1   0.14647 272713.120000
   2812   2816     1   0.14233 265014.560000
   2812   2825     1   0.14316 258236.480000
   2818   2823     1   0.14233 265014.560000
   2831   2832     1   0.15375 251793.120000
   2831   2842     1   0.15375 251793.120000
   2831   2849     1   0.14316 258236.480000
   2832   2834     1   0.15375 251793.120000
   2832   2852     1   0.14233 265014.560000
   2834   2835     1   0.15375 251793.120000
   2834   2841     1   0.14233 265014.560000
   2835   2836     1   0.15375 251793.120000
   2835   2854     1   0.14647 272713.120000
   2836   2840     1   0.14233 265014.560000
   2836   2849     1   0.14316 258236.480000
   2842   2847     1   0.14233 265014.560000
   2855   2857     1   0.14619 275056.160000
   2857   2859     1   0.15375 251793.120000
   2859   2863     1   0.14647 272713.120000
   2863   2864     1   0.14647 272713.120000
   2863   2865     1   0.14647 272713.120000
   2864   2875     1   0.15375 251793.120000
   2865   2867     1   0.15375 251793.120000
   2867   2871     1   0.15241 261918.400000
   2871   2872     1   0.12183 533627.360000
   2871   2903     1   0.13400 406935.840000
   2875   2878     1   0.15241 261918.400000
   2878   2879     1   0.12183 533627.360000
   2878   2927     1   0.13400 406935.840000
   2880   2881     1   0.15375 251793.120000
   2880   2891     1   0.15375 251793.120000
   2880   2898     1   0.14316 258236.480000
   2881   2883     1   0.15375 251793.120000
   2881   2901     1   0.14233 265014.560000
   2883   2884     1   0.15375 251793.120000
   2883   2890     1   0.14233 265014.560000
   2884   2885     1   0.15375 251793.120000
   2884   2903     1   0.14647 272713.120000
   2885   2889     1   0.14233 265014.560000
   2885   2898     1   0.14316 258236.480000
   2891   2896     1   0.14233 265014.560000
   2904   2905     1   0.15375 251793.120000
   2904   2915     1   0.15375 251793.120000
   2904   2922     1   0.14316 258236.480000
   2905   2907     1   0.15375 251793.120000
   2905   2925     1   0.14233 265014.560000
   2907   2908     1   0.15375 251793.120000
   2907   2914     1   0.14233 265014.560000
   2908   2909     1   0.15375 251793.120000
   2908   2927     1   0.14647 272713.120000
   2909   2913     1   0.14233 265014.560000
   2909   2922     1   0.14316 258236.480000
   2915   2920     1   0.14233 265014.560000
   2928   2930     1   0.14619 275056.160000
   2930   2932     1   0.15375 251793.120000
   2932   2936     1   0.14647 272713.120000
   2936   2937     1   0.14647 272713.120000
   2936   2938     1   0.14647 272713.120000
   2937   2948     1   0.15375 251793.120000
   2938   2940     1   0.15375 251793.120000
   2940   2944     1   0.15241 261918.400000
   2944   2945     1   0.12183 533627.360000
   2944   2976     1   0.13400 406935.840000
   2948   2951     1   0.15241 261918.400000
   2951   2952     1   0.12183 533627.360000
   2951   3000     1   0.13400 406935.840000
   2953   2954     1   0.15375 251793.120000
   2953   2964     1   0.15375 251793.120000
   2953   2971     1   0.14316 258236.480000
   2954   2956     1   0.15375 251793.120000
   2954   2974     1   0.14233 265014.560000
   2956   2957     1   0.15375 251793.120000
   2956   2963     1   0.14233 265014.560000
   2957   2958     1   0.15375 251793.120000
   2957   2976     1   0.14647 272713.120000
   2958   2962     1   0.14233 265014.560000
   2958   2971     1   0.14316 258236.480000
   2964   2969     1   0.14233 265014.560000
   2977   2978     1   0.15375 251793.120000
   2977   2988     1   0.15375 251793.120000
   2977   2995     1   0.14316 258236.480000
   2978   2980     1   0.15375 251793.120000
   2978   2998     1   0.14233 265014.560000
   2980   2981     1   0.15375 251793.120000
   2980   2987     1   0.14233 265014.560000
   2981   2982     1   0.15375 251793.120000
   2981   3000     1   0.14647 272713.120000
   2982   2986     1   0.14233 265014.560000
   2982   2995     1   0.14316 258236.480000
   2988   2993     1   0.14233 265014.560000
   3001   3003     1   0.14619 275056.160000
   3003   3005     1   0.15375 251793.120000
   3005   3009     1   0.14647 272713.120000
   3009   3010     1   0.14647 272713.120000
   3009   3011     1   0.14647 272713.120000
   3010   3021     1   0.15375 251793.120000
   3011   3013     1   0.15375 251793.120000
   3013   3017     1   0.15241 261918.400000
   3017   3018     1   0.12183 533627.360000
   3017   3049     1   0.13400 406935.840000
   3021   3024     1   0.15241 261918.400000
   3024   3025     1   0.12183 533627.360000
   3024   3073     1   0.13400 406935.840000
   3026   3027     1   0.15375 251793.120000
   3026   3037     1   0.15375 251793.120000
   3026   3044     1   0.14316 258236.480000
   3027   3029     1   0.15375 251793.120000
   3027   3047     1   0.14233 265014.560000
   3029   3030     1   0.15375 251793.120000
   3029   3036     1   0.14233 265014.560000
   3030   3031     1   0.15375 251793.120000
   3030   3049     1   0.14647 272713.120000
   3031   3035     1   0.14233 265014.560000
   3031   3044     1   0.14316 258236.480000
   3037   3042     1   0.14233 265014.560000
   3050   3051     1   0.15375 251793.120000
   3050   3061     1   0.15375 251793.120000
   3050   3068     1   0.14316 258236.480000
   3051   3053     1   0.15375 251793.120000
   3051   3071     1   0.14233 265014.560000
   3053   3054     1   0.15375 251793.120000
   3053   3060     1   0.14233 265014.560000
   3054   3055     1   0.15375 251793.120000
   3054   3073     1   0.14647 272713.120000
   3055   3059     1   0.14233 265014.560000
   3055   3068     1   0.14316 258236.480000
   3061   3066     1   0.14233 265014.560000
   3074   3076     1   0.14619 275056.160000
   3076   3078     1   0.15375 251793.120000
   3078   3082     1   0.14647 272713.120000
   3082   3083     1   0.14647 272713.120000
   3082   3084     1   0.14647 272713.120000
   3083   3094     1   0.15375 251793.120000
   3084   3086     1   0.15375 251793.120000
   3086   3090     1   0.15241 261918.400000
   3090   3091     1   0.12183 533627.360000
   3090   3122     1   0.13400 406935.840000
   3094   3097     1   0.15241 261918.400000
   3097   3098     1   0.12183 533627.360000
   3097   3146     1   0.13400 406935.840000
   3099   3100     1   0.15375 251793.120000
   3099   3110     1   0.15375 251793.120000
   3099   3117     1   0.14316 258236.480000
   3100   3102     1   0.15375 251793.120000
   3100   3120     1   0.14233 265014.560000
   3102   3103     1   0.15375 251793.120000
   3102   3109     1   0.14233 265014.560000
   3103   3104     1   0.15375 251793.120000
   3103   3122     1   0.14647 272713.120000
   3104   3108     1   0.14233 265014.560000
   3104   3117     1   0.14316 258236.480000
   3110   3115     1   0.14233 265014.560000
   3123   3124     1   0.15375 251793.120000
   3123   3134     1   0.15375 251793.120000
   3123   3141     1   0.14316 258236.480000
   3124   3126     1   0.15375 251793.120000
   3124   3144     1   0.14233 265014.560000
   3126   3127     1   0.15375 251793.120000
   3126   3133     1   0.14233 265014.560000
   3127   3128     1   0.15375 251793.120000
   3127   3146     1   0.14647 272713.120000
   3128   3132     1   0.14233 265014.560000
   3128   3141     1   0.14316 258236.480000
   3134   3139     1   0.14233 265014.560000
   3147   3149     1   0.14619 275056.160000
   3149   3151     1   0.15375 251793.120000
   3151   3155     1   0.14647 272713.120000
   3155   3156     1   0.14647 272713.120000
   3155   3157     1   0.14647 272713.120000
   3156   3167     1   0.15375 251793.120000
   3157   3159     1   0.15375 251793.120000
   3159   3163     1   0.15241 261918.400000
   3163   3164     1   0.12183 533627.360000
   3163   3195     1   0.13400 406935.840000
   3167   3170     1   0.15241 261918.400000
   3170   3171     1   0.12183 533627.360000
   3170   3219     1   0.13400 406935.840000
   3172   3173     1   0.15375 251793.120000
   3172   3183     1   0.15375 251793.120000
   3172   3190     1   0.14316 258236.480000
   3173   3175     1   0.15375 251793.120000
   3173   3193     1   0.14233 265014.560000
   3175   3176     1   0.15375 251793.120000
   3175   3182     1   0.14233 265014.560000
   3176   3177     1   0.15375 251793.120000
   3176   3195     1   0.14647 272713.120000
   3177   3181     1   0.14233 265014.560000
   3177   3190     1   0.14316 258236.480000
   3183   3188     1   0.14233 265014.560000
   3196   3197     1   0.15375 251793.120000
   3196   3207     1   0.15375 251793.120000
   3196   3214     1   0.14316 258236.480000
   3197   3199     1   0.15375 251793.120000
   3197   3217     1   0.14233 265014.560000
   3199   3200     1   0.15375 251793.120000
   3199   3206     1   0.14233 265014.560000
   3200   3201     1   0.15375 251793.120000
   3200   3219     1   0.14647 272713.120000
   3201   3205     1   0.14233 265014.560000
   3201   3214     1   0.14316 258236.480000
   3207   3212     1   0.14233 265014.560000
   3220   3222     1   0.14619 275056.160000
   3222   3224     1   0.15375 251793.120000
   3224   3228     1   0.14647 272713.120000
   3228   3229     1   0.14647 272713.120000
   3228   3230     1   0.14647 272713.120000
   3229   3240     1   0.15375 251793.120000
   3230   3232     1   0.15375 251793.120000
   3232   3236     1   0.15241 261918.400000
   3236   3237     1   0.12183 533627.360000
   3236   3268     1   0.13400 406935.840000
   3240   3243     1   0.15241 261918.400000
   3243   3244     1   0.12183 533627.360000
   3243   3292     1   0.13400 406935.840000
   3245   3246     1   0.15375 251793.120000
   3245   3256     1   0.15375 251793.120000
   3245   3263     1   0.14316 258236.480000
   3246   3248     1   0.15375 251793.120000
   3246   3266     1   0.14233 265014.560000
   3248   3249     1   0.15375 251793.120000
   3248   3255     1   0.14233 265014.560000
   3249   3250     1   0.15375 251793.120000
   3249   3268     1   0.14647 272713.120000
   3250   3254     1   0.14233 265014.560000
   3250   3263     1   0.14316 258236.480000
   3256   3261     1   0.14233 265014.560000
   3269   3270     1   0.15375 251793.120000
   3269   3280     1   0.15375 251793.120000
   3269   3287     1   0.14316 258236.480000
   3270   3272     1   0.15375 251793.120000
   3270   3290     1   0.14233 265014.560000
   3272   3273     1   0.15375 251793.120000
   3272   3279     1   0.14233 265014.560000
   3273   3274     1   0.15375 251793.120000
   3273   3292     1   0.14647 272713.120000
   3274   3278     1   0.14233 265014.560000
   3274   3287     1   0.14316 258236.480000
   3280   3285     1   0.14233 265014.560000
   3293   3295     1   0.14619 275056.160000
   3295   3297     1   0.15375 251793.120000
   3297   3301     1   0.14647 272713.120000
   3301   3302     1   0.14647 272713.120000
   3301   3303     1   0.14647 272713.120000
   3302   3313     1   0.15375 251793.120000
   3303   3305     1   0.15375 251793.120000
   3305   3309     1   0.15241 261918.400000
   3309   3310     1   0.12183 533627.360000
   3309   3341     1   0.13400 406935.840000
   3313   3316     1   0.15241 261918.400000
   3316   3317     1   0.12183 533627.360000
   3316   3365     1   0.13400 406935.840000
   3318   3319     1   0.15375 251793.120000
   3318   3329     1   0.15375 251793.120000
   3318   3336     1   0.14316 258236.480000
   3319   3321     1   0.15375 251793.120000
   3319   3339     1   0.14233 265014.560000
   3321   3322     1   0.15375 251793.120000
   3321   3328     1   0.14233 265014.560000
   3322   3323     1   0.15375 251793.120000
   3322   3341     1   0.14647 272713.120000
   3323   3327     1   0.14233 265014.560000
   3323   3336     1   0.14316 258236.480000
   3329   3334     1   0.14233 265014.560000
   3342   3343     1   0.15375 251793.120000
   3342   3353     1   0.15375 251793.120000
   3342   3360     1   0.14316 258236.480000
   3343   3345     1   0.15375 251793.120000
   3343   3363     1   0.14233 265014.560000
   3345   3346     1   0.15375 251793.120000
   3345   3352     1   0.14233 265014.560000
   3346   3347     1   0.15375 251793.120000
   3346   3365     1   0.14647 272713.120000
   3347   3351     1   0.14233 265014.560000
   3347   3360     1   0.14316 258236.480000
   3353   3358     1   0.14233 265014.560000
   3366   3368     1   0.14619 275056.160000
   3368   3370     1   0.15375 251793.120000
   3370   3374     1   0.14647 272713.120000
   3374   3375     1   0.14647 272713.120000
   3374   3376     1   0.14647 272713.120000
   3375   3386     1   0.15375 251793.120000
   3376   3378     1   0.15375 251793.120000
   3378   3382     1   0.15241 261918.400000
   3382   3383     1   0.12183 533627.360000
   3382   3414     1   0.13400 406935.840000
   3386   3389     1   0.15241 261918.400000
   3389   3390     1   0.12183 533627.360000
   3389   3438     1   0.13400 406935.840000
   3391   3392     1   0.15375 251793.120000
   3391   3402     1   0.15375 251793.120000
   3391   3409     1   0.14316 258236.480000
   3392   3394     1   0.15375 251793.120000
   3392   3412     1   0.14233 265014.560000
   3394   3395     1   0.15375 251793.120000
   3394   3401     1   0.14233 265014.560000
   3395   3396     1   0.15375 251793.120000
   3395   3414     1   0.14647 272713.120000
   3396   3400     1   0.14233 265014.560000
   3396   3409     1   0.14316 258236.480000
   3402   3407     1   0.14233 265014.560000
   3415   3416     1   0.15375 251793.120000
   3415   3426     1   0.15375 251793.120000
   3415   3433     1   0.14316 258236.480000
   3416   3418     1   0.15375 251793.120000
   3416   3436     1   0.14233 265014.560000
   3418   3419     1   0.15375 251793.120000
   3418   3425     1   0.14233 265014.560000
   3419   3420     1   0.15375 251793.120000
   3419   3438     1   0.14647 272713.120000
   3420   3424     1   0.14233 265014.560000
   3420   3433     1   0.14316 258236.480000
   3426   3431     1   0.14233 265014.560000
   3439   3441     1   0.14619 275056.160000
   3441   3443     1   0.15375 251793.120000
   3443   3447     1   0.14647 272713.120000
   3447   3448     1   0.14647 272713.120000
   3447   3449     1   0.14647 272713.120000
   3448   3459     1   0.15375 251793.120000
   3449   3451     1   0.15375 251793.120000
   3451   3455     1   0.15241 261918.400000
   3455   3456     1   0.12183 533627.360000
   3455   3487     1   0.13400 406935.840000
   3459   3462     1   0.15241 261918.400000
   3462   3463     1   0.12183 533627.360000
   3462   3511     1   0.13400 406935.840000
   3464   3465     1   0.15375 251793.120000
   3464   3475     1   0.15375 251793.120000
   3464   3482     1   0.14316 258236.480000
   3465   3467     1   0.15375 251793.120000
   3465   3485     1   0.14233 265014.560000
   3467   3468     1   0.15375 251793.120000
   3467   3474     1   0.14233 265014.560000
   3468   3469     1   0.15375 251793.120000
   3468   3487     1   0.14647 272713.120000
   3469   3473     1   0.14233 265014.560000
   3469   3482     1   0.14316 258236.480000
   3475   3480     1   0.14233 265014.560000
   3488   3489     1   0.15375 251793.120000
   3488   3499     1   0.15375 251793.120000
   3488   3506     1   0.14316 258236.480000
   3489   3491     1   0.15375 251793.120000
   3489   3509     1   0.14233 265014.560000
   3491   3492     1   0.15375 251793.120000
   3491   3498     1   0.14233 265014.560000
   3492   3493     1   0.15375 251793.120000
   3492   3511     1   0.14647 272713.120000
   3493   3497     1   0.14233 265014.560000
   3493   3506     1   0.14316 258236.480000
   3499   3504     1   0.14233 265014.560000
   3512   3514     1   0.14619 275056.160000
   3514   3516     1   0.15375 251793.120000
   3516   3520     1   0.14647 272713.120000
   3520   3521     1   0.14647 272713.120000
   3520   3522     1   0.14647 272713.120000
   3521   3532     1   0.15375 251793.120000
   3522   3524     1   0.15375 251793.120000
   3524   3528     1   0.15241 261918.400000
   3528   3529     1   0.12183 533627.360000
   3528   3560     1   0.13400 406935.840000
   3532   3535     1   0.15241 261918.400000
   3535   3536     1   0.12183 533627.360000
   3535   3584     1   0.13400 406935.840000
   3537   3538     1   0.15375 251793.120000
   3537   3548     1   0.15375 251793.120000
   3537   3555     1   0.14316 258236.480000
   3538   3540     1   0.15375 251793.120000
   3538   3558     1   0.14233 265014.560000
   3540   3541     1   0.15375 251793.120000
   3540   3547     1   0.14233 265014.560000
   3541   3542     1   0.15375 251793.120000
   3541   3560     1   0.14647 272713.120000
   3542   3546     1   0.14233 265014.560000
   3542   3555     1   0.14316 258236.480000
   3548   3553     1   0.14233 265014.560000
   3561   3562     1   0.15375 251793.120000
   3561   3572     1   0.15375 251793.120000
   3561   3579     1   0.14316 258236.480000
   3562   3564     1   0.15375 251793.120000
   3562   3582     1   0.14233 265014.560000
   3564   3565     1   0.15375 251793.120000
   3564   3571     1   0.14233 265014.560000
   3565   3566     1   0.15375 251793.120000
   3565   3584     1   0.14647 272713.120000
   3566   3570     1   0.14233 265014.560000
   3566   3579     1   0.14316 258236.480000
   3572   3577     1   0.14233 265014.560000
   3585   3587     1   0.14619 275056.160000
   3587   3589     1   0.15375 251793.120000
   3589   3593     1   0.14647 272713.120000
   3593   3594     1   0.14647 272713.120000
   3593   3595     1   0.14647 272713.120000
   3594   3605     1   0.15375 251793.120000
   3595   3597     1   0.15375 251793.120000
   3597   3601     1   0.15241 261918.400000
   3601   3602     1   0.12183 533627.360000
   3601   3633     1   0.13400 406935.840000
   3605   3608     1   0.15241 261918.400000
   3608   3609     1   0.12183 533627.360000
   3608   3657     1   0.13400 406935.840000
   3610   3611     1   0.15375 251793.120000
   3610   3621     1   0.15375 251793.120000
   3610   3628     1   0.14316 258236.480000
   3611   3613     1   0.15375 251793.120000
   3611   3631     1   0.14233 265014.560000
   3613   3614     1   0.15375 251793.120000
   3613   3620     1   0.14233 265014.560000
   3614   3615     1   0.15375 251793.120000
   3614   3633     1   0.14647 272713.120000
   3615   3619     1   0.14233 265014.560000
   3615   3628     1   0.14316 258236.480000
   3621   3626     1   0.14233 265014.560000
   3634   3635     1   0.15375 251793.120000
   3634   3645     1   0.15375 251793.120000
   3634   3652     1   0.14316 258236.480000
   3635   3637     1   0.15375 251793.120000
   3635   3655     1   0.14233 265014.560000
   3637   3638     1   0.15375 251793.120000
   3637   3644     1   0.14233 265014.560000
   3638   3639     1   0.15375 251793.120000
   3638   3657     1   0.14647 272713.120000
   3639   3643     1   0.14233 265014.560000
   3639   3652     1   0.14316 258236.480000
   3645   3650     1   0.14233 265014.560000
   3658   3660     1   0.14619 275056.160000
   3660   3662     1   0.15375 251793.120000
   3662   3666     1   0.14647 272713.120000
   3666   3667     1   0.14647 272713.120000
   3666   3668     1   0.14647 272713.120000
   3667   3678     1   0.15375 251793.120000
   3668   3670     1   0.15375 251793.120000
   3670   3674     1   0.15241 261918.400000
   3674   3675     1   0.12183 533627.360000
   3674   3706     1   0.13400 406935.840000
   3678   3681     1   0.15241 261918.400000
   3681   3682     1   0.12183 533627.360000
   3681   3730     1   0.13400 406935.840000
   3683   3684     1   0.15375 251793.120000
   3683   3694     1   0.15375 251793.120000
   3683   3701     1   0.14316 258236.480000
   3684   3686     1   0.15375 251793.120000
   3684   3704     1   0.14233 265014.560000
   3686   3687     1   0.15375 251793.120000
   3686   3693     1   0.14233 265014.560000
   3687   3688     1   0.15375 251793.120000
   3687   3706     1   0.14647 272713.120000
   3688   3692     1   0.14233 265014.560000
   3688   3701     1   0.14316 258236.480000
   3694   3699     1   0.14233 265014.560000
   3707   3708     1   0.15375 251793.120000
   3707   3718     1   0.15375 251793.120000
   3707   3725     1   0.14316 258236.480000
   3708   3710     1   0.15375 251793.120000
   3708   3728     1   0.14233 265014.560000
   3710   3711     1   0.15375 251793.120000
   3710   3717     1   0.14233 265014.560000
   3711   3712     1   0.15375 251793.120000
   3711   3730     1   0.14647 272713.120000
   3712   3716     1   0.14233 265014.560000
   3712   3725     1   0.14316 258236.480000
   3718   3723     1   0.14233 265014.560000
   3731   3733     1   0.14619 275056.160000
   3733   3735     1   0.15375 251793.120000
   3735   3739     1   0.14647 272713.120000
   3739   3740     1   0.14647 272713.120000
   3739   3741     1   0.14647 272713.120000
   3740   3751     1   0.15375 251793.120000
   3741   3743     1   0.15375 251793.120000
   3743   3747     1   0.15241 261918.400000
   3747   3748     1   0.12183 533627.360000
   3747   3779     1   0.13400 406935.840000
   3751   3754     1   0.15241 261918.400000
   3754   3755     1   0.12183 533627.360000
   3754   3803     1   0.13400 406935.840000
   3756   3757     1   0.15375 251793.120000
   3756   3767     1   0.15375 251793.120000
   3756   3774     1   0.14316 258236.480000
   3757   3759     1   0.15375 251793.120000
   3757   3777     1   0.14233 265014.560000
   3759   3760     1   0.15375 251793.120000
   3759   3766     1   0.14233 265014.560000
   3760   3761     1   0.15375 251793.120000
   3760   3779     1   0.14647 272713.120000
   3761   3765     1   0.14233 265014.560000
   3761   3774     1   0.14316 258236.480000
   3767   3772     1   0.14233 265014.560000
   3780   3781     1   0.15375 251793.120000
   3780   3791     1   0.15375 251793.120000
   3780   3798     1   0.14316 258236.480000
   3781   3783     1   0.15375 251793.120000
   3781   3801     1   0.14233 265014.560000
   3783   3784     1   0.15375 251793.120000
   3783   3790     1   0.14233 265014.560000
   3784   3785     1   0.15375 251793.120000
   3784   3803     1   0.14647 272713.120000
   3785   3789     1   0.14233 265014.560000
   3785   3798     1   0.14316 258236.480000
   3791   3796     1   0.14233 265014.560000
   3804   3806     1   0.14619 275056.160000
   3806   3808     1   0.15375 251793.120000
   3808   3812     1   0.14647 272713.120000
   3812   3813     1   0.14647 272713.120000
   3812   3814     1   0.14647 272713.120000
   3813   3824     1   0.15375 251793.120000
   3814   3816     1   0.15375 251793.120000
   3816   3820     1   0.15241 261918.400000
   3820   3821     1   0.12183 533627.360000
   3820   3852     1   0.13400 406935.840000
   3824   3827     1   0.15241 261918.400000
   3827   3828     1   0.12183 533627.360000
   3827   3876     1   0.13400 406935.840000
   3829   3830     1   0.15375 251793.120000
   3829   3840     1   0.15375 251793.120000
   3829   3847     1   0.14316 258236.480000
   3830   3832     1   0.15375 251793.120000
   3830   3850     1   0.14233 265014.560000
   3832   3833     1   0.15375 251793.120000
   3832   3839     1   0.14233 265014.560000
   3833   3834     1   0.15375 251793.120000
   3833   3852     1   0.14647 272713.120000
   3834   3838     1   0.14233 265014.560000
   3834   3847     1   0.14316 258236.480000
   3840   3845     1   0.14233 265014.560000
   3853   3854     1   0.15375 251793.120000
   3853   3864     1   0.15375 251793.120000
   3853   3871     1   0.14316 258236.480000
   3854   3856     1   0.15375 251793.120000
   3854   3874     1   0.14233 265014.560000
   3856   3857     1   0.15375 251793.120000
   3856   3863     1   0.14233 265014.560000
   3857   3858     1   0.15375 251793.120000
   3857   3876     1   0.14647 272713.120000
   3858   3862     1   0.14233 265014.560000
   3858   3871     1   0.14316 258236.480000
   3864   3869     1   0.14233 265014.560000
   3877   3879     1   0.14619 275056.160000
   3879   3881     1   0.15375 251793.120000
   3881   3885     1   0.14647 272713.120000
   3885   3886     1   0.14647 272713.120000
   3885   3887     1   0.14647 272713.120000
   3886   3897     1   0.15375 251793.120000
   3887   3889     1   0.15375 251793.120000
   3889   3893     1   0.15241 261918.400000
   3893   3894     1   0.12183 533627.360000
   3893   3925     1   0.13400 406935.840000
   3897   3900     1   0.15241 261918.400000
   3900   3901     1   0.12183 533627.360000
   3900   3949     1   0.13400 406935.840000
   3902   3903     1   0.15375 251793.120000
   3902   3913     1   0.15375 251793.120000
   3902   3920     1   0.14316 258236.480000
   3903   3905     1   0.15375 251793.120000
   3903   3923     1   0.14233 265014.560000
   3905   3906     1   0.15375 251793.120000
   3905   3912     1   0.14233 265014.560000
   3906   3907     1   0.15375 251793.120000
   3906   3925     1   0.14647 272713.120000
   3907   3911     1   0.14233 265014.560000
   3907   3920     1   0.14316 258236.480000
   3913   3918     1   0.14233 265014.560000
   3926   3927     1   0.15375 251793.120000
   3926   3937     1   0.15375 251793.120000
   3926   3944     1   0.14316 258236.480000
   3927   3929     1   0.15375 251793.120000
   3927   3947     1   0.14233 265014.560000
   3929   3930     1   0.15375 251793.120000
   3929   3936     1   0.14233 265014.560000
   3930   3931     1   0.15375 251793.120000
   3930   3949     1   0.14647 272713.120000
   3931   3935     1   0.14233 265014.560000
   3931   3944     1   0.14316 258236.480000
   3937   3942     1   0.14233 265014.560000
   3950   3952     1   0.14619 275056.160000
   3952   3954     1   0.15375 251793.120000
   3954   3958     1   0.14647 272713.120000
   3958   3959     1   0.14647 272713.120000
   3958   3960     1   0.14647 272713.120000
   3959   3970     1   0.15375 251793.120000
   3960   3962     1   0.15375 251793.120000
   3962   3966     1   0.15241 261918.400000
   3966   3967     1   0.12183 533627.360000
   3966   3998     1   0.13400 406935.840000
   3970   3973     1   0.15241 261918.400000
   3973   3974     1   0.12183 533627.360000
   3973   4022     1   0.13400 406935.840000
   3975   3976     1   0.15375 251793.120000
   3975   3986     1   0.15375 251793.120000
   3975   3993     1   0.14316 258236.480000
   3976   3978     1   0.15375 251793.120000
   3976   3996     1   0.14233 265014.560000
   3978   3979     1   0.15375 251793.120000
   3978   3985     1   0.14233 265014.560000
   3979   3980     1   0.15375 251793.120000
   3979   3998     1   0.14647 272713.120000
   3980   3984     1   0.14233 265014.560000
   3980   3993     1   0.14316 258236.480000
   3986   3991     1   0.14233 265014.560000
   3999   4000     1   0.15375 251793.120000
   3999   4010     1   0.15375 251793.120000
   3999   4017     1   0.14316 258236.480000
   4000   4002     1   0.15375 251793.120000
   4000   4020     1   0.14233 265014.560000
   4002   4003     1   0.15375 251793.120000
   4002   4009     1   0.14233 265014.560000
   4003   4004     1   0.15375 251793.120000
   4003   4022     1   0.14647 272713.120000
   4004   4008     1   0.14233 265014.560000
   4004   4017     1   0.14316 258236.480000
   4010   4015     1   0.14233 265014.560000
   4023   4025     1   0.14619 275056.160000
   4025   4027     1   0.15375 251793.120000
   4027   4031     1   0.14647 272713.120000
   4031   4032     1   0.14647 272713.120000
   4031   4033     1   0.14647 272713.120000
   4032   4043     1   0.15375 251793.120000
   4033   4035     1   0.15375 251793.120000
   4035   4039     1   0.15241 261918.400000
   4039   4040     1   0.12183 533627.360000
   4039   4071     1   0.13400 406935.840000
   4043   4046     1   0.15241 261918.400000
   4046   4047     1   0.12183 533627.360000
   4046   4095     1   0.13400 406935.840000
   4048   4049     1   0.15375 251793.120000
   4048   4059     1   0.15375 251793.120000
   4048   4066     1   0.14316 258236.480000
   4049   4051     1   0.15375 251793.120000
   4049   4069     1   0.14233 265014.560000
   4051   4052     1   0.15375 251793.120000
   4051   4058     1   0.14233 265014.560000
   4052   4053     1   0.15375 251793.120000
   4052   4071     1   0.14647 272713.120000
   4053   4057     1   0.14233 265014.560000
   4053   4066     1   0.14316 258236.480000
   4059   4064     1   0.14233 265014.560000
   4072   4073     1   0.15375 251793.120000
   4072   4083     1   0.15375 251793.120000
   4072   4090     1   0.14316 258236.480000
   4073   4075     1   0.15375 251793.120000
   4073   4093     1   0.14233 265014.560000
   4075   4076     1   0.15375 251793.120000
   4075   4082     1   0.14233 265014.560000
   4076   4077     1   0.15375 251793.120000
   4076   4095     1   0.14647 272713.120000
   4077   4081     1   0.14233 265014.560000
   4077   4090     1   0.14316 258236.480000
   4083   4088     1   0.14233 265014.560000
   4096   4098     1   0.14619 275056.160000
   4098   4100     1   0.15375 251793.120000
   4100   4104     1   0.14647 272713.120000
   4104   4105     1   0.14647 272713.120000
   4104   4106     1   0.14647 272713.120000
   4105   4116     1   0.15375 251793.120000
   4106   4108     1   0.15375 251793.120000
   4108   4112     1   0.15241 261918.400000
   4112   4113     1   0.12183 533627.360000
   4112   4144     1   0.13400 406935.840000
   4116   4119     1   0.15241 261918.400000
   4119   4120     1   0.12183 533627.360000
   4119   4168     1   0.13400 406935.840000
   4121   4122     1   0.15375 251793.120000
   4121   4132     1   0.15375 251793.120000
   4121   4139     1   0.14316 258236.480000
   4122   4124     1   0.15375 251793.120000
   4122   4142     1   0.14233 265014.560000
   4124   4125     1   0.15375 251793.120000
   4124   4131     1   0.14233 265014.560000
   4125   4126     1   0.15375 251793.120000
   4125   4144     1   0.14647 272713.120000
   4126   4130     1   0.14233 265014.560000
   4126   4139     1   0.14316 258236.480000
   4132   4137     1   0.14233 265014.560000
   4145   4146     1   0.15375 251793.120000
   4145   4156     1   0.15375 251793.120000
   4145   4163     1   0.14316 258236.480000
   4146   4148     1   0.15375 251793.120000
   4146   4166     1   0.14233 265014.560000
   4148   4149     1   0.15375 251793.120000
   4148   4155     1   0.14233 265014.560000
   4149   4150     1   0.15375 251793.120000
   4149   4168     1   0.14647 272713.120000
   4150   4154     1   0.14233 265014.560000
   4150   4163     1   0.14316 258236.480000
   4156   4161     1   0.14233 265014.560000
   4169   4171     1   0.14619 275056.160000
   4171   4173     1   0.15375 251793.120000
   4173   4177     1   0.14647 272713.120000
   4177   4178     1   0.14647 272713.120000
   4177   4179     1   0.14647 272713.120000
   4178   4189     1   0.15375 251793.120000
   4179   4181     1   0.15375 251793.120000
   4181   4185     1   0.15241 261918.400000
   4185   4186     1   0.12183 533627.360000
   4185   4217     1   0.13400 406935.840000
   4189   4192     1   0.15241 261918.400000
   4192   4193     1   0.12183 533627.360000
   4192   4241     1   0.13400 406935.840000
   4194   4195     1   0.15375 251793.120000
   4194   4205     1   0.15375 251793.120000
   4194   4212     1   0.14316 258236.480000
   4195   4197     1   0.15375 251793.120000
   4195   4215     1   0.14233 265014.560000
   4197   4198     1   0.15375 251793.120000
   4197   4204     1   0.14233 265014.560000
   4198   4199     1   0.15375 251793.120000
   4198   4217     1   0.14647 272713.120000
   4199   4203     1   0.14233 265014.560000
   4199   4212     1   0.14316 258236.480000
   4205   4210     1   0.14233 265014.560000
   4218   4219     1   0.15375 251793.120000
   4218   4229     1   0.15375 251793.120000
   4218   4236     1   0.14316 258236.480000
   4219   4221     1   0.15375 251793.120000
   4219   4239     1   0.14233 265014.560000
   4221   4222     1   0.15375 251793.120000
   4221   4228     1   0.14233 265014.560000
   4222   4223     1   0.15375 251793.120000
   4222   4241     1   0.14647 272713.120000
   4223   4227     1   0.14233 265014.560000
   4223   4236     1   0.14316 258236.480000
   4229   4234     1   0.14233 265014.560000
   4242   4244     1   0.14619 275056.160000
   4244   4246     1   0.15375 251793.120000
   4246   4250     1   0.14647 272713.120000
   4250   4251     1   0.14647 272713.120000
   4250   4252     1   0.14647 272713.120000
   4251   4262     1   0.15375 251793.120000
   4252   4254     1   0.15375 251793.120000
   4254   4258     1   0.15241 261918.400000
   4258   4259     1   0.12183 533627.360000
   4258   4290     1   0.13400 406935.840000
   4262   4265     1   0.15241 261918.400000
   4265   4266     1   0.12183 533627.360000
   4265   4314     1   0.13400 406935.840000
   4267   4268     1   0.15375 251793.120000
   4267   4278     1   0.15375 251793.120000
   4267   4285     1   0.14316 258236.480000
   4268   4270     1   0.15375 251793.120000
   4268   4288     1   0.14233 265014.560000
   4270   4271     1   0.15375 251793.120000
   4270   4277     1   0.14233 265014.560000
   4271   4272     1   0.15375 251793.120000
   4271   4290     1   0.14647 272713.120000
   4272   4276     1   0.14233 265014.560000
   4272   4285     1   0.14316 258236.480000
   4278   4283     1   0.14233 265014.560000
   4291   4292     1   0.15375 251793.120000
   4291   4302     1   0.15375 251793.120000
   4291   4309     1   0.14316 258236.480000
   4292   4294     1   0.15375 251793.120000
   4292   4312     1   0.14233 265014.560000
   4294   4295     1   0.15375 251793.120000
   4294   4301     1   0.14233 265014.560000
   4295   4296     1   0.15375 251793.120000
   4295   4314     1   0.14647 272713.120000
   4296   4300     1   0.14233 265014.560000
   4296   4309     1   0.14316 258236.480000
   4302   4307     1   0.14233 265014.560000
   4315   4317     1   0.14619 275056.160000
   4317   4319     1   0.15375 251793.120000
   4319   4323     1   0.14647 272713.120000
   4323   4324     1   0.14647 272713.120000
   4323   4325     1   0.14647 272713.120000
   4324   4335     1   0.15375 251793.120000
   4325   4327     1   0.15375 251793.120000
   4327   4331     1   0.15241 261918.400000
   4331   4332     1   0.12183 533627.360000
   4331   4363     1   0.13400 406935.840000
   4335   4338     1   0.15241 261918.400000
   4338   4339     1   0.12183 533627.360000
   4338   4387     1   0.13400 406935.840000
   4340   4341     1   0.15375 251793.120000
   4340   4351     1   0.15375 251793.120000
   4340   4358     1   0.14316 258236.480000
   4341   4343     1   0.15375 251793.120000
   4341   4361     1   0.14233 265014.560000
   4343   4344     1   0.15375 251793.120000
   4343   4350     1   0.14233 265014.560000
   4344   4345     1   0.15375 251793.120000
   4344   4363     1   0.14647 272713.120000
   4345   4349     1   0.14233 265014.560000
   4345   4358     1   0.14316 258236.480000
   4351   4356     1   0.14233 265014.560000
   4364   4365     1   0.15375 251793.120000
   4364   4375     1   0.15375 251793.120000
   4364   4382     1   0.14316 258236.480000
   4365   4367     1   0.15375 251793.120000
   4365   4385     1   0.14233 265014.560000
   4367   4368     1   0.15375 251793.120000
   4367   4374     1   0.14233 265014.560000
   4368   4369     1   0.15375 251793.120000
   4368   4387     1   0.14647 272713.120000
   4369   4373     1   0.14233 265014.560000
   4369   4382     1   0.14316 258236.480000
   4375   4380     1   0.14233 265014.560000
   4388   4390     1   0.14619 275056.160000
   4390   4392     1   0.15375 251793.120000
   4392   4396     1   0.14647 272713.120000
   4396   4397     1   0.14647 272713.120000
   4396   4398     1   0.14647 272713.120000
   4397   4408     1   0.15375 251793.120000
   4398   4400     1   0.15375 251793.120000
   4400   4404     1   0.15241 261918.400000
   4404   4405     1   0.12183 533627.360000
   4404   4436     1   0.13400 406935.840000
   4408   4411     1   0.15241 261918.400000
   4411   4412     1   0.12183 533627.360000
   4411   4460     1   0.13400 406935.840000
   4413   4414     1   0.15375 251793.120000
   4413   4424     1   0.15375 251793.120000
   4413   4431     1   0.14316 258236.480000
   4414   4416     1   0.15375 251793.120000
   4414   4434     1   0.14233 265014.560000
   4416   4417     1   0.15375 251793.120000
   4416   4423     1   0.14233 265014.560000
   4417   4418     1   0.15375 251793.120000
   4417   4436     1   0.14647 272713.120000
   4418   4422     1   0.14233 265014.560000
   4418   4431     1   0.14316 258236.480000
   4424   4429     1   0.14233 265014.560000
   4437   4438     1   0.15375 251793.120000
   4437   4448     1   0.15375 251793.120000
   4437   4455     1   0.14316 258236.480000
   4438   4440     1   0.15375 251793.120000
   4438   4458     1   0.14233 265014.560000
   4440   4441     1   0.15375 251793.120000
   4440   4447     1   0.14233 265014.560000
   4441   4442     1   0.15375 251793.120000
   4441   4460     1   0.14647 272713.120000
   4442   4446     1   0.14233 265014.560000
   4442   4455     1   0.14316 258236.480000
   4448   4453     1   0.14233 265014.560000
   4461   4463     1   0.14619 275056.160000
   4463   4465     1   0.15375 251793.120000
   4465   4469     1   0.14647 272713.120000
   4469   4470     1   0.14647 272713.120000
   4469   4471     1   0.14647 272713.120000
   4470   4481     1   0.15375 251793.120000
   4471   4473     1   0.15375 251793.120000
   4473   4477     1   0.15241 261918.400000
   4477   4478     1   0.12183 533627.360000
   4477   4509     1   0.13400 406935.840000
   4481   4484     1   0.15241 261918.400000
   4484   4485     1   0.12183 533627.360000
   4484   4533     1   0.13400 406935.840000
   4486   4487     1   0.15375 251793.120000
   4486   4497     1   0.15375 251793.120000
   4486   4504     1   0.14316 258236.480000
   4487   4489     1   0.15375 251793.120000
   4487   4507     1   0.14233 265014.560000
   4489   4490     1   0.15375 251793.120000
   4489   4496     1   0.14233 265014.560000
   4490   4491     1   0.15375 251793.120000
   4490   4509     1   0.14647 272713.120000
   4491   4495     1   0.14233 265014.560000
   4491   4504     1   0.14316 258236.480000
   4497   4502     1   0.14233 265014.560000
   4510   4511     1   0.15375 251793.120000
   4510   4521     1   0.15375 251793.120000
   4510   4528     1   0.14316 258236.480000
   4511   4513     1   0.15375 251793.120000
   4511   4531     1   0.14233 265014.560000
   4513   4514     1   0.15375 251793.120000
   4513   4520     1   0.14233 265014.560000
   4514   4515     1   0.15375 251793.120000
   4514   4533     1   0.14647 272713.120000
   4515   4519     1   0.14233 265014.560000
   4515   4528     1   0.14316 258236.480000
   4521   4526     1   0.14233 265014.560000
   4534   4536     1   0.14619 275056.160000
   4536   4538     1   0.15375 251793.120000
   4538   4542     1   0.14647 272713.120000
   4542   4543     1   0.14647 272713.120000
   4542   4544     1   0.14647 272713.120000
   4543   4554     1   0.15375 251793.120000
   4544   4546     1   0.15375 251793.120000
   4546   4550     1   0.15241 261918.400000
   4550   4551     1   0.12183 533627.360000
   4550   4582     1   0.13400 406935.840000
   4554   4557     1   0.15241 261918.400000
   4557   4558     1   0.12183 533627.360000
   4557   4606     1   0.13400 406935.840000
   4559   4560     1   0.15375 251793.120000
   4559   4570     1   0.15375 251793.120000
   4559   4577     1   0.14316 258236.480000
   4560   4562     1   0.15375 251793.120000
   4560   4580     1   0.14233 265014.560000
   4562   4563     1   0.15375 251793.120000
   4562   4569     1   0.14233 265014.560000
   4563   4564     1   0.15375 251793.120000
   4563   4582     1   0.14647 272713.120000
   4564   4568     1   0.14233 265014.560000
   4564   4577     1   0.14316 258236.480000
   4570   4575     1   0.14233 265014.560000
   4583   4584     1   0.15375 251793.120000
   4583   4594     1   0.15375 251793.120000
   4583   4601     1   0.14316 258236.480000
   4584   4586     1   0.15375 251793.120000
   4584   4604     1   0.14233 265014.560000
   4586   4587     1   0.15375 251793.120000
   4586   4593     1   0.14233 265014.560000
   4587   4588     1   0.15375 251793.120000
   4587   4606     1   0.14647 272713.120000
   4588   4592     1   0.14233 265014.560000
   4588   4601     1   0.14316 258236.480000
   4594   4599     1   0.14233 265014.560000
   4607   4609     1   0.14619 275056.160000
   4609   4611     1   0.15375 251793.120000
   4611   4615     1   0.14647 272713.120000
   4615   4616     1   0.14647 272713.120000
   4615   4617     1   0.14647 272713.120000
   4616   4627     1   0.15375 251793.120000
   4617   4619     1   0.15375 251793.120000
   4619   4623     1   0.15241 261918.400000
   4623   4624     1   0.12183 533627.360000
   4623   4655     1   0.13400 406935.840000
   4627   4630     1   0.15241 261918.400000
   4630   4631     1   0.12183 533627.360000
   4630   4679     1   0.13400 406935.840000
   4632   4633     1   0.15375 251793.120000
   4632   4643     1   0.15375 251793.120000
   4632   4650     1   0.14316 258236.480000
   4633   4635     1   0.15375 251793.120000
   4633   4653     1   0.14233 265014.560000
   4635   4636     1   0.15375 251793.120000
   4635   4642     1   0.14233 265014.560000
   4636   4637     1   0.15375 251793.120000
   4636   4655     1   0.14647 272713.120000
   4637   4641     1   0.14233 265014.560000
   4637   4650     1   0.14316 258236.480000
   4643   4648     1   0.14233 265014.560000
   4656   4657     1   0.15375 251793.120000
   4656   4667     1   0.15375 251793.120000
   4656   4674     1   0.14316 258236.480000
   4657   4659     1   0.15375 251793.120000
   4657   4677     1   0.14233 265014.560000
   4659   4660     1   0.15375 251793.120000
   4659   4666     1   0.14233 265014.560000
   4660   4661     1   0.15375 251793.120000
   4660   4679     1   0.14647 272713.120000
   4661   4665     1   0.14233 265014.560000
   4661   4674     1   0.14316 258236.480000
   4667   4672     1   0.14233 265014.560000
   4680   4682     1   0.14619 275056.160000
   4682   4684     1   0.15375 251793.120000
   4684   4688     1   0.14647 272713.120000
   4688   4689     1   0.14647 272713.120000
   4688   4690     1   0.14647 272713.120000
   4689   4700     1   0.15375 251793.120000
   4690   4692     1   0.15375 251793.120000
   4692   4696     1   0.15241 261918.400000
   4696   4697     1   0.12183 533627.360000
   4696   4728     1   0.13400 406935.840000
   4700   4703     1   0.15241 261918.400000
   4703   4704     1   0.12183 533627.360000
   4703   4752     1   0.13400 406935.840000
   4705   4706     1   0.15375 251793.120000
   4705   4716     1   0.15375 251793.120000
   4705   4723     1   0.14316 258236.480000
   4706   4708     1   0.15375 251793.120000
   4706   4726     1   0.14233 265014.560000
   4708   4709     1   0.15375 251793.120000
   4708   4715     1   0.14233 265014.560000
   4709   4710     1   0.15375 251793.120000
   4709   4728     1   0.14647 272713.120000
   4710   4714     1   0.14233 265014.560000
   4710   4723     1   0.14316 258236.480000
   4716   4721     1   0.14233 265014.560000
   4729   4730     1   0.15375 251793.120000
   4729   4740     1   0.15375 251793.120000
   4729   4747     1   0.14316 258236.480000
   4730   4732     1   0.15375 251793.120000
   4730   4750     1   0.14233 265014.560000
   4732   4733     1   0.15375 251793.120000
   4732   4739     1   0.14233 265014.560000
   4733   4734     1   0.15375 251793.120000
   4733   4752     1   0.14647 272713.120000
   4734   4738     1   0.14233 265014.560000
   4734   4747     1   0.14316 258236.480000
   4740   4745     1   0.14233 265014.560000
   4753   4755     1   0.14619 275056.160000
   4755   4757     1   0.15375 251793.120000
   4757   4761     1   0.14647 272713.120000
   4761   4762     1   0.14647 272713.120000
   4761   4763     1   0.14647 272713.120000
   4762   4773     1   0.15375 251793.120000
   4763   4765     1   0.15375 251793.120000
   4765   4769     1   0.15241 261918.400000
   4769   4770     1   0.12183 533627.360000
   4769   4801     1   0.13400 406935.840000
   4773   4776     1   0.15241 261918.400000
   4776   4777     1   0.12183 533627.360000
   4776   4825     1   0.13400 406935.840000
   4778   4779     1   0.15375 251793.120000
   4778   4789     1   0.15375 251793.120000
   4778   4796     1   0.14316 258236.480000
   4779   4781     1   0.15375 251793.120000
   4779   4799     1   0.14233 265014.560000
   4781   4782     1   0.15375 251793.120000
   4781   4788     1   0.14233 265014.560000
   4782   4783     1   0.15375 251793.120000
   4782   4801     1   0.14647 272713.120000
   4783   4787     1   0.14233 265014.560000
   4783   4796     1   0.14316 258236.480000
   4789   4794     1   0.14233 265014.560000
   4802   4803     1   0.15375 251793.120000
   4802   4813     1   0.15375 251793.120000
   4802   4820     1   0.14316 258236.480000
   4803   4805     1   0.15375 251793.120000
   4803   4823     1   0.14233 265014.560000
   4805   4806     1   0.15375 251793.120000
   4805   4812     1   0.14233 265014.560000
   4806   4807     1   0.15375 251793.120000
   4806   4825     1   0.14647 272713.120000
   4807   4811     1   0.14233 265014.560000
   4807   4820     1   0.14316 258236.480000
   4813   4818     1   0.14233 265014.560000
   4826   4828     1   0.14619 275056.160000
   4828   4830     1   0.15375 251793.120000
   4830   4834     1   0.14647 272713.120000
   4834   4835     1   0.14647 272713.120000
   4834   4836     1   0.14647 272713.120000
   4835   4846     1   0.15375 251793.120000
   4836   4838     1   0.15375 251793.120000
   4838   4842     1   0.15241 261918.400000
   4842   4843     1   0.12183 533627.360000
   4842   4874     1   0.13400 406935.840000
   4846   4849     1   0.15241 261918.400000
   4849   4850     1   0.12183 533627.360000
   4849   4898     1   0.13400 406935.840000
   4851   4852     1   0.15375 251793.120000
   4851   4862     1   0.15375 251793.120000
   4851   4869     1   0.14316 258236.480000
   4852   4854     1   0.15375 251793.120000
   4852   4872     1   0.14233 265014.560000
   4854   4855     1   0.15375 251793.120000
   4854   4861     1   0.14233 265014.560000
   4855   4856     1   0.15375 251793.120000
   4855   4874     1   0.14647 272713.120000
   4856   4860     1   0.14233 265014.560000
   4856   4869     1   0.14316 258236.480000
   4862   4867     1   0.14233 265014.560000
   4875   4876     1   0.15375 251793.120000
   4875   4886     1   0.15375 251793.120000
   4875   4893     1   0.14316 258236.480000
   4876   4878     1   0.15375 251793.120000
   4876   4896     1   0.14233 265014.560000
   4878   4879     1   0.15375 251793.120000
   4878   4885     1   0.14233 265014.560000
   4879   4880     1   0.15375 251793.120000
   4879   4898     1   0.14647 272713.120000
   4880   4884     1   0.14233 265014.560000
   4880   4893     1   0.14316 258236.480000
   4886   4891     1   0.14233 265014.560000
   4899   4901     1   0.14619 275056.160000
   4901   4903     1   0.15375 251793.120000
   4903   4907     1   0.14647 272713.120000
   4907   4908     1   0.14647 272713.120000
   4907   4909     1   0.14647 272713.120000
   4908   4919     1   0.15375 251793.120000
   4909   4911     1   0.15375 251793.120000
   4911   4915     1   0.15241 261918.400000
   4915   4916     1   0.12183 533627.360000
   4915   4947     1   0.13400 406935.840000
   4919   4922     1   0.15241 261918.400000
   4922   4923     1   0.12183 533627.360000
   4922   4971     1   0.13400 406935.840000
   4924   4925     1   0.15375 251793.120000
   4924   4935     1   0.15375 251793.120000
   4924   4942     1   0.14316 258236.480000
   4925   4927     1   0.15375 251793.120000
   4925   4945     1   0.14233 265014.560000
   4927   4928     1   0.15375 251793.120000
   4927   4934     1   0.14233 265014.560000
   4928   4929     1   0.15375 251793.120000
   4928   4947     1   0.14647 272713.120000
   4929   4933     1   0.14233 265014.560000
   4929   4942     1   0.14316 258236.480000
   4935   4940     1   0.14233 265014.560000
   4948   4949     1   0.15375 251793.120000
   4948   4959     1   0.15375 251793.120000
   4948   4966     1   0.14316 258236.480000
   4949   4951     1   0.15375 251793.120000
   4949   4969     1   0.14233 265014.560000
   4951   4952     1   0.15375 251793.120000
   4951   4958     1   0.14233 265014.560000
   4952   4953     1   0.15375 251793.120000
   4952   4971     1   0.14647 272713.120000
   4953   4957     1   0.14233 265014.560000
   4953   4966     1   0.14316 258236.480000
   4959   4964     1   0.14233 265014.560000
   4972   4974     1   0.14619 275056.160000
   4974   4976     1   0.15375 251793.120000
   4976   4980     1   0.14647 272713.120000
   4980   4981     1   0.14647 272713.120000
   4980   4982     1   0.14647 272713.120000
   4981   4992     1   0.15375 251793.120000
   4982   4984     1   0.15375 251793.120000
   4984   4988     1   0.15241 261918.400000
   4988   4989     1   0.12183 533627.360000
   4988   5020     1   0.13400 406935.840000
   4992   4995     1   0.15241 261918.400000
   4995   4996     1   0.12183 533627.360000
   4995   5044     1   0.13400 406935.840000
   4997   4998     1   0.15375 251793.120000
   4997   5008     1   0.15375 251793.120000
   4997   5015     1   0.14316 258236.480000
   4998   5000     1   0.15375 251793.120000
   4998   5018     1   0.14233 265014.560000
   5000   5001     1   0.15375 251793.120000
   5000   5007     1   0.14233 265014.560000
   5001   5002     1   0.15375 251793.120000
   5001   5020     1   0.14647 272713.120000
   5002   5006     1   0.14233 265014.560000
   5002   5015     1   0.14316 258236.480000
   5008   5013     1   0.14233 265014.560000
   5021   5022     1   0.15375 251793.120000
   5021   5032     1   0.15375 251793.120000
   5021   5039     1   0.14316 258236.480000
   5022   5024     1   0.15375 251793.120000
   5022   5042     1   0.14233 265014.560000
   5024   5025     1   0.15375 251793.120000
   5024   5031     1   0.14233 265014.560000
   5025   5026     1   0.15375 251793.120000
   5025   5044     1   0.14647 272713.120000
   5026   5030     1   0.14233 265014.560000
   5026   5039     1   0.14316 258236.480000
   5032   5037     1   0.14233 265014.560000
   5045   5047     1   0.14619 275056.160000
   5047   5049     1   0.15375 251793.120000
   5049   5053     1   0.14647 272713.120000
   5053   5054     1   0.14647 272713.120000
   5053   5055     1   0.14647 272713.120000
   5054   5065     1   0.15375 251793.120000
   5055   5057     1   0.15375 251793.120000
   5057   5061     1   0.15241 261918.400000
   5061   5062     1   0.12183 533627.360000
   5061   5093     1   0.13400 406935.840000
   5065   5068     1   0.15241 261918.400000
   5068   5069     1   0.12183 533627.360000
   5068   5117     1   0.13400 406935.840000
   5070   5071     1   0.15375 251793.120000
   5070   5081     1   0.15375 251793.120000
   5070   5088     1   0.14316 258236.480000
   5071   5073     1   0.15375 251793.120000
   5071   5091     1   0.14233 265014.560000
   5073   5074     1   0.15375 251793.120000
   5073   5080     1   0.14233 265014.560000
   5074   5075     1   0.15375 251793.120000
   5074   5093     1   0.14647 272713.120000
   5075   5079     1   0.14233 265014.560000
   5075   5088     1   0.14316 258236.480000
   5081   5086     1   0.14233 265014.560000
   5094   5095     1   0.15375 251793.120000
   5094   5105     1   0.15375 251793.120000
   5094   5112     1   0.14316 258236.480000
   5095   5097     1   0.15375 251793.120000
   5095   5115     1   0.14233 265014.560000
   5097   5098     1   0.15375 251793.120000
   5097   5104     1   0.14233 265014.560000
   5098   5099     1   0.15375 251793.120000
   5098   5117     1   0.14647 272713.120000
   5099   5103     1   0.14233 265014.560000
   5099   5112     1   0.14316 258236.480000
   5105   5110     1   0.14233 265014.560000
   5118   5120     1   0.14619 275056.160000
   5120   5122     1   0.15375 251793.120000
   5122   5126     1   0.14647 272713.120000
   5126   5127     1   0.14647 272713.120000
   5126   5128     1   0.14647 272713.120000
   5127   5138     1   0.15375 251793.120000
   5128   5130     1   0.15375 251793.120000
   5130   5134     1   0.15241 261918.400000
   5134   5135     1   0.12183 533627.360000
   5134   5166     1   0.13400 406935.840000
   5138   5141     1   0.15241 261918.400000
   5141   5142     1   0.12183 533627.360000
   5141   5190     1   0.13400 406935.840000
   5143   5144     1   0.15375 251793.120000
   5143   5154     1   0.15375 251793.120000
   5143   5161     1   0.14316 258236.480000
   5144   5146     1   0.15375 251793.120000
   5144   5164     1   0.14233 265014.560000
   5146   5147     1   0.15375 251793.120000
   5146   5153     1   0.14233 265014.560000
   5147   5148     1   0.15375 251793.120000
   5147   5166     1   0.14647 272713.120000
   5148   5152     1   0.14233 265014.560000
   5148   5161     1   0.14316 258236.480000
   5154   5159     1   0.14233 265014.560000
   5167   5168     1   0.15375 251793.120000
   5167   5178     1   0.15375 251793.120000
   5167   5185     1   0.14316 258236.480000
   5168   5170     1   0.15375 251793.120000
   5168   5188     1   0.14233 265014.560000
   5170   5171     1   0.15375 251793.120000
   5170   5177     1   0.14233 265014.560000
   5171   5172     1   0.15375 251793.120000
   5171   5190     1   0.14647 272713.120000
   5172   5176     1   0.14233 265014.560000
   5172   5185     1   0.14316 258236.480000
   5178   5183     1   0.14233 265014.560000
   5191   5193     1   0.14619 275056.160000
   5193   5195     1   0.15375 251793.120000
   5195   5199     1   0.14647 272713.120000
   5199   5200     1   0.14647 272713.120000
   5199   5201     1   0.14647 272713.120000
   5200   5211     1   0.15375 251793.120000
   5201   5203     1   0.15375 251793.120000
   5203   5207     1   0.15241 261918.400000
   5207   5208     1   0.12183 533627.360000
   5207   5239     1   0.13400 406935.840000
   5211   5214     1   0.15241 261918.400000
   5214   5215     1   0.12183 533627.360000
   5214   5263     1   0.13400 406935.840000
   5216   5217     1   0.15375 251793.120000
   5216   5227     1   0.15375 251793.120000
   5216   5234     1   0.14316 258236.480000
   5217   5219     1   0.15375 251793.120000
   5217   5237     1   0.14233 265014.560000
   5219   5220     1   0.15375 251793.120000
   5219   5226     1   0.14233 265014.560000
   5220   5221     1   0.15375 251793.120000
   5220   5239     1   0.14647 272713.120000
   5221   5225     1   0.14233 265014.560000
   5221   5234     1   0.14316 258236.480000
   5227   5232     1   0.14233 265014.560000
   5240   5241     1   0.15375 251793.120000
   5240   5251     1   0.15375 251793.120000
   5240   5258     1   0.14316 258236.480000
   5241   5243     1   0.15375 251793.120000
   5241   5261     1   0.14233 265014.560000
   5243   5244     1   0.15375 251793.120000
   5243   5250     1   0.14233 265014.560000
   5244   5245     1   0.15375 251793.120000
   5244   5263     1   0.14647 272713.120000
   5245   5249     1   0.14233 265014.560000
   5245   5258     1   0.14316 258236.480000
   5251   5256     1   0.14233 265014.560000
   5264   5266     1   0.14619 275056.160000
   5266   5268     1   0.15375 251793.120000
   5268   5272     1   0.14647 272713.120000
   5272   5273     1   0.14647 272713.120000
   5272   5274     1   0.14647 272713.120000
   5273   5284     1   0.15375 251793.120000
   5274   5276     1   0.15375 251793.120000
   5276   5280     1   0.15241 261918.400000
   5280   5281     1   0.12183 533627.360000
   5280   5312     1   0.13400 406935.840000
   5284   5287     1   0.15241 261918.400000
   5287   5288     1   0.12183 533627.360000
   5287   5336     1   0.13400 406935.840000
   5289   5290     1   0.15375 251793.120000
   5289   5300     1   0.15375 251793.120000
   5289   5307     1   0.14316 258236.480000
   5290   5292     1   0.15375 251793.120000
   5290   5310     1   0.14233 265014.560000
   5292   5293     1   0.15375 251793.120000
   5292   5299     1   0.14233 265014.560000
   5293   5294     1   0.15375 251793.120000
   5293   5312     1   0.14647 272713.120000
   5294   5298     1   0.14233 265014.560000
   5294   5307     1   0.14316 258236.480000
   5300   5305     1   0.14233 265014.560000
   5313   5314     1   0.15375 251793.120000
   5313   5324     1   0.15375 251793.120000
   5313   5331     1   0.14316 258236.480000
   5314   5316     1   0.15375 251793.120000
   5314   5334     1   0.14233 265014.560000
   5316   5317     1   0.15375 251793.120000
   5316   5323     1   0.14233 265014.560000
   5317   5318     1   0.15375 251793.120000
   5317   5336     1   0.14647 272713.120000
   5318   5322     1   0.14233 265014.560000
   5318   5331     1   0.14316 258236.480000
   5324   5329     1   0.14233 265014.560000
   5337   5339     1   0.14619 275056.160000
   5339   5341     1   0.15375 251793.120000
   5341   5345     1   0.14647 272713.120000
   5345   5346     1   0.14647 272713.120000
   5345   5347     1   0.14647 272713.120000
   5346   5357     1   0.15375 251793.120000
   5347   5349     1   0.15375 251793.120000
   5349   5353     1   0.15241 261918.400000
   5353   5354     1   0.12183 533627.360000
   5353   5385     1   0.13400 406935.840000
   5357   5360     1   0.15241 261918.400000
   5360   5361     1   0.12183 533627.360000
   5360   5409     1   0.13400 406935.840000
   5362   5363     1   0.15375 251793.120000
   5362   5373     1   0.15375 251793.120000
   5362   5380     1   0.14316 258236.480000
   5363   5365     1   0.15375 251793.120000
   5363   5383     1   0.14233 265014.560000
   5365   5366     1   0.15375 251793.120000
   5365   5372     1   0.14233 265014.560000
   5366   5367     1   0.15375 251793.120000
   5366   5385     1   0.14647 272713.120000
   5367   5371     1   0.14233 265014.560000
   5367   5380     1   0.14316 258236.480000
   5373   5378     1   0.14233 265014.560000
   5386   5387     1   0.15375 251793.120000
   5386   5397     1   0.15375 251793.120000
   5386   5404     1   0.14316 258236.480000
   5387   5389     1   0.15375 251793.120000
   5387   5407     1   0.14233 265014.560000
   5389   5390     1   0.15375 251793.120000
   5389   5396     1   0.14233 265014.560000
   5390   5391     1   0.15375 251793.120000
   5390   5409     1   0.14647 272713.120000
   5391   5395     1   0.14233 265014.560000
   5391   5404     1   0.14316 258236.480000
   5397   5402     1   0.14233 265014.560000
   5410   5412     1   0.14619 275056.160000
   5412   5414     1   0.15375 251793.120000
   5414   5418     1   0.14647 272713.120000
   5418   5419     1   0.14647 272713.120000
   5418   5420     1   0.14647 272713.120000
   5419   5430     1   0.15375 251793.120000
   5420   5422     1   0.15375 251793.120000
   5422   5426     1   0.15241 261918.400000
   5426   5427     1   0.12183 533627.360000
   5426   5458     1   0.13400 406935.840000
   5430   5433     1   0.15241 261918.400000
   5433   5434     1   0.12183 533627.360000
   5433   5482     1   0.13400 406935.840000
   5435   5436     1   0.15375 251793.120000
   5435   5446     1   0.15375 251793.120000
   5435   5453     1   0.14316 258236.480000
   5436   5438     1   0.15375 251793.120000
   5436   5456     1   0.14233 265014.560000
   5438   5439     1   0.15375 251793.120000
   5438   5445     1   0.14233 265014.560000
   5439   5440     1   0.15375 251793.120000
   5439   5458     1   0.14647 272713.120000
   5440   5444     1   0.14233 265014.560000
   5440   5453     1   0.14316 258236.480000
   5446   5451     1   0.14233 265014.560000
   5459   5460     1   0.15375 251793.120000
   5459   5470     1   0.15375 251793.120000
   5459   5477     1   0.14316 258236.480000
   5460   5462     1   0.15375 251793.120000
   5460   5480     1   0.14233 265014.560000
   5462   5463     1   0.15375 251793.120000
   5462   5469     1   0.14233 265014.560000
   5463   5464     1   0.15375 251793.120000
   5463   5482     1   0.14647 272713.120000
   5464   5468     1   0.14233 265014.560000
   5464   5477     1   0.14316 258236.480000
   5470   5475     1   0.14233 265014.560000
   5483   5485     1   0.14619 275056.160000
   5485   5487     1   0.15375 251793.120000
   5487   5491     1   0.14647 272713.120000
   5491   5492     1   0.14647 272713.120000
   5491   5493     1   0.14647 272713.120000
   5492   5503     1   0.15375 251793.120000
   5493   5495     1   0.15375 251793.120000
   5495   5499     1   0.15241 261918.400000
   5499   5500     1   0.12183 533627.360000
   5499   5531     1   0.13400 406935.840000
   5503   5506     1   0.15241 261918.400000
   5506   5507     1   0.12183 533627.360000
   5506   5555     1   0.13400 406935.840000
   5508   5509     1   0.15375 251793.120000
   5508   5519     1   0.15375 251793.120000
   5508   5526     1   0.14316 258236.480000
   5509   5511     1   0.15375 251793.120000
   5509   5529     1   0.14233 265014.560000
   5511   5512     1   0.15375 251793.120000
   5511   5518     1   0.14233 265014.560000
   5512   5513     1   0.15375 251793.120000
   5512   5531     1   0.14647 272713.120000
   5513   5517     1   0.14233 265014.560000
   5513   5526     1   0.14316 258236.480000
   5519   5524     1   0.14233 265014.560000
   5532   5533     1   0.15375 251793.120000
   5532   5543     1   0.15375 251793.120000
   5532   5550     1   0.14316 258236.480000
   5533   5535     1   0.15375 251793.120000
   5533   5553     1   0.14233 265014.560000
   5535   5536     1   0.15375 251793.120000
   5535   5542     1   0.14233 265014.560000
   5536   5537     1   0.15375 251793.120000
   5536   5555     1   0.14647 272713.120000
   5537   5541     1   0.14233 265014.560000
   5537   5550     1   0.14316 258236.480000
   5543   5548     1   0.14233 265014.560000
   5556   5558     1   0.14619 275056.160000
   5558   5560     1   0.15375 251793.120000
   5560   5564     1   0.14647 272713.120000
   5564   5565     1   0.14647 272713.120000
   5564   5566     1   0.14647 272713.120000
   5565   5576     1   0.15375 251793.120000
   5566   5568     1   0.15375 251793.120000
   5568   5572     1   0.15241 261918.400000
   5572   5573     1   0.12183 533627.360000
   5572   5604     1   0.13400 406935.840000
   5576   5579     1   0.15241 261918.400000
   5579   5580     1   0.12183 533627.360000
   5579   5628     1   0.13400 406935.840000
   5581   5582     1   0.15375 251793.120000
   5581   5592     1   0.15375 251793.120000
   5581   5599     1   0.14316 258236.480000
   5582   5584     1   0.15375 251793.120000
   5582   5602     1   0.14233 265014.560000
   5584   5585     1   0.15375 251793.120000
   5584   5591     1   0.14233 265014.560000
   5585   5586     1   0.15375 251793.120000
   5585   5604     1   0.14647 272713.120000
   5586   5590     1   0.14233 265014.560000
   5586   5599     1   0.14316 258236.480000
   5592   5597     1   0.14233 265014.560000
   5605   5606     1   0.15375 251793.120000
   5605   5616     1   0.15375 251793.120000
   5605   5623     1   0.14316 258236.480000
   5606   5608     1   0.15375 251793.120000
   5606   5626     1   0.14233 265014.560000
   5608   5609     1   0.15375 251793.120000
   5608   5615     1   0.14233 265014.560000
   5609   5610     1   0.15375 251793.120000
   5609   5628     1   0.14647 272713.120000
   5610   5614     1   0.14233 265014.560000
   5610   5623     1   0.14316 258236.480000
   5616   5621     1   0.14233 265014.560000
   5629   5631     1   0.14619 275056.160000
   5631   5633     1   0.15375 251793.120000
   5633   5637     1   0.14647 272713.120000
   5637   5638     1   0.14647 272713.120000
   5637   5639     1   0.14647 272713.120000
   5638   5649     1   0.15375 251793.120000
   5639   5641     1   0.15375 251793.120000
   5641   5645     1   0.15241 261918.400000
   5645   5646     1   0.12183 533627.360000
   5645   5677     1   0.13400 406935.840000
   5649   5652     1   0.15241 261918.400000
   5652   5653     1   0.12183 533627.360000
   5652   5701     1   0.13400 406935.840000
   5654   5655     1   0.15375 251793.120000
   5654   5665     1   0.15375 251793.120000
   5654   5672     1   0.14316 258236.480000
   5655   5657     1   0.15375 251793.120000
   5655   5675     1   0.14233 265014.560000
   5657   5658     1   0.15375 251793.120000
   5657   5664     1   0.14233 265014.560000
   5658   5659     1   0.15375 251793.120000
   5658   5677     1   0.14647 272713.120000
   5659   5663     1   0.14233 265014.560000
   5659   5672     1   0.14316 258236.480000
   5665   5670     1   0.14233 265014.560000
   5678   5679     1   0.15375 251793.120000
   5678   5689     1   0.15375 251793.120000
   5678   5696     1   0.14316 258236.480000
   5679   5681     1   0.15375 251793.120000
   5679   5699     1   0.14233 265014.560000
   5681   5682     1   0.15375 251793.120000
   5681   5688     1   0.14233 265014.560000
   5682   5683     1   0.15375 251793.120000
   5682   5701     1   0.14647 272713.120000
   5683   5687     1   0.14233 265014.560000
   5683   5696     1   0.14316 258236.480000
   5689   5694     1   0.14233 265014.560000
   5702   5704     1   0.14619 275056.160000
   5704   5706     1   0.15375 251793.120000
   5706   5710     1   0.14647 272713.120000
   5710   5711     1   0.14647 272713.120000
   5710   5712     1   0.14647 272713.120000
   5711   5722     1   0.15375 251793.120000
   5712   5714     1   0.15375 251793.120000
   5714   5718     1   0.15241 261918.400000
   5718   5719     1   0.12183 533627.360000
   5718   5750     1   0.13400 406935.840000
   5722   5725     1   0.15241 261918.400000
   5725   5726     1   0.12183 533627.360000
   5725   5774     1   0.13400 406935.840000
   5727   5728     1   0.15375 251793.120000
   5727   5738     1   0.15375 251793.120000
   5727   5745     1   0.14316 258236.480000
   5728   5730     1   0.15375 251793.120000
   5728   5748     1   0.14233 265014.560000
   5730   5731     1   0.15375 251793.120000
   5730   5737     1   0.14233 265014.560000
   5731   5732     1   0.15375 251793.120000
   5731   5750     1   0.14647 272713.120000
   5732   5736     1   0.14233 265014.560000
   5732   5745     1   0.14316 258236.480000
   5738   5743     1   0.14233 265014.560000
   5751   5752     1   0.15375 251793.120000
   5751   5762     1   0.15375 251793.120000
   5751   5769     1   0.14316 258236.480000
   5752   5754     1   0.15375 251793.120000
   5752   5772     1   0.14233 265014.560000
   5754   5755     1   0.15375 251793.120000
   5754   5761     1   0.14233 265014.560000
   5755   5756     1   0.15375 251793.120000
   5755   5774     1   0.14647 272713.120000
   5756   5760     1   0.14233 265014.560000
   5756   5769     1   0.14316 258236.480000
   5762   5767     1   0.14233 265014.560000
   5775   5777     1   0.14619 275056.160000
   5777   5779     1   0.15375 251793.120000
   5779   5783     1   0.14647 272713.120000
   5783   5784     1   0.14647 272713.120000
   5783   5785     1   0.14647 272713.120000
   5784   5795     1   0.15375 251793.120000
   5785   5787     1   0.15375 251793.120000
   5787   5791     1   0.15241 261918.400000
   5791   5792     1   0.12183 533627.360000
   5791   5823     1   0.13400 406935.840000
   5795   5798     1   0.15241 261918.400000
   5798   5799     1   0.12183 533627.360000
   5798   5847     1   0.13400 406935.840000
   5800   5801     1   0.15375 251793.120000
   5800   5811     1   0.15375 251793.120000
   5800   5818     1   0.14316 258236.480000
   5801   5803     1   0.15375 251793.120000
   5801   5821     1   0.14233 265014.560000
   5803   5804     1   0.15375 251793.120000
   5803   5810     1   0.14233 265014.560000
   5804   5805     1   0.15375 251793.120000
   5804   5823     1   0.14647 272713.120000
   5805   5809     1   0.14233 265014.560000
   5805   5818     1   0.14316 258236.480000
   5811   5816     1   0.14233 265014.560000
   5824   5825     1   0.15375 251793.120000
   5824   5835     1   0.15375 251793.120000
   5824   5842     1   0.14316 258236.480000
   5825   5827     1   0.15375 251793.120000
   5825   5845     1   0.14233 265014.560000
   5827   5828     1   0.15375 251793.120000
   5827   5834     1   0.14233 265014.560000
   5828   5829     1   0.15375 251793.120000
   5828   5847     1   0.14647 272713.120000
   5829   5833     1   0.14233 265014.560000
   5829   5842     1   0.14316 258236.480000
   5835   5840     1   0.14233 265014.560000
   5848   5850     1   0.14619 275056.160000
   5850   5852     1   0.15375 251793.120000
   5852   5856     1   0.14647 272713.120000
   5856   5857     1   0.14647 272713.120000
   5856   5858     1   0.14647 272713.120000
   5857   5868     1   0.15375 251793.120000
   5858   5860     1   0.15375 251793.120000
   5860   5864     1   0.15241 261918.400000
   5864   5865     1   0.12183 533627.360000
   5864   5896     1   0.13400 406935.840000
   5868   5871     1   0.15241 261918.400000
   5871   5872     1   0.12183 533627.360000
   5871   5920     1   0.13400 406935.840000
   5873   5874     1   0.15375 251793.120000
   5873   5884     1   0.15375 251793.120000
   5873   5891     1   0.14316 258236.480000
   5874   5876     1   0.15375 251793.120000
   5874   5894     1   0.14233 265014.560000
   5876   5877     1   0.15375 251793.120000
   5876   5883     1   0.14233 265014.560000
   5877   5878     1   0.15375 251793.120000
   5877   5896     1   0.14647 272713.120000
   5878   5882     1   0.14233 265014.560000
   5878   5891     1   0.14316 258236.480000
   5884   5889     1   0.14233 265014.560000
   5897   5898     1   0.15375 251793.120000
   5897   5908     1   0.15375 251793.120000
   5897   5915     1   0.14316 258236.480000
   5898   5900     1   0.15375 251793.120000
   5898   5918     1   0.14233 265014.560000
   5900   5901     1   0.15375 251793.120000
   5900   5907     1   0.14233 265014.560000
   5901   5902     1   0.15375 251793.120000
   5901   5920     1   0.14647 272713.120000
   5902   5906     1   0.14233 265014.560000
   5902   5915     1   0.14316 258236.480000
   5908   5913     1   0.14233 265014.560000
   5921   5923     1   0.14619 275056.160000
   5923   5925     1   0.15375 251793.120000
   5925   5929     1   0.14647 272713.120000
   5929   5930     1   0.14647 272713.120000
   5929   5931     1   0.14647 272713.120000
   5930   5941     1   0.15375 251793.120000
   5931   5933     1   0.15375 251793.120000
   5933   5937     1   0.15241 261918.400000
   5937   5938     1   0.12183 533627.360000
   5937   5969     1   0.13400 406935.840000
   5941   5944     1   0.15241 261918.400000
   5944   5945     1   0.12183 533627.360000
   5944   5993     1   0.13400 406935.840000
   5946   5947     1   0.15375 251793.120000
   5946   5957     1   0.15375 251793.120000
   5946   5964     1   0.14316 258236.480000
   5947   5949     1   0.15375 251793.120000
   5947   5967     1   0.14233 265014.560000
   5949   5950     1   0.15375 251793.120000
   5949   5956     1   0.14233 265014.560000
   5950   5951     1   0.15375 251793.120000
   5950   5969     1   0.14647 272713.120000
   5951   5955     1   0.14233 265014.560000
   5951   5964     1   0.14316 258236.480000
   5957   5962     1   0.14233 265014.560000
   5970   5971     1   0.15375 251793.120000
   5970   5981     1   0.15375 251793.120000
   5970   5988     1   0.14316 258236.480000
   5971   5973     1   0.15375 251793.120000
   5971   5991     1   0.14233 265014.560000
   5973   5974     1   0.15375 251793.120000
   5973   5980     1   0.14233 265014.560000
   5974   5975     1   0.15375 251793.120000
   5974   5993     1   0.14647 272713.120000
   5975   5979     1   0.14233 265014.560000
   5975   5988     1   0.14316 258236.480000
   5981   5986     1   0.14233 265014.560000
   5994   5996     1   0.14619 275056.160000
   5996   5998     1   0.15375 251793.120000
   5998   6002     1   0.14647 272713.120000
   6002   6003     1   0.14647 272713.120000
   6002   6004     1   0.14647 272713.120000
   6003   6014     1   0.15375 251793.120000
   6004   6006     1   0.15375 251793.120000
   6006   6010     1   0.15241 261918.400000
   6010   6011     1   0.12183 533627.360000
   6010   6042     1   0.13400 406935.840000
   6014   6017     1   0.15241 261918.400000
   6017   6018     1   0.12183 533627.360000
   6017   6066     1   0.13400 406935.840000
   6019   6020     1   0.15375 251793.120000
   6019   6030     1   0.15375 251793.120000
   6019   6037     1   0.14316 258236.480000
   6020   6022     1   0.15375 251793.120000
   6020   6040     1   0.14233 265014.560000
   6022   6023     1   0.15375 251793.120000
   6022   6029     1   0.14233 265014.560000
   6023   6024     1   0.15375 251793.120000
   6023   6042     1   0.14647 272713.120000
   6024   6028     1   0.14233 265014.560000
   6024   6037     1   0.14316 258236.480000
   6030   6035     1   0.14233 265014.560000
   6043   6044     1   0.15375 251793.120000
   6043   6054     1   0.15375 251793.120000
   6043   6061     1   0.14316 258236.480000
   6044   6046     1   0.15375 251793.120000
   6044   6064     1   0.14233 265014.560000
   6046   6047     1   0.15375 251793.120000
   6046   6053     1   0.14233 265014.560000
   6047   6048     1   0.15375 251793.120000
   6047   6066     1   0.14647 272713.120000
   6048   6052     1   0.14233 265014.560000
   6048   6061     1   0.14316 258236.480000
   6054   6059     1   0.14233 265014.560000
   6067   6069     1   0.14619 275056.160000
   6069   6071     1   0.15375 251793.120000
   6071   6075     1   0.14647 272713.120000
   6075   6076     1   0.14647 272713.120000
   6075   6077     1   0.14647 272713.120000
   6076   6087     1   0.15375 251793.120000
   6077   6079     1   0.15375 251793.120000
   6079   6083     1   0.15241 261918.400000
   6083   6084     1   0.12183 533627.360000
   6083   6115     1   0.13400 406935.840000
   6087   6090     1   0.15241 261918.400000
   6090   6091     1   0.12183 533627.360000
   6090   6139     1   0.13400 406935.840000
   6092   6093     1   0.15375 251793.120000
   6092   6103     1   0.15375 251793.120000
   6092   6110     1   0.14316 258236.480000
   6093   6095     1   0.15375 251793.120000
   6093   6113     1   0.14233 265014.560000
   6095   6096     1   0.15375 251793.120000
   6095   6102     1   0.14233 265014.560000
   6096   6097     1   0.15375 251793.120000
   6096   6115     1   0.14647 272713.120000
   6097   6101     1   0.14233 265014.560000
   6097   6110     1   0.14316 258236.480000
   6103   6108     1   0.14233 265014.560000
   6116   6117     1   0.15375 251793.120000
   6116   6127     1   0.15375 251793.120000
   6116   6134     1   0.14316 258236.480000
   6117   6119     1   0.15375 251793.120000
   6117   6137     1   0.14233 265014.560000
   6119   6120     1   0.15375 251793.120000
   6119   6126     1   0.14233 265014.560000
   6120   6121     1   0.15375 251793.120000
   6120   6139     1   0.14647 272713.120000
   6121   6125     1   0.14233 265014.560000
   6121   6134     1   0.14316 258236.480000
   6127   6132     1   0.14233 265014.560000
   6140   6142     1   0.14619 275056.160000
   6142   6144     1   0.15375 251793.120000
   6144   6148     1   0.14647 272713.120000
   6148   6149     1   0.14647 272713.120000
   6148   6150     1   0.14647 272713.120000
   6149   6160     1   0.15375 251793.120000
   6150   6152     1   0.15375 251793.120000
   6152   6156     1   0.15241 261918.400000
   6156   6157     1   0.12183 533627.360000
   6156   6188     1   0.13400 406935.840000
   6160   6163     1   0.15241 261918.400000
   6163   6164     1   0.12183 533627.360000
   6163   6212     1   0.13400 406935.840000
   6165   6166     1   0.15375 251793.120000
   6165   6176     1   0.15375 251793.120000
   6165   6183     1   0.14316 258236.480000
   6166   6168     1   0.15375 251793.120000
   6166   6186     1   0.14233 265014.560000
   6168   6169     1   0.15375 251793.120000
   6168   6175     1   0.14233 265014.560000
   6169   6170     1   0.15375 251793.120000
   6169   6188     1   0.14647 272713.120000
   6170   6174     1   0.14233 265014.560000
   6170   6183     1   0.14316 258236.480000
   6176   6181     1   0.14233 265014.560000
   6189   6190     1   0.15375 251793.120000
   6189   6200     1   0.15375 251793.120000
   6189   6207     1   0.14316 258236.480000
   6190   6192     1   0.15375 251793.120000
   6190   6210     1   0.14233 265014.560000
   6192   6193     1   0.15375 251793.120000
   6192   6199     1   0.14233 265014.560000
   6193   6194     1   0.15375 251793.120000
   6193   6212     1   0.14647 272713.120000
   6194   6198     1   0.14233 265014.560000
   6194   6207     1   0.14316 258236.480000
   6200   6205     1   0.14233 265014.560000
      1      2     1   0.10969 276646.080000
      1      3     1   0.10969 276646.080000
      4      5     1   0.10969 276646.080000
      4      6     1   0.10969 276646.080000
      9     10     1   0.10969 276646.080000
      9     11     1   0.10969 276646.080000
     12     13     1   0.10969 276646.080000
     12     14     1   0.10969 276646.080000
     15     16     1   0.10969 276646.080000
     15     17     1   0.10969 276646.080000
     18     19     1   0.10969 276646.080000
     18     20     1   0.10969 276646.080000
     21     22     1   0.10969 276646.080000
     21     23     1   0.10969 276646.080000
     24     25     1   0.10969 276646.080000
     24     26     1   0.10969 276646.080000
     27     28     1   0.10969 276646.080000
     27     29     1   0.10969 276646.080000
     30     31     1   0.10969 276646.080000
     30     32     1   0.10969 276646.080000
     41     42     1   0.10969 276646.080000
     41     43     1   0.10969 276646.080000
     44     45     1   0.10969 276646.080000
     44     46     1   0.10969 276646.080000
     48     49     1   0.10969 276646.080000
     48     50     1   0.10969 276646.080000
     51     52     1   0.10969 276646.080000
     51     53     1   0.10969 276646.080000
     54     55     1   0.10969 276646.080000
     54     56     1   0.10969 276646.080000
     57     58     1   0.10969 276646.080000
     57     59     1   0.10969 276646.080000
     64     65     1   0.10129 337397.760000
     66     67     1   0.10969 276646.080000
     66     68     1   0.10969 276646.080000
     69     70     1   0.10969 276646.080000
     69     71     1   0.10969 276646.080000
     73     74     1   0.10969 276646.080000
     73     75     1   0.10969 276646.080000
     76     77     1   0.10969 276646.080000
     76     78     1   0.10969 276646.080000
     79     80     1   0.10969 276646.080000
     79     81     1   0.10969 276646.080000
     82     83     1   0.10969 276646.080000
     82     84     1   0.10969 276646.080000
     89     90     1   0.10129 337397.760000
     91     92     1   0.10969 276646.080000
     91     93     1   0.10969 276646.080000
     94     95     1   0.10969 276646.080000
     94     96     1   0.10969 276646.080000
     98     99     1   0.10969 276646.080000
     98    100     1   0.10969 276646.080000
    101    102     1   0.10969 276646.080000
    101    103     1   0.10969 276646.080000
    104    105     1   0.10969 276646.080000
    104    106     1   0.10969 276646.080000
    107    108     1   0.10969 276646.080000
    107    109     1   0.10969 276646.080000
    114    115     1   0.10129 337397.760000
    116    117     1   0.10969 276646.080000
    116    118     1   0.10969 276646.080000
    119    120     1   0.10969 276646.080000
    119    121     1   0.10969 276646.080000
    123    124     1   0.10969 276646.080000
    123    125     1   0.10969 276646.080000
    126    127     1   0.10969 276646.080000
    126    128     1   0.10969 276646.080000
    129    130     1   0.10969 276646.080000
    129    131     1   0.10969 276646.080000
    132    133     1   0.10969 276646.080000
    132    134     1   0.10969 276646.080000
    139    140     1   0.10129 337397.760000
    141    142     1   0.10969 276646.080000
    141    143     1   0.10969 276646.080000
    144    145     1   0.10969 276646.080000
    144    146     1   0.10969 276646.080000
    148    149     1   0.10969 276646.080000
    148    150     1   0.10969 276646.080000
    151    152     1   0.10969 276646.080000
    151    153     1   0.10969 276646.080000
    154    155     1   0.10969 276646.080000
    154    156     1   0.10969 276646.080000
    157    158     1   0.10969 276646.080000
    157    159     1   0.10969 276646.080000
    164    165     1   0.10129 337397.760000
    166    167     1   0.10969 276646.080000
    166    168     1   0.10969 276646.080000
    169    170     1   0.10969 276646.080000
    169    171     1   0.10969 276646.080000
    173    174     1   0.10969 276646.080000
    173    175     1   0.10969 276646.080000
    176    177     1   0.10969 276646.080000
    176    178     1   0.10969 276646.080000
    179    180     1   0.10969 276646.080000
    179    181     1   0.10969 276646.080000
    182    183     1   0.10969 276646.080000
    182    184     1   0.10969 276646.080000
    189    190     1   0.10129 337397.760000
    191    192     1   0.10969 276646.080000
    191    193     1   0.10969 276646.080000
    194    195     1   0.10969 276646.080000
    194    196     1   0.10969 276646.080000
    198    199     1   0.10969 276646.080000
    198    200     1   0.10969 276646.080000
    201    202     1   0.10969 276646.080000
    201    203     1   0.10969 276646.080000
    204    205     1   0.10969 276646.080000
    204    206     1   0.10969 276646.080000
    207    208     1   0.10969 276646.080000
    207    209     1   0.10969 276646.080000
    214    215     1   0.10129 337397.760000
    216    217     1   0.10969 276646.080000
    216    218     1   0.10969 276646.080000
    219    220     1   0.10969 276646.080000
    219    221     1   0.10969 276646.080000
    223    224     1   0.10969 276646.080000
    223    225     1   0.10969 276646.080000
    226    227     1   0.10969 276646.080000
    226    228     1   0.10969 276646.080000
    229    230     1   0.10969 276646.080000
    229    231     1   0.10969 276646.080000
    232    233     1   0.10969 276646.080000
    232    234     1   0.10969 276646.080000
    239    240     1   0.10129 337397.760000
    241    242     1   0.10969 276646.080000
    241    243     1   0.10969 276646.080000
    244    245     1   0.10969 276646.080000
    244    246     1   0.10969 276646.080000
    248    249     1   0.10969 276646.080000
    248    250     1   0.10969 276646.080000
    251    252     1   0.10969 276646.080000
    251    253     1   0.10969 276646.080000
    254    255     1   0.10969 276646.080000
    254    256     1   0.10969 276646.080000
    257    258     1   0.10969 276646.080000
    257    259     1   0.10969 276646.080000
    264    265     1   0.10129 337397.760000
    266    267     1   0.10969 276646.080000
    266    268     1   0.10969 276646.080000
    269    270     1   0.10969 276646.080000
    269    271     1   0.10969 276646.080000
    273    274     1   0.10969 276646.080000
    273    275     1   0.10969 276646.080000
    276    277     1   0.10969 276646.080000
    276    278     1   0.10969 276646.080000
    279    280     1   0.10969 276646.080000
    279    281     1   0.10969 276646.080000
    282    283     1   0.10969 276646.080000
    282    284     1   0.10969 276646.080000
    289    290     1   0.10129 337397.760000
    291    292     1   0.10969 276646.080000
    291    293     1   0.10969 276646.080000
    294    295     1   0.10969 276646.080000
    294    296     1   0.10969 276646.080000
    298    299     1   0.10969 276646.080000
    298    300     1   0.10969 276646.080000
    301    302     1   0.10969 276646.080000
    301    303     1   0.10969 276646.080000
    304    305     1   0.10969 276646.080000
    304    306     1   0.10969 276646.080000
    307    308     1   0.10969 276646.080000
    307    309     1   0.10969 276646.080000
    314    315     1   0.10129 337397.760000
    316    317     1   0.10969 276646.080000
    316    318     1   0.10969 276646.080000
    319    320     1   0.10969 276646.080000
    319    321     1   0.10969 276646.080000
    323    324     1   0.10969 276646.080000
    323    325     1   0.10969 276646.080000
    326    327     1   0.10969 276646.080000
    326    328     1   0.10969 276646.080000
    329    330     1   0.10969 276646.080000
    329    331     1   0.10969 276646.080000
    332    333     1   0.10969 276646.080000
    332    334     1   0.10969 276646.080000
    339    340     1   0.10129 337397.760000
    341    342     1   0.10969 276646.080000
    341    343     1   0.10969 276646.080000
    344    345     1   0.10969 276646.080000
    344    346     1   0.10969 276646.080000
    348    349     1   0.10969 276646.080000
    348    350     1   0.10969 276646.080000
    351    352     1   0.10969 276646.080000
    351    353     1   0.10969 276646.080000
    354    355     1   0.10969 276646.080000
    354    356     1   0.10969 276646.080000
    357    358     1   0.10969 276646.080000
    357    359     1   0.10969 276646.080000
    364    365     1   0.10129 337397.760000
    366    367     1   0.10969 276646.080000
    366    368     1   0.10969 276646.080000
    369    370     1   0.10969 276646.080000
    369    371     1   0.10969 276646.080000
    373    374     1   0.10969 276646.080000
    373    375     1   0.10969 276646.080000
    376    377     1   0.10969 276646.080000
    376    378     1   0.10969 276646.080000
    379    380     1   0.10969 276646.080000
    379    381     1   0.10969 276646.080000
    382    383     1   0.10969 276646.080000
    382    384     1   0.10969 276646.080000
    389    390     1   0.10129 337397.760000
    391    392     1   0.10969 276646.080000
    391    393     1   0.10969 276646.080000
    394    395     1   0.10969 276646.080000
    394    396     1   0.10969 276646.080000
    398    399     1   0.10969 276646.080000
    398    400     1   0.10969 276646.080000
    401    402     1   0.10969 276646.080000
    401    403     1   0.10969 276646.080000
    404    405     1   0.10969 276646.080000
    404    406     1   0.10969 276646.080000
    407    408     1   0.10969 276646.080000
    407    409     1   0.10969 276646.080000
    414    415     1   0.10129 337397.760000
    416    417     1   0.10969 276646.080000
    416    418     1   0.10969 276646.080000
    419    420     1   0.10969 276646.080000
    419    421     1   0.10969 276646.080000
    423    424     1   0.10969 276646.080000
    423    425     1   0.10969 276646.080000
    426    427     1   0.10969 276646.080000
    426    428     1   0.10969 276646.080000
    429    430     1   0.10969 276646.080000
    429    431     1   0.10969 276646.080000
    432    433     1   0.10969 276646.080000
    432    434     1   0.10969 276646.080000
    439    440     1   0.10129 337397.760000
    441    442     1   0.10969 276646.080000
    441    443     1   0.10969 276646.080000
    444    445     1   0.10969 276646.080000
    444    446     1   0.10969 276646.080000
    448    449     1   0.10969 276646.080000
    448    450     1   0.10969 276646.080000
    451    452     1   0.10969 276646.080000
    451    453     1   0.10969 276646.080000
    454    455     1   0.10969 276646.080000
    454    456     1   0.10969 276646.080000
    457    458     1   0.10969 276646.080000
    457    459     1   0.10969 276646.080000
    464    465     1   0.10129 337397.760000
    466    467     1   0.10969 276646.080000
    466    468     1   0.10969 276646.080000
    469    470     1   0.10969 276646.080000
    469    471     1   0.10969 276646.080000
    473    474     1   0.10969 276646.080000
    473    475     1   0.10969 276646.080000
    476    477     1   0.10969 276646.080000
    476    478     1   0.10969 276646.080000
    479    480     1   0.10969 276646.080000
    479    481     1   0.10969 276646.080000
    482    483     1   0.10969 276646.080000
    482    484     1   0.10969 276646.080000
    489    490     1   0.10129 337397.760000
    491    492     1   0.10969 276646.080000
    491    493     1   0.10969 276646.080000
    494    495     1   0.10969 276646.080000
    494    496     1   0.10969 276646.080000
    498    499     1   0.10969 276646.080000
    498    500     1   0.10969 276646.080000
    501    502     1   0.10969 276646.080000
    501    503     1   0.10969 276646.080000
    504    505     1   0.10969 276646.080000
    504    506     1   0.10969 276646.080000
    507    508     1   0.10969 276646.080000
    507    509     1   0.10969 276646.080000
    514    515     1   0.10129 337397.760000
    516    517     1   0.10969 276646.080000
    516    518     1   0.10969 276646.080000
    519    520     1   0.10969 276646.080000
    519    521     1   0.10969 276646.080000
    523    524     1   0.10969 276646.080000
    523    525     1   0.10969 276646.080000
    526    527     1   0.10969 276646.080000
    526    528     1   0.10969 276646.080000
    529    530     1   0.10969 276646.080000
    529    531     1   0.10969 276646.080000
    532    533     1   0.10969 276646.080000
    532    534     1   0.10969 276646.080000
    539    540     1   0.10129 337397.760000
    541    542     1   0.10969 276646.080000
    541    543     1   0.10969 276646.080000
    544    545     1   0.10969 276646.080000
    544    546     1   0.10969 276646.080000
    548    549     1   0.10969 276646.080000
    548    550     1   0.10969 276646.080000
    551    552     1   0.10969 276646.080000
    551    553     1   0.10969 276646.080000
    554    555     1   0.10969 276646.080000
    554    556     1   0.10969 276646.080000
    557    558     1   0.10969 276646.080000
    557    559     1   0.10969 276646.080000
    564    565     1   0.10129 337397.760000
    566    567     1   0.10969 276646.080000
    566    568     1   0.10969 276646.080000
    569    570     1   0.10969 276646.080000
    569    571     1   0.10969 276646.080000
    573    574     1   0.10969 276646.080000
    573    575     1   0.10969 276646.080000
    576    577     1   0.10969 276646.080000
    576    578     1   0.10969 276646.080000
    579    580     1   0.10969 276646.080000
    579    581     1   0.10969 276646.080000
    582    583     1   0.10969 276646.080000
    582    584     1   0.10969 276646.080000
    589    590     1   0.10129 337397.760000
    591    592     1   0.10969 276646.080000
    591    593     1   0.10969 276646.080000
    594    595     1   0.10969 276646.080000
    594    596     1   0.10969 276646.080000
    598    599     1   0.10969 276646.080000
    598    600     1   0.10969 276646.080000
    601    602     1   0.10969 276646.080000
    601    603     1   0.10969 276646.080000
    604    605     1   0.10969 276646.080000
    604    606     1   0.10969 276646.080000
    607    608     1   0.10969 276646.080000
    607    609     1   0.10969 276646.080000
    614    615     1   0.10129 337397.760000
    616    617     1   0.10969 276646.080000
    616    618     1   0.10969 276646.080000
    619    620     1   0.10969 276646.080000
    619    621     1   0.10969 276646.080000
    623    624     1   0.10969 276646.080000
    623    625     1   0.10969 276646.080000
    626    627     1   0.10969 276646.080000
    626    628     1   0.10969 276646.080000
    629    630     1   0.10969 276646.080000
    629    631     1   0.10969 276646.080000
    632    633     1   0.10969 276646.080000
    632    634     1   0.10969 276646.080000
    639    640     1   0.10129 337397.760000
    641    642     1   0.10969 276646.080000
    641    643     1   0.10969 276646.080000
    644    645     1   0.10969 276646.080000
    644    646     1   0.10969 276646.080000
    648    649     1   0.10969 276646.080000
    648    650     1   0.10969 276646.080000
    651    652     1   0.10969 276646.080000
    651    653     1   0.10969 276646.080000
    654    655     1   0.10969 276646.080000
    654    656     1   0.10969 276646.080000
    657    658     1   0.10969 276646.080000
    657    659     1   0.10969 276646.080000
    664    665     1   0.10129 337397.760000
    666    667     1   0.10969 276646.080000
    666    668     1   0.10969 276646.080000
    669    670     1   0.10969 276646.080000
    669    671     1   0.10969 276646.080000
    673    674     1   0.10969 276646.080000
    673    675     1   0.10969 276646.080000
    676    677     1   0.10969 276646.080000
    676    678     1   0.10969 276646.080000
    679    680     1   0.10969 276646.080000
    679    681     1   0.10969 276646.080000
    682    683     1   0.10969 276646.080000
    682    684     1   0.10969 276646.080000
    689    690     1   0.10129 337397.760000
    691    692     1   0.10969 276646.080000
    691    693     1   0.10969 276646.080000
    694    695     1   0.10969 276646.080000
    694    696     1   0.10969 276646.080000
    698    699     1   0.10969 276646.080000
    698    700     1   0.10969 276646.080000
    701    702     1   0.10969 276646.080000
    701    703     1   0.10969 276646.080000
    704    705     1   0.10969 276646.080000
    704    706     1   0.10969 276646.080000
    707    708     1   0.10969 276646.080000
    707    709     1   0.10969 276646.080000
    714    715     1   0.10129 337397.760000
    716    717     1   0.10969 276646.080000
    716    718     1   0.10969 276646.080000
    719    720     1   0.10969 276646.080000
    719    721     1   0.10969 276646.080000
    723    724     1   0.10969 276646.080000
    723    725     1   0.10969 276646.080000
    726    727     1   0.10969 276646.080000
    726    728     1   0.10969 276646.080000
    729    730     1   0.10969 276646.080000
    729    731     1   0.10969 276646.080000
    732    733     1   0.10969 276646.080000
    732    734     1   0.10969 276646.080000
    739    740     1   0.10129 337397.760000
    741    742     1   0.10969 276646.080000
    741    743     1   0.10969 276646.080000
    744    745     1   0.10969 276646.080000
    744    746     1   0.10969 276646.080000
    748    749     1   0.10969 276646.080000
    748    750     1   0.10969 276646.080000
    751    752     1   0.10969 276646.080000
    751    753     1   0.10969 276646.080000
    754    755     1   0.10969 276646.080000
    754    756     1   0.10969 276646.080000
    757    758     1   0.10969 276646.080000
    757    759     1   0.10969 276646.080000
    764    765     1   0.10129 337397.760000
    766    767     1   0.10969 276646.080000
    766    768     1   0.10969 276646.080000
    769    770     1   0.10969 276646.080000
    769    771     1   0.10969 276646.080000
    773    774     1   0.10969 276646.080000
    773    775     1   0.10969 276646.080000
    776    777     1   0.10969 276646.080000
    776    778     1   0.10969 276646.080000
    779    780     1   0.10969 276646.080000
    779    781     1   0.10969 276646.080000
    782    783     1   0.10969 276646.080000
    782    784     1   0.10969 276646.080000
    789    790     1   0.10129 337397.760000
    791    792     1   0.10969 276646.080000
    791    793     1   0.10969 276646.080000
    794    795     1   0.10969 276646.080000
    794    796     1   0.10969 276646.080000
    798    799     1   0.10969 276646.080000
    798    800     1   0.10969 276646.080000
    801    802     1   0.10969 276646.080000
    801    803     1   0.10969 276646.080000
    804    805     1   0.10969 276646.080000
    804    806     1   0.10969 276646.080000
    807    808     1   0.10969 276646.080000
    807    809     1   0.10969 276646.080000
    814    815     1   0.10129 337397.760000
    816    817     1   0.10969 276646.080000
    816    818     1   0.10969 276646.080000
    819    820     1   0.10969 276646.080000
    819    821     1   0.10969 276646.080000
    823    824     1   0.10969 276646.080000
    823    825     1   0.10969 276646.080000
    826    827     1   0.10969 276646.080000
    826    828     1   0.10969 276646.080000
    829    830     1   0.10969 276646.080000
    829    831     1   0.10969 276646.080000
    832    833     1   0.10969 276646.080000
    832    834     1   0.10969 276646.080000
    839    840     1   0.10129 337397.760000
    841    842     1   0.10969 276646.080000
    841    843     1   0.10969 276646.080000
    844    845     1   0.10969 276646.080000
    844    846     1   0.10969 276646.080000
    848    849     1   0.10969 276646.080000
    848    850     1   0.10969 276646.080000
    851    852     1   0.10969 276646.080000
    851    853     1   0.10969 276646.080000
    854    855     1   0.10969 276646.080000
    854    856     1   0.10969 276646.080000
    857    858     1   0.10969 276646.080000
    857    859     1   0.10969 276646.080000
    864    865     1   0.10129 337397.760000
    866    867     1   0.10969 276646.080000
    866    868     1   0.10969 276646.080000
    869    870     1   0.10969 276646.080000
    869    871     1   0.10969 276646.080000
    873    874     1   0.10969 276646.080000
    873    875     1   0.10969 276646.080000
    876    877     1   0.10969 276646.080000
    876    878     1   0.10969 276646.080000
    879    880     1   0.10969 276646.080000
    879    881     1   0.10969 276646.080000
    882    883     1   0.10969 276646.080000
    882    884     1   0.10969 276646.080000
    889    890     1   0.10129 337397.760000
    891    892     1   0.10969 276646.080000
    891    893     1   0.10969 276646.080000
    894    895     1   0.10969 276646.080000
    894    896     1   0.10969 276646.080000
    898    899     1   0.10969 276646.080000
    898    900     1   0.10969 276646.080000
    901    902     1   0.10969 276646.080000
    901    903     1   0.10969 276646.080000
    904    905     1   0.10969 276646.080000
    904    906     1   0.10969 276646.080000
    907    908     1   0.10969 276646.080000
    907    909     1   0.10969 276646.080000
    914    915     1   0.10129 337397.760000
    916    917     1   0.10969 276646.080000
    916    918     1   0.10969 276646.080000
    919    920     1   0.10969 276646.080000
    919    921     1   0.10969 276646.080000
    923    924     1   0.10969 276646.080000
    923    925     1   0.10969 276646.080000
    926    927     1   0.10969 276646.080000
    926    928     1   0.10969 276646.080000
    929    930     1   0.10969 276646.080000
    929    931     1   0.10969 276646.080000
    932    933     1   0.10969 276646.080000
    932    934     1   0.10969 276646.080000
    939    940     1   0.10129 337397.760000
    941    942     1   0.10969 276646.080000
    941    943     1   0.10969 276646.080000
    944    945     1   0.10969 276646.080000
    944    946     1   0.10969 276646.080000
    948    949     1   0.10969 276646.080000
    948    950     1   0.10969 276646.080000
    951    952     1   0.10969 276646.080000
    951    953     1   0.10969 276646.080000
    954    955     1   0.10969 276646.080000
    954    956     1   0.10969 276646.080000
    957    958     1   0.10969 276646.080000
    957    959     1   0.10969 276646.080000
    964    965     1   0.10129 337397.760000
    966    967     1   0.10969 276646.080000
    966    968     1   0.10969 276646.080000
    969    970     1   0.10969 276646.080000
    969    971     1   0.10969 276646.080000
    973    974     1   0.10969 276646.080000
    973    975     1   0.10969 276646.080000
    976    977     1   0.10969 276646.080000
    976    978     1   0.10969 276646.080000
    979    980     1   0.10969 276646.080000
    979    981     1   0.10969 276646.080000
    982    983     1   0.10969 276646.080000
    982    984     1   0.10969 276646.080000
    989    990     1   0.10129 337397.760000
    991    992     1   0.10969 276646.080000
    991    993     1   0.10969 276646.080000
    994    995     1   0.10969 276646.080000
    994    996     1   0.10969 276646.080000
    998    999     1   0.10969 276646.080000
    998   1000     1   0.10969 276646.080000
   1001   1002     1   0.10969 276646.080000
   1001   1003     1   0.10969 276646.080000
   1004   1005     1   0.10969 276646.080000
   1004   1006     1   0.10969 276646.080000
   1007   1008     1   0.10969 276646.080000
   1007   1009     1   0.10969 276646.080000
   1014   1015     1   0.10129 337397.760000
   1016   1017     1   0.10969 276646.080000
   1016   1018     1   0.10969 276646.080000
   1019   1020     1   0.10969 276646.080000
   1019   1021     1   0.10969 276646.080000
   1023   1024     1   0.10969 276646.080000
   1023   1025     1   0.10969 276646.080000
   1026   1027     1   0.10969 276646.080000
   1026   1028     1   0.10969 276646.080000
   1029   1030     1   0.10969 276646.080000
   1029   1031     1   0.10969 276646.080000
   1032   1033     1   0.10969 276646.080000
   1032   1034     1   0.10969 276646.080000
   1039   1040     1   0.10129 337397.760000
   1041   1042     1   0.10969 276646.080000
   1041   1043     1   0.10969 276646.080000
   1044   1045     1   0.10969 276646.080000
   1044   1046     1   0.10969 276646.080000
   1048   1049     1   0.10969 276646.080000
   1048   1050     1   0.10969 276646.080000
   1051   1052     1   0.10969 276646.080000
   1051   1053     1   0.10969 276646.080000
   1054   1055     1   0.10969 276646.080000
   1054   1056     1   0.10969 276646.080000
   1057   1058     1   0.10969 276646.080000
   1057   1059     1   0.10969 276646.080000
   1064   1065     1   0.10129 337397.760000
   1066   1067     1   0.10969 276646.080000
   1066   1068     1   0.10969 276646.080000
   1069   1070     1   0.10969 276646.080000
   1069   1071     1   0.10969 276646.080000
   1073   1074     1   0.10969 276646.080000
   1073   1075     1   0.10969 276646.080000
   1076   1077     1   0.10969 276646.080000
   1076   1078     1   0.10969 276646.080000
   1079   1080     1   0.10969 276646.080000
   1079   1081     1   0.10969 276646.080000
   1082   1083     1   0.10969 276646.080000
   1082   1084     1   0.10969 276646.080000
   1089   1090     1   0.10129 337397.760000
   1091   1092     1   0.10969 276646.080000
   1091   1093     1   0.10969 276646.080000
   1094   1095     1   0.10969 276646.080000
   1094   1096     1   0.10969 276646.080000
   1098   1099     1   0.10969 276646.080000
   1098   1100     1   0.10969 276646.080000
   1101   1102     1   0.10969 276646.080000
   1101   1103     1   0.10969 276646.080000
   1104   1105     1   0.10969 276646.080000
   1104   1106     1   0.10969 276646.080000
   1107   1108     1   0.10969 276646.080000
   1107   1109     1   0.10969 276646.080000
   1114   1115     1   0.10129 337397.760000
   1116   1117     1   0.10969 276646.080000
   1116   1118     1   0.10969 276646.080000
   1119   1120     1   0.10969 276646.080000
   1119   1121     1   0.10969 276646.080000
   1123   1124     1   0.10969 276646.080000
   1123   1125     1   0.10969 276646.080000
   1126   1127     1   0.10969 276646.080000
   1126   1128     1   0.10969 276646.080000
   1129   1130     1   0.10969 276646.080000
   1129   1131     1   0.10969 276646.080000
   1132   1133     1   0.10969 276646.080000
   1132   1134     1   0.10969 276646.080000
   1139   1140     1   0.10129 337397.760000
   1141   1142     1   0.10969 276646.080000
   1141   1143     1   0.10969 276646.080000
   1144   1145     1   0.10969 276646.080000
   1144   1146     1   0.10969 276646.080000
   1148   1149     1   0.10969 276646.080000
   1148   1150     1   0.10969 276646.080000
   1151   1152     1   0.10969 276646.080000
   1151   1153     1   0.10969 276646.080000
   1154   1155     1   0.10969 276646.080000
   1154   1156     1   0.10969 276646.080000
   1157   1158     1   0.10969 276646.080000
   1157   1159     1   0.10969 276646.080000
   1164   1165     1   0.10129 337397.760000
   1166   1167     1   0.10969 276646.080000
   1166   1168     1   0.10969 276646.080000
   1169   1170     1   0.10969 276646.080000
   1169   1171     1   0.10969 276646.080000
   1173   1174     1   0.10969 276646.080000
   1173   1175     1   0.10969 276646.080000
   1176   1177     1   0.10969 276646.080000
   1176   1178     1   0.10969 276646.080000
   1179   1180     1   0.10969 276646.080000
   1179   1181     1   0.10969 276646.080000
   1182   1183     1   0.10969 276646.080000
   1182   1184     1   0.10969 276646.080000
   1189   1190     1   0.10129 337397.760000
   1191   1192     1   0.10969 276646.080000
   1191   1193     1   0.10969 276646.080000
   1194   1195     1   0.10969 276646.080000
   1194   1196     1   0.10969 276646.080000
   1198   1199     1   0.10969 276646.080000
   1198   1200     1   0.10969 276646.080000
   1201   1202     1   0.10969 276646.080000
   1201   1203     1   0.10969 276646.080000
   1204   1205     1   0.10969 276646.080000
   1204   1206     1   0.10969 276646.080000
   1207   1208     1   0.10969 276646.080000
   1207   1209     1   0.10969 276646.080000
   1214   1215     1   0.10129 337397.760000
   1216   1217     1   0.10969 276646.080000
   1216   1218     1   0.10969 276646.080000
   1219   1220     1   0.10969 276646.080000
   1219   1221     1   0.10969 276646.080000
   1223   1224     1   0.10969 276646.080000
   1223   1225     1   0.10969 276646.080000
   1226   1227     1   0.10969 276646.080000
   1226   1228     1   0.10969 276646.080000
   1229   1230     1   0.10969 276646.080000
   1229   1231     1   0.10969 276646.080000
   1232   1233     1   0.10969 276646.080000
   1232   1234     1   0.10969 276646.080000
   1239   1240     1   0.10129 337397.760000
   1241   1242     1   0.10969 276646.080000
   1241   1243     1   0.10969 276646.080000
   1244   1245     1   0.10969 276646.080000
   1244   1246     1   0.10969 276646.080000
   1248   1249     1   0.10969 276646.080000
   1248   1250     1   0.10969 276646.080000
   1251   1252     1   0.10969 276646.080000
   1251   1253     1   0.10969 276646.080000
   1254   1255     1   0.10969 276646.080000
   1254   1256     1   0.10969 276646.080000
   1257   1258     1   0.10969 276646.080000
   1257   1259     1   0.10969 276646.080000
   1264   1265     1   0.10129 337397.760000
   1266   1267     1   0.10969 276646.080000
   1266   1268     1   0.10969 276646.080000
   1269   1270     1   0.10969 276646.080000
   1269   1271     1   0.10969 276646.080000
   1273   1274     1   0.10969 276646.080000
   1273   1275     1   0.10969 276646.080000
   1276   1277     1   0.10969 276646.080000
   1276   1278     1   0.10969 276646.080000
   1279   1280     1   0.10969 276646.080000
   1279   1281     1   0.10969 276646.080000
   1282   1283     1   0.10969 276646.080000
   1282   1284     1   0.10969 276646.080000
   1289   1290     1   0.10129 337397.760000
   1291   1292     1   0.10969 276646.080000
   1291   1293     1   0.10969 276646.080000
   1294   1295     1   0.10969 276646.080000
   1294   1296     1   0.10969 276646.080000
   1298   1299     1   0.10969 276646.080000
   1298   1300     1   0.10969 276646.080000
   1301   1302     1   0.10969 276646.080000
   1301   1303     1   0.10969 276646.080000
   1304   1305     1   0.10969 276646.080000
   1304   1306     1   0.10969 276646.080000
   1307   1308     1   0.10969 276646.080000
   1307   1309     1   0.10969 276646.080000
   1314   1315     1   0.10129 337397.760000
   1316   1317     1   0.10969 276646.080000
   1316   1318     1   0.10969 276646.080000
   1319   1320     1   0.10969 276646.080000
   1319   1321     1   0.10969 276646.080000
   1323   1324     1   0.10969 276646.080000
   1323   1325     1   0.10969 276646.080000
   1326   1327     1   0.10969 276646.080000
   1326   1328     1   0.10969 276646.080000
   1329   1330     1   0.10969 276646.080000
   1329   1331     1   0.10969 276646.080000
   1332   1333     1   0.10969 276646.080000
   1332   1334     1   0.10969 276646.080000
   1339   1340     1   0.10129 337397.760000
   1341   1342     1   0.10969 276646.080000
   1341   1343     1   0.10969 276646.080000
   1344   1345     1   0.10969 276646.080000
   1344   1346     1   0.10969 276646.080000
   1348   1349     1   0.10969 276646.080000
   1348   1350     1   0.10969 276646.080000
   1351   1352     1   0.10969 276646.080000
   1351   1353     1   0.10969 276646.080000
   1354   1355     1   0.10969 276646.080000
   1354   1356     1   0.10969 276646.080000
   1357   1358     1   0.10969 276646.080000
   1357   1359     1   0.10969 276646.080000
   1364   1365     1   0.10129 337397.760000
   1366   1367     1   0.10969 276646.080000
   1366   1368     1   0.10969 276646.080000
   1369   1370     1   0.10969 276646.080000
   1369   1371     1   0.10969 276646.080000
   1373   1374     1   0.10969 276646.080000
   1373   1375     1   0.10969 276646.080000
   1376   1377     1   0.10969 276646.080000
   1376   1378     1   0.10969 276646.080000
   1379   1380     1   0.10969 276646.080000
   1379   1381     1   0.10969 276646.080000
   1382   1383     1   0.10969 276646.080000
   1382   1384     1   0.10969 276646.080000
   1389   1390     1   0.10129 337397.760000
   1391   1392     1   0.10969 276646.080000
   1391   1393     1   0.10969 276646.080000
   1394   1395     1   0.10969 276646.080000
   1394   1396     1   0.10969 276646.080000
   1398   1399     1   0.10969 276646.080000
   1398   1400     1   0.10969 276646.080000
   1401   1402     1   0.10969 276646.080000
   1401   1403     1   0.10969 276646.080000
   1404   1405     1   0.10969 276646.080000
   1404   1406     1   0.10969 276646.080000
   1407   1408     1   0.10969 276646.080000
   1407   1409     1   0.10969 276646.080000
   1414   1415     1   0.10129 337397.760000
   1416   1417     1   0.10969 276646.080000
   1416   1418     1   0.10969 276646.080000
   1419   1420     1   0.10969 276646.080000
   1419   1421     1   0.10969 276646.080000
   1423   1424     1   0.10969 276646.080000
   1423   1425     1   0.10969 276646.080000
   1426   1427     1   0.10969 276646.080000
   1426   1428     1   0.10969 276646.080000
   1429   1430     1   0.10969 276646.080000
   1429   1431     1   0.10969 276646.080000
   1432   1433     1   0.10969 276646.080000
   1432   1434     1   0.10969 276646.080000
   1439   1440     1   0.10129 337397.760000
   1441   1442     1   0.10969 276646.080000
   1441   1443     1   0.10969 276646.080000
   1444   1445     1   0.10969 276646.080000
   1444   1446     1   0.10969 276646.080000
   1448   1449     1   0.10969 276646.080000
   1448   1450     1   0.10969 276646.080000
   1451   1452     1   0.10969 276646.080000
   1451   1453     1   0.10969 276646.080000
   1454   1455     1   0.10969 276646.080000
   1454   1456     1   0.10969 276646.080000
   1457   1458     1   0.10969 276646.080000
   1457   1459     1   0.10969 276646.080000
   1464   1465     1   0.10129 337397.760000
   1466   1467     1   0.10969 276646.080000
   1466   1468     1   0.10969 276646.080000
   1469   1470     1   0.10969 276646.080000
   1469   1471     1   0.10969 276646.080000
   1473   1474     1   0.10969 276646.080000
   1473   1475     1   0.10969 276646.080000
   1476   1477     1   0.10969 276646.080000
   1476   1478     1   0.10969 276646.080000
   1479   1480     1   0.10969 276646.080000
   1479   1481     1   0.10969 276646.080000
   1482   1483     1   0.10969 276646.080000
   1482   1484     1   0.10969 276646.080000
   1489   1490     1   0.10129 337397.760000
   1491   1492     1   0.10969 276646.080000
   1491   1493     1   0.10969 276646.080000
   1494   1495     1   0.10969 276646.080000
   1494   1496     1   0.10969 276646.080000
   1498   1499     1   0.10969 276646.080000
   1498   1500     1   0.10969 276646.080000
   1501   1502     1   0.10969 276646.080000
   1501   1503     1   0.10969 276646.080000
   1504   1505     1   0.10969 276646.080000
   1504   1506     1   0.10969 276646.080000
   1507   1508     1   0.10969 276646.080000
   1507   1509     1   0.10969 276646.080000
   1514   1515     1   0.10129 337397.760000
   1516   1517     1   0.10969 276646.080000
   1516   1518     1   0.10969 276646.080000
   1519   1520     1   0.10969 276646.080000
   1519   1521     1   0.10969 276646.080000
   1523   1524     1   0.10969 276646.080000
   1523   1525     1   0.10969 276646.080000
   1526   1527     1   0.10969 276646.080000
   1526   1528     1   0.10969 276646.080000
   1529   1530     1   0.10969 276646.080000
   1529   1531     1   0.10969 276646.080000
   1532   1533     1   0.10969 276646.080000
   1532   1534     1   0.10969 276646.080000
   1539   1540     1   0.10129 337397.760000
   1541   1542     1   0.10129 337397.760000
   1543   1544     1   0.10969 276646.080000
   1543   1546     1   0.10969 276646.080000
   1545   1547     1   0.10969 276646.080000
   1545   1548     1   0.10969 276646.080000
   1550   1559     1   0.10969 276646.080000
   1550   1560     1   0.10969 276646.080000
   1551   1552     1   0.10969 276646.080000
   1551   1554     1   0.10969 276646.080000
   1553   1555     1   0.10969 276646.080000
   1553   1556     1   0.10969 276646.080000
   1561   1562     1   0.10969 276646.080000
   1561   1563     1   0.10969 276646.080000
   1566   1568     1   0.10969 276646.080000
   1567   1586     1   0.10969 276646.080000
   1569   1573     1   0.10969 276646.080000
   1570   1572     1   0.10969 276646.080000
   1571   1574     1   0.10961 277566.560000
   1575   1585     1   0.09730 310787.520000
   1576   1578     1   0.09730 310787.520000
   1577   1580     1   0.10969 276646.080000
   1577   1581     1   0.10969 276646.080000
   1579   1589     1   0.10190 328360.320000
   1582   1583     1   0.09730 310787.520000
   1587   1588     1   0.09730 310787.520000
   1590   1592     1   0.10969 276646.080000
   1591   1610     1   0.10969 276646.080000
   1593   1597     1   0.10969 276646.080000
   1594   1596     1   0.10969 276646.080000
   1595   1598     1   0.10961 277566.560000
   1599   1609     1   0.09730 310787.520000
   1600   1602     1   0.09730 310787.520000
   1601   1604     1   0.10969 276646.080000
   1601   1605     1   0.10969 276646.080000
   1603   1613     1   0.10190 328360.320000
   1606   1607     1   0.09730 310787.520000
   1611   1612     1   0.09730 310787.520000
   1614   1615     1   0.10129 337397.760000
   1616   1617     1   0.10969 276646.080000
   1616   1619     1   0.10969 276646.080000
   1618   1620     1   0.10969 276646.080000
   1618   1621     1   0.10969 276646.080000
   1623   1632     1   0.10969 276646.080000
   1623   1633     1   0.10969 276646.080000
   1624   1625     1   0.10969 276646.080000
   1624   1627     1   0.10969 276646.080000
   1626   1628     1   0.10969 276646.080000
   1626   1629     1   0.10969 276646.080000
   1634   1635     1   0.10969 276646.080000
   1634   1636     1   0.10969 276646.080000
   1639   1641     1   0.10969 276646.080000
   1640   1659     1   0.10969 276646.080000
   1642   1646     1   0.10969 276646.080000
   1643   1645     1   0.10969 276646.080000
   1644   1647     1   0.10961 277566.560000
   1648   1658     1   0.09730 310787.520000
   1649   1651     1   0.09730 310787.520000
   1650   1653     1   0.10969 276646.080000
   1650   1654     1   0.10969 276646.080000
   1652   1662     1   0.10190 328360.320000
   1655   1656     1   0.09730 310787.520000
   1660   1661     1   0.09730 310787.520000
   1663   1665     1   0.10969 276646.080000
   1664   1683     1   0.10969 276646.080000
   1666   1670     1   0.10969 276646.080000
   1667   1669     1   0.10969 276646.080000
   1668   1671     1   0.10961 277566.560000
   1672   1682     1   0.09730 310787.520000
   1673   1675     1   0.09730 310787.520000
   1674   1677     1   0.10969 276646.080000
   1674   1678     1   0.10969 276646.080000
   1676   1686     1   0.10190 328360.320000
   1679   1680     1   0.09730 310787.520000
   1684   1685     1   0.09730 310787.520000
   1687   1688     1   0.10129 337397.760000
   1689   1690     1   0.10969 276646.080000
   1689   1692     1   0.10969 276646.080000
   1691   1693     1   0.10969 276646.080000
   1691   1694     1   0.10969 276646.080000
   1696   1705     1   0.10969 276646.080000
   1696   1706     1   0.10969 276646.080000
   1697   1698     1   0.10969 276646.080000
   1697   1700     1   0.10969 276646.080000
   1699   1701     1   0.10969 276646.080000
   1699   1702     1   0.10969 276646.080000
   1707   1708     1   0.10969 276646.080000
   1707   1709     1   0.10969 276646.080000
   1712   1714     1   0.10969 276646.080000
   1713   1732     1   0.10969 276646.080000
   1715   1719     1   0.10969 276646.080000
   1716   1718     1   0.10969 276646.080000
   1717   1720     1   0.10961 277566.560000
   1721   1731     1   0.09730 310787.520000
   1722   1724     1   0.09730 310787.520000
   1723   1726     1   0.10969 276646.080000
   1723   1727     1   0.10969 276646.080000
   1725   1735     1   0.10190 328360.320000
   1728   1729     1   0.09730 310787.520000
   1733   1734     1   0.09730 310787.520000
   1736   1738     1   0.10969 276646.080000
   1737   1756     1   0.10969 276646.080000
   1739   1743     1   0.10969 276646.080000
   1740   1742     1   0.10969 276646.080000
   1741   1744     1   0.10961 277566.560000
   1745   1755     1   0.09730 310787.520000
   1746   1748     1   0.09730 310787.520000
   1747   1750     1   0.10969 276646.080000
   1747   1751     1   0.10969 276646.080000
   1749   1759     1   0.10190 328360.320000
   1752   1753     1   0.09730 310787.520000
   1757   1758     1   0.09730 310787.520000
   1760   1761     1   0.10129 337397.760000
   1762   1763     1   0.10969 276646.080000
   1762   1765     1   0.10969 276646.080000
   1764   1766     1   0.10969 276646.080000
   1764   1767     1   0.10969 276646.080000
   1769   1778     1   0.10969 276646.080000
   1769   1779     1   0.10969 276646.080000
   1770   1771     1   0.10969 276646.080000
   1770   1773     1   0.10969 276646.080000
   1772   1774     1   0.10969 276646.080000
   1772   1775     1   0.10969 276646.080000
   1780   1781     1   0.10969 276646.080000
   1780   1782     1   0.10969 276646.080000
   1785   1787     1   0.10969 276646.080000
   1786   1805     1   0.10969 276646.080000
   1788   1792     1   0.10969 276646.080000
   1789   1791     1   0.10969 276646.080000
   1790   1793     1   0.10961 277566.560000
   1794   1804     1   0.09730 310787.520000
   1795   1797     1   0.09730 310787.520000
   1796   1799     1   0.10969 276646.080000
   1796   1800     1   0.10969 276646.080000
   1798   1808     1   0.10190 328360.320000
   1801   1802     1   0.09730 310787.520000
   1806   1807     1   0.09730 310787.520000
   1809   1811     1   0.10969 276646.080000
   1810   1829     1   0.10969 276646.080000
   1812   1816     1   0.10969 276646.080000
   1813   1815     1   0.10969 276646.080000
   1814   1817     1   0.10961 277566.560000
   1818   1828     1   0.09730 310787.520000
   1819   1821     1   0.09730 310787.520000
   1820   1823     1   0.10969 276646.080000
   1820   1824     1   0.10969 276646.080000
   1822   1832     1   0.10190 328360.320000
   1825   1826     1   0.09730 310787.520000
   1830   1831     1   0.09730 310787.520000
   1833   1834     1   0.10129 337397.760000
   1835   1836     1   0.10969 276646.080000
   1835   1838     1   0.10969 276646.080000
   1837   1839     1   0.10969 276646.080000
   1837   1840     1   0.10969 276646.080000
   1842   1851     1   0.10969 276646.080000
   1842   1852     1   0.10969 276646.080000
   1843   1844     1   0.10969 276646.080000
   1843   1846     1   0.10969 276646.080000
   1845   1847     1   0.10969 276646.080000
   1845   1848     1   0.10969 276646.080000
   1853   1854     1   0.10969 276646.080000
   1853   1855     1   0.10969 276646.080000
   1858   1860     1   0.10969 276646.080000
   1859   1878     1   0.10969 276646.080000
   1861   1865     1   0.10969 276646.080000
   1862   1864     1   0.10969 276646.080000
   1863   1866     1   0.10961 277566.560000
   1867   1877     1   0.09730 310787.520000
   1868   1870     1   0.09730 310787.520000
   1869   1872     1   0.10969 276646.080000
   1869   1873     1   0.10969 276646.080000
   1871   1881     1   0.10190 328360.320000
   1874   1875     1   0.09730 310787.520000
   1879   1880     1   0.09730 310787.520000
   1882   1884     1   0.10969 276646.080000
   1883   1902     1   0.10969 276646.080000
   1885   1889     1   0.10969 276646.080000
   1886   1888     1   0.10969 276646.080000
   1887   1890     1   0.10961 277566.560000
   1891   1901     1   0.09730 310787.520000
   1892   1894     1   0.09730 310787.520000
   1893   1896     1   0.10969 276646.080000
   1893   1897     1   0.10969 276646.080000
   1895   1905     1   0.10190 328360.320000
   1898   1899     1   0.09730 310787.520000
   1903   1904     1   0.09730 310787.520000
   1906   1907     1   0.10129 337397.760000
   1908   1909     1   0.10969 276646.080000
   1908   1911     1   0.10969 276646.080000
   1910   1912     1   0.10969 276646.080000
   1910   1913     1   0.10969 276646.080000
   1915   1924     1   0.10969 276646.080000
   1915   1925     1   0.10969 276646.080000
   1916   1917     1   0.10969 276646.080000
   1916   1919     1   0.10969 276646.080000
   1918   1920     1   0.10969 276646.080000
   1918   1921     1   0.10969 276646.080000
   1926   1927     1   0.10969 276646.080000
   1926   1928     1   0.10969 276646.080000
   1931   1933     1   0.10969 276646.080000
   1932   1951     1   0.10969 276646.080000
   1934   1938     1   0.10969 276646.080000
   1935   1937     1   0.10969 276646.080000
   1936   1939     1   0.10961 277566.560000
   1940   1950     1   0.09730 310787.520000
   1941   1943     1   0.09730 310787.520000
   1942   1945     1   0.10969 276646.080000
   1942   1946     1   0.10969 276646.080000
   1944   1954     1   0.10190 328360.320000
   1947   1948     1   0.09730 310787.520000
   1952   1953     1   0.09730 310787.520000
   1955   1957     1   0.10969 276646.080000
   1956   1975     1   0.10969 276646.080000
   1958   1962     1   0.10969 276646.080000
   1959   1961     1   0.10969 276646.080000
   1960   1963     1   0.10961 277566.560000
   1964   1974     1   0.09730 310787.520000
   1965   1967     1   0.09730 310787.520000
   1966   1969     1   0.10969 276646.080000
   1966   1970     1   0.10969 276646.080000
   1968   1978     1   0.10190 328360.320000
   1971   1972     1   0.09730 310787.520000
   1976   1977     1   0.09730 310787.520000
   1979   1980     1   0.10129 337397.760000
   1981   1982     1   0.10969 276646.080000
   1981   1984     1   0.10969 276646.080000
   1983   1985     1   0.10969 276646.080000
   1983   1986     1   0.10969 276646.080000
   1988   1997     1   0.10969 276646.080000
   1988   1998     1   0.10969 276646.080000
   1989   1990     1   0.10969 276646.080000
   1989   1992     1   0.10969 276646.080000
   1991   1993     1   0.10969 276646.080000
   1991   1994     1   0.10969 276646.080000
   1999   2000     1   0.10969 276646.080000
   1999   2001     1   0.10969 276646.080000
   2004   2006     1   0.10969 276646.080000
   2005   2024     1   0.10969 276646.080000
   2007   2011     1   0.10969 276646.080000
   2008   2010     1   0.10969 276646.080000
   2009   2012     1   0.10961 277566.560000
   2013   2023     1   0.09730 310787.520000
   2014   2016     1   0.09730 310787.520000
   2015   2018     1   0.10969 276646.080000
   2015   2019     1   0.10969 276646.080000
   2017   2027     1   0.10190 328360.320000
   2020   2021     1   0.09730 310787.520000
   2025   2026     1   0.09730 310787.520000
   2028   2030     1   0.10969 276646.080000
   2029   2048     1   0.10969 276646.080000
   2031   2035     1   0.10969 276646.080000
   2032   2034     1   0.10969 276646.080000
   2033   2036     1   0.10961 277566.560000
   2037   2047     1   0.09730 310787.520000
   2038   2040     1   0.09730 310787.520000
   2039   2042     1   0.10969 276646.080000
   2039   2043     1   0.10969 276646.080000
   2041   2051     1   0.10190 328360.320000
   2044   2045     1   0.09730 310787.520000
   2049   2050     1   0.09730 310787.520000
   2052   2053     1   0.10129 337397.760000
   2054   2055     1   0.10969 276646.080000
   2054   2057     1   0.10969 276646.080000
   2056   2058     1   0.10969 276646.080000
   2056   2059     1   0.10969 276646.080000
   2061   2070     1   0.10969 276646.080000
   2061   2071     1   0.10969 276646.080000
   2062   2063     1   0.10969 276646.080000
   2062   2065     1   0.10969 276646.080000
   2064   2066     1   0.10969 276646.080000
   2064   2067     1   0.10969 276646.080000
   2072   2073     1   0.10969 276646.080000
   2072   2074     1   0.10969 276646.080000
   2077   2079     1   0.10969 276646.080000
   2078   2097     1   0.10969 276646.080000
   2080   2084     1   0.10969 276646.080000
   2081   2083     1   0.10969 276646.080000
   2082   2085     1   0.10961 277566.560000
   2086   2096     1   0.09730 310787.520000
   2087   2089     1   0.09730 310787.520000
   2088   2091     1   0.10969 276646.080000
   2088   2092     1   0.10969 276646.080000
   2090   2100     1   0.10190 328360.320000
   2093   2094     1   0.09730 310787.520000
   2098   2099     1   0.09730 310787.520000
   2101   2103     1   0.10969 276646.080000
   2102   2121     1   0.10969 276646.080000
   2104   2108     1   0.10969 276646.080000
   2105   2107     1   0.10969 276646.080000
   2106   2109     1   0.10961 277566.560000
   2110   2120     1   0.09730 310787.520000
   2111   2113     1   0.09730 310787.520000
   2112   2115     1   0.10969 276646.080000
   2112   2116     1   0.10969 276646.080000
   2114   2124     1   0.10190 328360.320000
   2117   2118     1   0.09730 310787.520000
   2122   2123     1   0.09730 310787.520000
   2125   2126     1   0.10129 337397.760000
   2127   2128     1   0.10969 276646.080000
   2127   2130     1   0.10969 276646.080000
   2129   2131     1   0.10969 276646.080000
   2129   2132     1   0.10969 276646.080000
   2134   2143     1   0.10969 276646.080000
   2134   2144     1   0.10969 276646.080000
   2135   2136     1   0.10969 276646.080000
   2135   2138     1   0.10969 276646.080000
   2137   2139     1   0.10969 276646.080000
   2137   2140     1   0.10969 276646.080000
   2145   2146     1   0.10969 276646.080000
   2145   2147     1   0.10969 276646.080000
   2150   2152     1   0.10969 276646.080000
   2151   2170     1   0.10969 276646.080000
   2153   2157     1   0.10969 276646.080000
   2154   2156     1   0.10969 276646.080000
   2155   2158     1   0.10961 277566.560000
   2159   2169     1   0.09730 310787.520000
   2160   2162     1   0.09730 310787.520000
   2161   2164     1   0.10969 276646.080000
   2161   2165     1   0.10969 276646.080000
   2163   2173     1   0.10190 328360.320000
   2166   2167     1   0.09730 310787.520000
   2171   2172     1   0.09730 310787.520000
   2174   2176     1   0.10969 276646.080000
   2175   2194     1   0.10969 276646.080000
   2177   2181     1   0.10969 276646.080000
   2178   2180     1   0.10969 276646.080000
   2179   2182     1   0.10961 277566.560000
   2183   2193     1   0.09730 310787.520000
   2184   2186     1   0.09730 310787.520000
   2185   2188     1   0.10969 276646.080000
   2185   2189     1   0.10969 276646.080000
   2187   2197     1   0.10190 328360.320000
   2190   2191     1   0.09730 310787.520000
   2195   2196     1   0.09730 310787.520000
   2198   2199     1   0.10129 337397.760000
   2200   2201     1   0.10969 276646.080000
   2200   2203     1   0.10969 276646.080000
   2202   2204     1   0.10969 276646.080000
   2202   2205     1   0.10969 276646.080000
   2207   2216     1   0.10969 276646.080000
   2207   2217     1   0.10969 276646.080000
   2208   2209     1   0.10969 276646.080000
   2208   2211     1   0.10969 276646.080000
   2210   2212     1   0.10969 276646.080000
   2210   2213     1   0.10969 276646.080000
   2218   2219     1   0.10969 276646.080000
   2218   2220     1   0.10969 276646.080000
   2223   2225     1   0.10969 276646.080000
   2224   2243     1   0.10969 276646.080000
   2226   2230     1   0.10969 276646.080000
   2227   2229     1   0.10969 276646.080000
   2228   2231     1   0.10961 277566.560000
   2232   2242     1   0.09730 310787.520000
   2233   2235     1   0.09730 310787.520000
   2234   2237     1   0.10969 276646.080000
   2234   2238     1   0.10969 276646.080000
   2236   2246     1   0.10190 328360.320000
   2239   2240     1   0.09730 310787.520000
   2244   2245     1   0.09730 310787.520000
   2247   2249     1   0.10969 276646.080000
   2248   2267     1   0.10969 276646.080000
   2250   2254     1   0.10969 276646.080000
   2251   2253     1   0.10969 276646.080000
   2252   2255     1   0.10961 277566.560000
   2256   2266     1   0.09730 310787.520000
   2257   2259     1   0.09730 310787.520000
   2258   2261     1   0.10969 276646.080000
   2258   2262     1   0.10969 276646.080000
   2260   2270     1   0.10190 328360.320000
   2263   2264     1   0.09730 310787.520000
   2268   2269     1   0.09730 310787.520000
   2271   2272     1   0.10129 337397.760000
   2273   2274     1   0.10969 276646.080000
   2273   2276     1   0.10969 276646.080000
   2275   2277     1   0.10969 276646.080000
   2275   2278     1   0.10969 276646.080000
   2280   2289     1   0.10969 276646.080000
   2280   2290     1   0.10969 276646.080000
   2281   2282     1   0.10969 276646.080000
   2281   2284     1   0.10969 276646.080000
   2283   2285     1   0.10969 276646.080000
   2283   2286     1   0.10969 276646.080000
   2291   2292     1   0.10969 276646.080000
   2291   2293     1   0.10969 276646.080000
   2296   2298     1   0.10969 276646.080000
   2297   2316     1   0.10969 276646.080000
   2299   2303     1   0.10969 276646.080000
   2300   2302     1   0.10969 276646.080000
   2301   2304     1   0.10961 277566.560000
   2305   2315     1   0.09730 310787.520000
   2306   2308     1   0.09730 310787.520000
   2307   2310     1   0.10969 276646.080000
   2307   2311     1   0.10969 276646.080000
   2309   2319     1   0.10190 328360.320000
   2312   2313     1   0.09730 310787.520000
   2317   2318     1   0.09730 310787.520000
   2320   2322     1   0.10969 276646.080000
   2321   2340     1   0.10969 276646.080000
   2323   2327     1   0.10969 276646.080000
   2324   2326     1   0.10969 276646.080000
   2325   2328     1   0.10961 277566.560000
   2329   2339     1   0.09730 310787.520000
   2330   2332     1   0.09730 310787.520000
   2331   2334     1   0.10969 276646.080000
   2331   2335     1   0.10969 276646.080000
   2333   2343     1   0.10190 328360.320000
   2336   2337     1   0.09730 310787.520000
   2341   2342     1   0.09730 310787.520000
   2344   2345     1   0.10129 337397.760000
   2346   2347     1   0.10969 276646.080000
   2346   2349     1   0.10969 276646.080000
   2348   2350     1   0.10969 276646.080000
   2348   2351     1   0.10969 276646.080000
   2353   2362     1   0.10969 276646.080000
   2353   2363     1   0.10969 276646.080000
   2354   2355     1   0.10969 276646.080000
   2354   2357     1   0.10969 276646.080000
   2356   2358     1   0.10969 276646.080000
   2356   2359     1   0.10969 276646.080000
   2364   2365     1   0.10969 276646.080000
   2364   2366     1   0.10969 276646.080000
   2369   2371     1   0.10969 276646.080000
   2370   2389     1   0.10969 276646.080000
   2372   2376     1   0.10969 276646.080000
   2373   2375     1   0.10969 276646.080000
   2374   2377     1   0.10961 277566.560000
   2378   2388     1   0.09730 310787.520000
   2379   2381     1   0.09730 310787.520000
   2380   2383     1   0.10969 276646.080000
   2380   2384     1   0.10969 276646.080000
   2382   2392     1   0.10190 328360.320000
   2385   2386     1   0.09730 310787.520000
   2390   2391     1   0.09730 310787.520000
   2393   2395     1   0.10969 276646.080000
   2394   2413     1   0.10969 276646.080000
   2396   2400     1   0.10969 276646.080000
   2397   2399     1   0.10969 276646.080000
   2398   2401     1   0.10961 277566.560000
   2402   2412     1   0.09730 310787.520000
   2403   2405     1   0.09730 310787.520000
   2404   2407     1   0.10969 276646.080000
   2404   2408     1   0.10969 276646.080000
   2406   2416     1   0.10190 328360.320000
   2409   2410     1   0.09730 310787.520000
   2414   2415     1   0.09730 310787.520000
   2417   2418     1   0.10129 337397.760000
   2419   2420     1   0.10969 276646.080000
   2419   2422     1   0.10969 276646.080000
   2421   2423     1   0.10969 276646.080000
   2421   2424     1   0.10969 276646.080000
   2426   2435     1   0.10969 276646.080000
   2426   2436     1   0.10969 276646.080000
   2427   2428     1   0.10969 276646.080000
   2427   2430     1   0.10969 276646.080000
   2429   2431     1   0.10969 276646.080000
   2429   2432     1   0.10969 276646.080000
   2437   2438     1   0.10969 276646.080000
   2437   2439     1   0.10969 276646.080000
   2442   2444     1   0.10969 276646.080000
   2443   2462     1   0.10969 276646.080000
   2445   2449     1   0.10969 276646.080000
   2446   2448     1   0.10969 276646.080000
   2447   2450     1   0.10961 277566.560000
   2451   2461     1   0.09730 310787.520000
   2452   2454     1   0.09730 310787.520000
   2453   2456     1   0.10969 276646.080000
   2453   2457     1   0.10969 276646.080000
   2455   2465     1   0.10190 328360.320000
   2458   2459     1   0.09730 310787.520000
   2463   2464     1   0.09730 310787.520000
   2466   2468     1   0.10969 276646.080000
   2467   2486     1   0.10969 276646.080000
   2469   2473     1   0.10969 276646.080000
   2470   2472     1   0.10969 276646.080000
   2471   2474     1   0.10961 277566.560000
   2475   2485     1   0.09730 310787.520000
   2476   2478     1   0.09730 310787.520000
   2477   2480     1   0.10969 276646.080000
   2477   2481     1   0.10969 276646.080000
   2479   2489     1   0.10190 328360.320000
   2482   2483     1   0.09730 310787.520000
   2487   2488     1   0.09730 310787.520000
   2490   2491     1   0.10129 337397.760000
   2492   2493     1   0.10969 276646.080000
   2492   2495     1   0.10969 276646.080000
   2494   2496     1   0.10969 276646.080000
   2494   2497     1   0.10969 276646.080000
   2499   2508     1   0.10969 276646.080000
   2499   2509     1   0.10969 276646.080000
   2500   2501     1   0.10969 276646.080000
   2500   2503     1   0.10969 276646.080000
   2502   2504     1   0.10969 276646.080000
   2502   2505     1   0.10969 276646.080000
   2510   2511     1   0.10969 276646.080000
   2510   2512     1   0.10969 276646.080000
   2515   2517     1   0.10969 276646.080000
   2516   2535     1   0.10969 276646.080000
   2518   2522     1   0.10969 276646.080000
   2519   2521     1   0.10969 276646.080000
   2520   2523     1   0.10961 277566.560000
   2524   2534     1   0.09730 310787.520000
   2525   2527     1   0.09730 310787.520000
   2526   2529     1   0.10969 276646.080000
   2526   2530     1   0.10969 276646.080000
   2528   2538     1   0.10190 328360.320000
   2531   2532     1   0.09730 310787.520000
   2536   2537     1   0.09730 310787.520000
   2539   2541     1   0.10969 276646.080000
   2540   2559     1   0.10969 276646.080000
   2542   2546     1   0.10969 276646.080000
   2543   2545     1   0.10969 276646.080000
   2544   2547     1   0.10961 277566.560000
   2548   2558     1   0.09730 310787.520000
   2549   2551     1   0.09730 310787.520000
   2550   2553     1   0.10969 276646.080000
   2550   2554     1   0.10969 276646.080000
   2552   2562     1   0.10190 328360.320000
   2555   2556     1   0.09730 310787.520000
   2560   2561     1   0.09730 310787.520000
   2563   2564     1   0.10129 337397.760000
   2565   2566     1   0.10969 276646.080000
   2565   2568     1   0.10969 276646.080000
   2567   2569     1   0.10969 276646.080000
   2567   2570     1   0.10969 276646.080000
   2572   2581     1   0.10969 276646.080000
   2572   2582     1   0.10969 276646.080000
   2573   2574     1   0.10969 276646.080000
   2573   2576     1   0.10969 276646.080000
   2575   2577     1   0.10969 276646.080000
   2575   2578     1   0.10969 276646.080000
   2583   2584     1   0.10969 276646.080000
   2583   2585     1   0.10969 276646.080000
   2588   2590     1   0.10969 276646.080000
   2589   2608     1   0.10969 276646.080000
   2591   2595     1   0.10969 276646.080000
   2592   2594     1   0.10969 276646.080000
   2593   2596     1   0.10961 277566.560000
   2597   2607     1   0.09730 310787.520000
   2598   2600     1   0.09730 310787.520000
   2599   2602     1   0.10969 276646.080000
   2599   2603     1   0.10969 276646.080000
   2601   2611     1   0.10190 328360.320000
   2604   2605     1   0.09730 310787.520000
   2609   2610     1   0.09730 310787.520000
   2612   2614     1   0.10969 276646.080000
   2613   2632     1   0.10969 276646.080000
   2615   2619     1   0.10969 276646.080000
   2616   2618     1   0.10969 276646.080000
   2617   2620     1   0.10961 277566.560000
   2621   2631     1   0.09730 310787.520000
   2622   2624     1   0.09730 310787.520000
   2623   2626     1   0.10969 276646.080000
   2623   2627     1   0.10969 276646.080000
   2625   2635     1   0.10190 328360.320000
   2628   2629     1   0.09730 310787.520000
   2633   2634     1   0.09730 310787.520000
   2636   2637     1   0.10129 337397.760000
   2638   2639     1   0.10969 276646.080000
   2638   2641     1   0.10969 276646.080000
   2640   2642     1   0.10969 276646.080000
   2640   2643     1   0.10969 276646.080000
   2645   2654     1   0.10969 276646.080000
   2645   2655     1   0.10969 276646.080000
   2646   2647     1   0.10969 276646.080000
   2646   2649     1   0.10969 276646.080000
   2648   2650     1   0.10969 276646.080000
   2648   2651     1   0.10969 276646.080000
   2656   2657     1   0.10969 276646.080000
   2656   2658     1   0.10969 276646.080000
   2661   2663     1   0.10969 276646.080000
   2662   2681     1   0.10969 276646.080000
   2664   2668     1   0.10969 276646.080000
   2665   2667     1   0.10969 276646.080000
   2666   2669     1   0.10961 277566.560000
   2670   2680     1   0.09730 310787.520000
   2671   2673     1   0.09730 310787.520000
   2672   2675     1   0.10969 276646.080000
   2672   2676     1   0.10969 276646.080000
   2674   2684     1   0.10190 328360.320000
   2677   2678     1   0.09730 310787.520000
   2682   2683     1   0.09730 310787.520000
   2685   2687     1   0.10969 276646.080000
   2686   2705     1   0.10969 276646.080000
   2688   2692     1   0.10969 276646.080000
   2689   2691     1   0.10969 276646.080000
   2690   2693     1   0.10961 277566.560000
   2694   2704     1   0.09730 310787.520000
   2695   2697     1   0.09730 310787.520000
   2696   2699     1   0.10969 276646.080000
   2696   2700     1   0.10969 276646.080000
   2698   2708     1   0.10190 328360.320000
   2701   2702     1   0.09730 310787.520000
   2706   2707     1   0.09730 310787.520000
   2709   2710     1   0.10129 337397.760000
   2711   2712     1   0.10969 276646.080000
   2711   2714     1   0.10969 276646.080000
   2713   2715     1   0.10969 276646.080000
   2713   2716     1   0.10969 276646.080000
   2718   2727     1   0.10969 276646.080000
   2718   2728     1   0.10969 276646.080000
   2719   2720     1   0.10969 276646.080000
   2719   2722     1   0.10969 276646.080000
   2721   2723     1   0.10969 276646.080000
   2721   2724     1   0.10969 276646.080000
   2729   2730     1   0.10969 276646.080000
   2729   2731     1   0.10969 276646.080000
   2734   2736     1   0.10969 276646.080000
   2735   2754     1   0.10969 276646.080000
   2737   2741     1   0.10969 276646.080000
   2738   2740     1   0.10969 276646.080000
   2739   2742     1   0.10961 277566.560000
   2743   2753     1   0.09730 310787.520000
   2744   2746     1   0.09730 310787.520000
   2745   2748     1   0.10969 276646.080000
   2745   2749     1   0.10969 276646.080000
   2747   2757     1   0.10190 328360.320000
   2750   2751     1   0.09730 310787.520000
   2755   2756     1   0.09730 310787.520000
   2758   2760     1   0.10969 276646.080000
   2759   2778     1   0.10969 276646.080000
   2761   2765     1   0.10969 276646.080000
   2762   2764     1   0.10969 276646.080000
   2763   2766     1   0.10961 277566.560000
   2767   2777     1   0.09730 310787.520000
   2768   2770     1   0.09730 310787.520000
   2769   2772     1   0.10969 276646.080000
   2769   2773     1   0.10969 276646.080000
   2771   2781     1   0.10190 328360.320000
   2774   2775     1   0.09730 310787.520000
   2779   2780     1   0.09730 310787.520000
   2782   2783     1   0.10129 337397.760000
   2784   2785     1   0.10969 276646.080000
   2784   2787     1   0.10969 276646.080000
   2786   2788     1   0.10969 276646.080000
   2786   2789     1   0.10969 276646.080000
   2791   2800     1   0.10969 276646.080000
   2791   2801     1   0.10969 276646.080000
   2792   2793     1   0.10969 276646.080000
   2792   2795     1   0.10969 276646.080000
   2794   2796     1   0.10969 276646.080000
   2794   2797     1   0.10969 276646.080000
   2802   2803     1   0.10969 276646.080000
   2802   2804     1   0.10969 276646.080000
   2807   2809     1   0.10969 276646.080000
   2808   2827     1   0.10969 276646.080000
   2810   2814     1   0.10969 276646.080000
   2811   2813     1   0.10969 276646.080000
   2812   2815     1   0.10961 277566.560000
   2816   2826     1   0.09730 310787.520000
   2817   2819     1   0.09730 310787.520000
   2818   2821     1   0.10969 276646.080000
   2818   2822     1   0.10969 276646.080000
   2820   2830     1   0.10190 328360.320000
   2823   2824     1   0.09730 310787.520000
   2828   2829     1   0.09730 310787.520000
   2831   2833     1   0.10969 276646.080000
   2832   2851     1   0.10969 276646.080000
   2834   2838     1   0.10969 276646.080000
   2835   2837     1   0.10969 276646.080000
   2836   2839     1   0.10961 277566.560000
   2840   2850     1   0.09730 310787.520000
   2841   2843     1   0.09730 310787.520000
   2842   2845     1   0.10969 276646.080000
   2842   2846     1   0.10969 276646.080000
   2844   2854     1   0.10190 328360.320000
   2847   2848     1   0.09730 310787.520000
   2852   2853     1   0.09730 310787.520000
   2855   2856     1   0.10129 337397.760000
   2857   2858     1   0.10969 276646.080000
   2857   2860     1   0.10969 276646.080000
   2859   2861     1   0.10969 276646.080000
   2859   2862     1   0.10969 276646.080000
   2864   2873     1   0.10969 276646.080000
   2864   2874     1   0.10969 276646.080000
   2865   2866     1   0.10969 276646.080000
   2865   2868     1   0.10969 276646.080000
   2867   2869     1   0.10969 276646.080000
   2867   2870     1   0.10969 276646.080000
   2875   2876     1   0.10969 276646.080000
   2875   2877     1   0.10969 276646.080000
   2880   2882     1   0.10969 276646.080000
   2881   2900     1   0.10969 276646.080000
   2883   2887     1   0.10969 276646.080000
   2884   2886     1   0.10969 276646.080000
   2885   2888     1   0.10961 277566.560000
   2889   2899     1   0.09730 310787.520000
   2890   2892     1   0.09730 310787.520000
   2891   2894     1   0.10969 276646.080000
   2891   2895     1   0.10969 276646.080000
   2893   2903     1   0.10190 328360.320000
   2896   2897     1   0.09730 310787.520000
   2901   2902     1   0.09730 310787.520000
   2904   2906     1   0.10969 276646.080000
   2905   2924     1   0.10969 276646.080000
   2907   2911     1   0.10969 276646.080000
   2908   2910     1   0.10969 276646.080000
   2909   2912     1   0.10961 277566.560000
   2913   2923     1   0.09730 310787.520000
   2914   2916     1   0.09730 310787.520000
   2915   2918     1   0.10969 276646.080000
   2915   2919     1   0.10969 276646.080000
   2917   2927     1   0.10190 328360.320000
   2920   2921     1   0.09730 310787.520000
   2925   2926     1   0.09730 310787.520000
   2928   2929     1   0.10129 337397.760000
   2930   2931     1   0.10969 276646.080000
   2930   2933     1   0.10969 276646.080000
   2932   2934     1   0.10969 276646.080000
   2932   2935     1   0.10969 276646.080000
   2937   2946     1   0.10969 276646.080000
   2937   2947     1   0.10969 276646.080000
   2938   2939     1   0.10969 276646.080000
   2938   2941     1   0.10969 276646.080000
   2940   2942     1   0.10969 276646.080000
   2940   2943     1   0.10969 276646.080000
   2948   2949     1   0.10969 276646.080000
   2948   2950     1   0.10969 276646.080000
   2953   2955     1   0.10969 276646.080000
   2954   2973     1   0.10969 276646.080000
   2956   2960     1   0.10969 276646.080000
   2957   2959     1   0.10969 276646.080000
   2958   2961     1   0.10961 277566.560000
   2962   2972     1   0.09730 310787.520000
   2963   2965     1   0.09730 310787.520000
   2964   2967     1   0.10969 276646.080000
   2964   2968     1   0.10969 276646.080000
   2966   2976     1   0.10190 328360.320000
   2969   2970     1   0.09730 310787.520000
   2974   2975     1   0.09730 310787.520000
   2977   2979     1   0.10969 276646.080000
   2978   2997     1   0.10969 276646.080000
   2980   2984     1   0.10969 276646.080000
   2981   2983     1   0.10969 276646.080000
   2982   2985     1   0.10961 277566.560000
   2986   2996     1   0.09730 310787.520000
   2987   2989     1   0.09730 310787.520000
   2988   2991     1   0.10969 276646.080000
   2988   2992     1   0.10969 276646.080000
   2990   3000     1   0.10190 328360.320000
   2993   2994     1   0.09730 310787.520000
   2998   2999     1   0.09730 310787.520000
   3001   3002     1   0.10129 337397.760000
   3003   3004     1   0.10969 276646.080000
   3003   3006     1   0.10969 276646.080000
   3005   3007     1   0.10969 276646.080000
   3005   3008     1   0.10969 276646.080000
   3010   3019     1   0.10969 276646.080000
   3010   3020     1   0.10969 276646.080000
   3011   3012     1   0.10969 276646.080000
   3011   3014     1   0.10969 276646.080000
   3013   3015     1   0.10969 276646.080000
   3013   3016     1   0.10969 276646.080000
   3021   3022     1   0.10969 276646.080000
   3021   3023     1   0.10969 276646.080000
   3026   3028     1   0.10969 276646.080000
   3027   3046     1   0.10969 276646.080000
   3029   3033     1   0.10969 276646.080000
   3030   3032     1   0.10969 276646.080000
   3031   3034     1   0.10961 277566.560000
   3035   3045     1   0.09730 310787.520000
   3036   3038     1   0.09730 310787.520000
   3037   3040     1   0.10969 276646.080000
   3037   3041     1   0.10969 276646.080000
   3039   3049     1   0.10190 328360.320000
   3042   3043     1   0.09730 310787.520000
   3047   3048     1   0.09730 310787.520000
   3050   3052     1   0.10969 276646.080000
   3051   3070     1   0.10969 276646.080000
   3053   3057     1   0.10969 276646.080000
   3054   3056     1   0.10969 276646.080000
   3055   3058     1   0.10961 277566.560000
   3059   3069     1   0.09730 310787.520000
   3060   3062     1   0.09730 310787.520000
   3061   3064     1   0.10969 276646.080000
   3061   3065     1   0.10969 276646.080000
   3063   3073     1   0.10190 328360.320000
   3066   3067     1   0.09730 310787.520000
   3071   3072     1   0.09730 310787.520000
   3074   3075     1   0.10129 337397.760000
   3076   3077     1   0.10969 276646.080000
   3076   3079     1   0.10969 276646.080000
   3078   3080     1   0.10969 276646.080000
   3078   3081     1   0.10969 276646.080000
   3083   3092     1   0.10969 276646.080000
   3083   3093     1   0.10969 276646.080000
   3084   3085     1   0.10969 276646.080000
   3084   3087     1   0.10969 276646.080000
   3086   3088     1   0.10969 276646.080000
   3086   3089     1   0.10969 276646.080000
   3094   3095     1   0.10969 276646.080000
   3094   3096     1   0.10969 276646.080000
   3099   3101     1   0.10969 276646.080000
   3100   3119     1   0.10969 276646.080000
   3102   3106     1   0.10969 276646.080000
   3103   3105     1   0.10969 276646.080000
   3104   3107     1   0.10961 277566.560000
   3108   3118     1   0.09730 310787.520000
   3109   3111     1   0.09730 310787.520000
   3110   3113     1   0.10969 276646.080000
   3110   3114     1   0.10969 276646.080000
   3112   3122     1   0.10190 328360.320000
   3115   3116     1   0.09730 310787.520000
   3120   3121     1   0.09730 310787.520000
   3123   3125     1   0.10969 276646.080000
   3124   3143     1   0.10969 276646.080000
   3126   3130     1   0.10969 276646.080000
   3127   3129     1   0.10969 276646.080000
   3128   3131     1   0.10961 277566.560000
   3132   3142     1   0.09730 310787.520000
   3133   3135     1   0.09730 310787.520000
   3134   3137     1   0.10969 276646.080000
   3134   3138     1   0.10969 276646.080000
   3136   3146     1   0.10190 328360.320000
   3139   3140     1   0.09730 310787.520000
   3144   3145     1   0.09730 310787.520000
   3147   3148     1   0.10129 337397.760000
   3149   3150     1   0.10969 276646.080000
   3149   3152     1   0.10969 276646.080000
   3151   3153     1   0.10969 276646.080000
   3151   3154     1   0.10969 276646.080000
   3156   3165     1   0.10969 276646.080000
   3156   3166     1   0.10969 276646.080000
   3157   3158     1   0.10969 276646.080000
   3157   3160     1   0.10969 276646.080000
   3159   3161     1   0.10969 276646.080000
   3159   3162     1   0.10969 276646.080000
   3167   3168     1   0.10969 276646.080000
   3167   3169     1   0.10969 276646.080000
   3172   3174     1   0.10969 276646.080000
   3173   3192     1   0.10969 276646.080000
   3175   3179     1   0.10969 276646.080000
   3176   3178     1   0.10969 276646.080000
   3177   3180     1   0.10961 277566.560000
   3181   3191     1   0.09730 310787.520000
   3182   3184     1   0.09730 310787.520000
   3183   3186     1   0.10969 276646.080000
   3183   3187     1   0.10969 276646.080000
   3185   3195     1   0.10190 328360.320000
   3188   3189     1   0.09730 310787.520000
   3193   3194     1   0.09730 310787.520000
   3196   3198     1   0.10969 276646.080000
   3197   3216     1   0.10969 276646.080000
   3199   3203     1   0.10969 276646.080000
   3200   3202     1   0.10969 276646.080000
   3201   3204     1   0.10961 277566.560000
   3205   3215     1   0.09730 310787.520000
   3206   3208     1   0.09730 310787.520000
   3207   3210     1   0.10969 276646.080000
   3207   3211     1   0.10969 276646.080000
   3209   3219     1   0.10190 328360.320000
   3212   3213     1   0.09730 310787.520000
   3217   3218     1   0.09730 310787.520000
   3220   3221     1   0.10129 337397.760000
   3222   3223     1   0.10969 276646.080000
   3222   3225     1   0.10969 276646.080000
   3224   3226     1   0.10969 276646.080000
   3224   3227     1   0.10969 276646.080000
   3229   3238     1   0.10969 276646.080000
   3229   3239     1   0.10969 276646.080000
   3230   3231     1   0.10969 276646.080000
   3230   3233     1   0.10969 276646.080000
   3232   3234     1   0.10969 276646.080000
   3232   3235     1   0.10969 276646.080000
   3240   3241     1   0.10969 276646.080000
   3240   3242     1   0.10969 276646.080000
   3245   3247     1   0.10969 276646.080000
   3246   3265     1   0.10969 276646.080000
   3248   3252     1   0.10969 276646.080000
   3249   3251     1   0.10969 276646.080000
   3250   3253     1   0.10961 277566.560000
   3254   3264     1   0.09730 310787.520000
   3255   3257     1   0.09730 310787.520000
   3256   3259     1   0.10969 276646.080000
   3256   3260     1   0.10969 276646.080000
   3258   3268     1   0.10190 328360.320000
   3261   3262     1   0.09730 310787.520000
   3266   3267     1   0.09730 310787.520000
   3269   3271     1   0.10969 276646.080000
   3270   3289     1   0.10969 276646.080000
   3272   3276     1   0.10969 276646.080000
   3273   3275     1   0.10969 276646.080000
   3274   3277     1   0.10961 277566.560000
   3278   3288     1   0.09730 310787.520000
   3279   3281     1   0.09730 310787.520000
   3280   3283     1   0.10969 276646.080000
   3280   3284     1   0.10969 276646.080000
   3282   3292     1   0.10190 328360.320000
   3285   3286     1   0.09730 310787.520000
   3290   3291     1   0.09730 310787.520000
   3293   3294     1   0.10129 337397.760000
   3295   3296     1   0.10969 276646.080000
   3295   3298     1   0.10969 276646.080000
   3297   3299     1   0.10969 276646.080000
   3297   3300     1   0.10969 276646.080000
   3302   3311     1   0.10969 276646.080000
   3302   3312     1   0.10969 276646.080000
   3303   3304     1   0.10969 276646.080000
   3303   3306     1   0.10969 276646.080000
   3305   3307     1   0.10969 276646.080000
   3305   3308     1   0.10969 276646.080000
   3313   3314     1   0.10969 276646.080000
   3313   3315     1   0.10969 276646.080000
   3318   3320     1   0.10969 276646.080000
   3319   3338     1   0.10969 276646.080000
   3321   3325     1   0.10969 276646.080000
   3322   3324     1   0.10969 276646.080000
   3323   3326     1   0.10961 277566.560000
   3327   3337     1   0.09730 310787.520000
   3328   3330     1   0.09730 310787.520000
   3329   3332     1   0.10969 276646.080000
   3329   3333     1   0.10969 276646.080000
   3331   3341     1   0.10190 328360.320000
   3334   3335     1   0.09730 310787.520000
   3339   3340     1   0.09730 310787.520000
   3342   3344     1   0.10969 276646.080000
   3343   3362     1   0.10969 276646.080000
   3345   3349     1   0.10969 276646.080000
   3346   3348     1   0.10969 276646.080000
   3347   3350     1   0.10961 277566.560000
   3351   3361     1   0.09730 310787.520000
   3352   3354     1   0.09730 310787.520000
   3353   3356     1   0.10969 276646.080000
   3353   3357     1   0.10969 276646.080000
   3355   3365     1   0.10190 328360.320000
   3358   3359     1   0.09730 310787.520000
   3363   3364     1   0.09730 310787.520000
   3366   3367     1   0.10129 337397.760000
   3368   3369     1   0.10969 276646.080000
   3368   3371     1   0.10969 276646.080000
   3370   3372     1   0.10969 276646.080000
   3370   3373     1   0.10969 276646.080000
   3375   3384     1   0.10969 276646.080000
   3375   3385     1   0.10969 276646.080000
   3376   3377     1   0.10969 276646.080000
   3376   3379     1   0.10969 276646.080000
   3378   3380     1   0.10969 276646.080000
   3378   3381     1   0.10969 276646.080000
   3386   3387     1   0.10969 276646.080000
   3386   3388     1   0.10969 276646.080000
   3391   3393     1   0.10969 276646.080000
   3392   3411     1   0.10969 276646.080000
   3394   3398     1   0.10969 276646.080000
   3395   3397     1   0.10969 276646.080000
   3396   3399     1   0.10961 277566.560000
   3400   3410     1   0.09730 310787.520000
   3401   3403     1   0.09730 310787.520000
   3402   3405     1   0.10969 276646.080000
   3402   3406     1   0.10969 276646.080000
   3404   3414     1   0.10190 328360.320000
   3407   3408     1   0.09730 310787.520000
   3412   3413     1   0.09730 310787.520000
   3415   3417     1   0.10969 276646.080000
   3416   3435     1   0.10969 276646.080000
   3418   3422     1   0.10969 276646.080000
   3419   3421     1   0.10969 276646.080000
   3420   3423     1   0.10961 277566.560000
   3424   3434     1   0.09730 310787.520000
   3425   3427     1   0.09730 310787.520000
   3426   3429     1   0.10969 276646.080000
   3426   3430     1   0.10969 276646.080000
   3428   3438     1   0.10190 328360.320000
   3431   3432     1   0.09730 310787.520000
   3436   3437     1   0.09730 310787.520000
   3439   3440     1   0.10129 337397.760000
   3441   3442     1   0.10969 276646.080000
   3441   3444     1   0.10969 276646.080000
   3443   3445     1   0.10969 276646.080000
   3443   3446     1   0.10969 276646.080000
   3448   3457     1   0.10969 276646.080000
   3448   3458     1   0.10969 276646.080000
   3449   3450     1   0.10969 276646.080000
   3449   3452     1   0.10969 276646.080000
   3451   3453     1   0.10969 276646.080000
   3451   3454     1   0.10969 276646.080000
   3459   3460     1   0.10969 276646.080000
   3459   3461     1   0.10969 276646.080000
   3464   3466     1   0.10969 276646.080000
   3465   3484     1   0.10969 276646.080000
   3467   3471     1   0.10969 276646.080000
   3468   3470     1   0.10969 276646.080000
   3469   3472     1   0.10961 277566.560000
   3473   3483     1   0.09730 310787.520000
   3474   3476     1   0.09730 310787.520000
   3475   3478     1   0.10969 276646.080000
   3475   3479     1   0.10969 276646.080000
   3477   3487     1   0.10190 328360.320000
   3480   3481     1   0.09730 310787.520000
   3485   3486     1   0.09730 310787.520000
   3488   3490     1   0.10969 276646.080000
   3489   3508     1   0.10969 276646.080000
   3491   3495     1   0.10969 276646.080000
   3492   3494     1   0.10969 276646.080000
   3493   3496     1   0.10961 277566.560000
   3497   3507     1   0.09730 310787.520000
   3498   3500     1   0.09730 310787.520000
   3499   3502     1   0.10969 276646.080000
   3499   3503     1   0.10969 276646.080000
   3501   3511     1   0.10190 328360.320000
   3504   3505     1   0.09730 310787.520000
   3509   3510     1   0.09730 310787.520000
   3512   3513     1   0.10129 337397.760000
   3514   3515     1   0.10969 276646.080000
   3514   3517     1   0.10969 276646.080000
   3516   3518     1   0.10969 276646.080000
   3516   3519     1   0.10969 276646.080000
   3521   3530     1   0.10969 276646.080000
   3521   3531     1   0.10969 276646.080000
   3522   3523     1   0.10969 276646.080000
   3522   3525     1   0.10969 276646.080000
   3524   3526     1   0.10969 276646.080000
   3524   3527     1   0.10969 276646.080000
   3532   3533     1   0.10969 276646.080000
   3532   3534     1   0.10969 276646.080000
   3537   3539     1   0.10969 276646.080000
   3538   3557     1   0.10969 276646.080000
   3540   3544     1   0.10969 276646.080000
   3541   3543     1   0.10969 276646.080000
   3542   3545     1   0.10961 277566.560000
   3546   3556     1   0.09730 310787.520000
   3547   3549     1   0.09730 310787.520000
   3548   3551     1   0.10969 276646.080000
   3548   3552     1   0.10969 276646.080000
   3550   3560     1   0.10190 328360.320000
   3553   3554     1   0.09730 310787.520000
   3558   3559     1   0.09730 310787.520000
   3561   3563     1   0.10969 276646.080000
   3562   3581     1   0.10969 276646.080000
   3564   3568     1   0.10969 276646.080000
   3565   3567     1   0.10969 276646.080000
   3566   3569     1   0.10961 277566.560000
   3570   3580     1   0.09730 310787.520000
   3571   3573     1   0.09730 310787.520000
   3572   3575     1   0.10969 276646.080000
   3572   3576     1   0.10969 276646.080000
   3574   3584     1   0.10190 328360.320000
   3577   3578     1   0.09730 310787.520000
   3582   3583     1   0.09730 310787.520000
   3585   3586     1   0.10129 337397.760000
   3587   3588     1   0.10969 276646.080000
   3587   3590     1   0.10969 276646.080000
   3589   3591     1   0.10969 276646.080000
   3589   3592     1   0.10969 276646.080000
   3594   3603     1   0.10969 276646.080000
   3594   3604     1   0.10969 276646.080000
   3595   3596     1   0.10969 276646.080000
   3595   3598     1   0.10969 276646.080000
   3597   3599     1   0.10969 276646.080000
   3597   3600     1   0.10969 276646.080000
   3605   3606     1   0.10969 276646.080000
   3605   3607     1   0.10969 276646.080000
   3610   3612     1   0.10969 276646.080000
   3611   3630     1   0.10969 276646.080000
   3613   3617     1   0.10969 276646.080000
   3614   3616     1   0.10969 276646.080000
   3615   3618     1   0.10961 277566.560000
   3619   3629     1   0.09730 310787.520000
   3620   3622     1   0.09730 310787.520000
   3621   3624     1   0.10969 276646.080000
   3621   3625     1   0.10969 276646.080000
   3623   3633     1   0.10190 328360.320000
   3626   3627     1   0.09730 310787.520000
   3631   3632     1   0.09730 310787.520000
   3634   3636     1   0.10969 276646.080000
   3635   3654     1   0.10969 276646.080000
   3637   3641     1   0.10969 276646.080000
   3638   3640     1   0.10969 276646.080000
   3639   3642     1   0.10961 277566.560000
   3643   3653     1   0.09730 310787.520000
   3644   3646     1   0.09730 310787.520000
   3645   3648     1   0.10969 276646.080000
   3645   3649     1   0.10969 276646.080000
   3647   3657     1   0.10190 328360.320000
   3650   3651     1   0.09730 310787.520000
   3655   3656     1   0.09730 310787.520000
   3658   3659     1   0.10129 337397.760000
   3660   3661     1   0.10969 276646.080000
   3660   3663     1   0.10969 276646.080000
   3662   3664     1   0.10969 276646.080000
   3662   3665     1   0.10969 276646.080000
   3667   3676     1   0.10969 276646.080000
   3667   3677     1   0.10969 276646.080000
   3668   3669     1   0.10969 276646.080000
   3668   3671     1   0.10969 276646.080000
   3670   3672     1   0.10969 276646.080000
   3670   3673     1   0.10969 276646.080000
   3678   3679     1   0.10969 276646.080000
   3678   3680     1   0.10969 276646.080000
   3683   3685     1   0.10969 276646.080000
   3684   3703     1   0.10969 276646.080000
   3686   3690     1   0.10969 276646.080000
   3687   3689     1   0.10969 276646.080000
   3688   3691     1   0.10961 277566.560000
   3692   3702     1   0.09730 310787.520000
   3693   3695     1   0.09730 310787.520000
   3694   3697     1   0.10969 276646.080000
   3694   3698     1   0.10969 276646.080000
   3696   3706     1   0.10190 328360.320000
   3699   3700     1   0.09730 310787.520000
   3704   3705     1   0.09730 310787.520000
   3707   3709     1   0.10969 276646.080000
   3708   3727     1   0.10969 276646.080000
   3710   3714     1   0.10969 276646.080000
   3711   3713     1   0.10969 276646.080000
   3712   3715     1   0.10961 277566.560000
   3716   3726     1   0.09730 310787.520000
   3717   3719     1   0.09730 310787.520000
   3718   3721     1   0.10969 276646.080000
   3718   3722     1   0.10969 276646.080000
   3720   3730     1   0.10190 328360.320000
   3723   3724     1   0.09730 310787.520000
   3728   3729     1   0.09730 310787.520000
   3731   3732     1   0.10129 337397.760000
   3733   3734     1   0.10969 276646.080000
   3733   3736     1   0.10969 276646.080000
   3735   3737     1   0.10969 276646.080000
   3735   3738     1   0.10969 276646.080000
   3740   3749     1   0.10969 276646.080000
   3740   3750     1   0.10969 276646.080000
   3741   3742     1   0.10969 276646.080000
   3741   3744     1   0.10969 276646.080000
   3743   3745     1   0.10969 276646.080000
   3743   3746     1   0.10969 276646.080000
   3751   3752     1   0.10969 276646.080000
   3751   3753     1   0.10969 276646.080000
   3756   3758     1   0.10969 276646.080000
   3757   3776     1   0.10969 276646.080000
   3759   3763     1   0.10969 276646.080000
   3760   3762     1   0.10969 276646.080000
   3761   3764     1   0.10961 277566.560000
   3765   3775     1   0.09730 310787.520000
   3766   3768     1   0.09730 310787.520000
   3767   3770     1   0.10969 276646.080000
   3767   3771     1   0.10969 276646.080000
   3769   3779     1   0.10190 328360.320000
   3772   3773     1   0.09730 310787.520000
   3777   3778     1   0.09730 310787.520000
   3780   3782     1   0.10969 276646.080000
   3781   3800     1   0.10969 276646.080000
   3783   3787     1   0.10969 276646.080000
   3784   3786     1   0.10969 276646.080000
   3785   3788     1   0.10961 277566.560000
   3789   3799     1   0.09730 310787.520000
   3790   3792     1   0.09730 310787.520000
   3791   3794     1   0.10969 276646.080000
   3791   3795     1   0.10969 276646.080000
   3793   3803     1   0.10190 328360.320000
   3796   3797     1   0.09730 310787.520000
   3801   3802     1   0.09730 310787.520000
   3804   3805     1   0.10129 337397.760000
   3806   3807     1   0.10969 276646.080000
   3806   3809     1   0.10969 276646.080000
   3808   3810     1   0.10969 276646.080000
   3808   3811     1   0.10969 276646.080000
   3813   3822     1   0.10969 276646.080000
   3813   3823     1   0.10969 276646.080000
   3814   3815     1   0.10969 276646.080000
   3814   3817     1   0.10969 276646.080000
   3816   3818     1   0.10969 276646.080000
   3816   3819     1   0.10969 276646.080000
   3824   3825     1   0.10969 276646.080000
   3824   3826     1   0.10969 276646.080000
   3829   3831     1   0.10969 276646.080000
   3830   3849     1   0.10969 276646.080000
   3832   3836     1   0.10969 276646.080000
   3833   3835     1   0.10969 276646.080000
   3834   3837     1   0.10961 277566.560000
   3838   3848     1   0.09730 310787.520000
   3839   3841     1   0.09730 310787.520000
   3840   3843     1   0.10969 276646.080000
   3840   3844     1   0.10969 276646.080000
   3842   3852     1   0.10190 328360.320000
   3845   3846     1   0.09730 310787.520000
   3850   3851     1   0.09730 310787.520000
   3853   3855     1   0.10969 276646.080000
   3854   3873     1   0.10969 276646.080000
   3856   3860     1   0.10969 276646.080000
   3857   3859     1   0.10969 276646.080000
   3858   3861     1   0.10961 277566.560000
   3862   3872     1   0.09730 310787.520000
   3863   3865     1   0.09730 310787.520000
   3864   3867     1   0.10969 276646.080000
   3864   3868     1   0.10969 276646.080000
   3866   3876     1   0.10190 328360.320000
   3869   3870     1   0.09730 310787.520000
   3874   3875     1   0.09730 310787.520000
   3877   3878     1   0.10129 337397.760000
   3879   3880     1   0.10969 276646.080000
   3879   3882     1   0.10969 276646.080000
   3881   3883     1   0.10969 276646.080000
   3881   3884     1   0.10969 276646.080000
   3886   3895     1   0.10969 276646.080000
   3886   3896     1   0.10969 276646.080000
   3887   3888     1   0.10969 276646.080000
   3887   3890     1   0.10969 276646.080000
   3889   3891     1   0.10969 276646.080000
   3889   3892     1   0.10969 276646.080000
   3897   3898     1   0.10969 276646.080000
   3897   3899     1   0.10969 276646.080000
   3902   3904     1   0.10969 276646.080000
   3903   3922     1   0.10969 276646.080000
   3905   3909     1   0.10969 276646.080000
   3906   3908     1   0.10969 276646.080000
   3907   3910     1   0.10961 277566.560000
   3911   3921     1   0.09730 310787.520000
   3912   3914     1   0.09730 310787.520000
   3913   3916     1   0.10969 276646.080000
   3913   3917     1   0.10969 276646.080000
   3915   3925     1   0.10190 328360.320000
   3918   3919     1   0.09730 310787.520000
   3923   3924     1   0.09730 310787.520000
   3926   3928     1   0.10969 276646.080000
   3927   3946     1   0.10969 276646.080000
   3929   3933     1   0.10969 276646.080000
   3930   3932     1   0.10969 276646.080000
   3931   3934     1   0.10961 277566.560000
   3935   3945     1   0.09730 310787.520000
   3936   3938     1   0.09730 310787.520000
   3937   3940     1   0.10969 276646.080000
   3937   3941     1   0.10969 276646.080000
   3939   3949     1   0.10190 328360.320000
   3942   3943     1   0.09730 310787.520000
   3947   3948     1   0.09730 310787.520000
   3950   3951     1   0.10129 337397.760000
   3952   3953     1   0.10969 276646.080000
   3952   3955     1   0.10969 276646.080000
   3954   3956     1   0.10969 276646.080000
   3954   3957     1   0.10969 276646.080000
   3959   3968     1   0.10969 276646.080000
   3959   3969     1   0.10969 276646.080000
   3960   3961     1   0.10969 276646.080000
   3960   3963     1   0.10969 276646.080000
   3962   3964     1   0.10969 276646.080000
   3962   3965     1   0.10969 276646.080000
   3970   3971     1   0.10969 276646.080000
   3970   3972     1   0.10969 276646.080000
   3975   3977     1   0.10969 276646.080000
   3976   3995     1   0.10969 276646.080000
   3978   3982     1   0.10969 276646.080000
   3979   3981     1   0.10969 276646.080000
   3980   3983     1   0.10961 277566.560000
   3984   3994     1   0.09730 310787.520000
   3985   3987     1   0.09730 310787.520000
   3986   3989     1   0.10969 276646.080000
   3986   3990     1   0.10969 276646.080000
   3988   3998     1   0.10190 328360.320000
   3991   3992     1   0.09730 310787.520000
   3996   3997     1   0.09730 310787.520000
   3999   4001     1   0.10969 276646.080000
   4000   4019     1   0.10969 276646.080000
   4002   4006     1   0.10969 276646.080000
   4003   4005     1   0.10969 276646.080000
   4004   4007     1   0.10961 277566.560000
   4008   4018     1   0.09730 310787.520000
   4009   4011     1   0.09730 310787.520000
   4010   4013     1   0.10969 276646.080000
   4010   4014     1   0.10969 276646.080000
   4012   4022     1   0.10190 328360.320000
   4015   4016     1   0.09730 310787.520000
   4020   4021     1   0.09730 310787.520000
   4023   4024     1   0.10129 337397.760000
   4025   4026     1   0.10969 276646.080000
   4025   4028     1   0.10969 276646.080000
   4027   4029     1   0.10969 276646.080000
   4027   4030     1   0.10969 276646.080000
   4032   4041     1   0.10969 276646.080000
   4032   4042     1   0.10969 276646.080000
   4033   4034     1   0.10969 276646.080000
   4033   4036     1   0.10969 276646.080000
   4035   4037     1   0.10969 276646.080000
   4035   4038     1   0.10969 276646.080000
   4043   4044     1   0.10969 276646.080000
   4043   4045     1   0.10969 276646.080000
   4048   4050     1   0.10969 276646.080000
   4049   4068     1   0.10969 276646.080000
   4051   4055     1   0.10969 276646.080000
   4052   4054     1   0.10969 276646.080000
   4053   4056     1   0.10961 277566.560000
   4057   4067     1   0.09730 310787.520000
   4058   4060     1   0.09730 310787.520000
   4059   4062     1   0.10969 276646.080000
   4059   4063     1   0.10969 276646.080000
   4061   4071     1   0.10190 328360.320000
   4064   4065     1   0.09730 310787.520000
   4069   4070     1   0.09730 310787.520000
   4072   4074     1   0.10969 276646.080000
   4073   4092     1   0.10969 276646.080000
   4075   4079     1   0.10969 276646.080000
   4076   4078     1   0.10969 276646.080000
   4077   4080     1   0.10961 277566.560000
   4081   4091     1   0.09730 310787.520000
   4082   4084     1   0.09730 310787.520000
   4083   4086     1   0.10969 276646.080000
   4083   4087     1   0.10969 276646.080000
   4085   4095     1   0.10190 328360.320000
   4088   4089     1   0.09730 310787.520000
   4093   4094     1   0.09730 310787.520000
   4096   4097     1   0.10129 337397.760000
   4098   4099     1   0.10969 276646.080000
   4098   4101     1   0.10969 276646.080000
   4100   4102     1   0.10969 276646.080000
   4100   4103     1   0.10969 276646.080000
   4105   4114     1   0.10969 276646.080000
   4105   4115     1   0.10969 276646.080000
   4106   4107     1   0.10969 276646.080000
   4106   4109     1   0.10969 276646.080000
   4108   4110     1   0.10969 276646.080000
   4108   4111     1   0.10969 276646.080000
   4116   4117     1   0.10969 276646.080000
   4116   4118     1   0.10969 276646.080000
   4121   4123     1   0.10969 276646.080000
   4122   4141     1   0.10969 276646.080000
   4124   4128     1   0.10969 276646.080000
   4125   4127     1   0.10969 276646.080000
   4126   4129     1   0.10961 277566.560000
   4130   4140     1   0.09730 310787.520000
   4131   4133     1   0.09730 310787.520000
   4132   4135     1   0.10969 276646.080000
   4132   4136     1   0.10969 276646.080000
   4134   4144     1   0.10190 328360.320000
   4137   4138     1   0.09730 310787.520000
   4142   4143     1   0.09730 310787.520000
   4145   4147     1   0.10969 276646.080000
   4146   4165     1   0.10969 276646.080000
   4148   4152     1   0.10969 276646.080000
   4149   4151     1   0.10969 276646.080000
   4150   4153     1   0.10961 277566.560000
   4154   4164     1   0.09730 310787.520000
   4155   4157     1   0.09730 310787.520000
   4156   4159     1   0.10969 276646.080000
   4156   4160     1   0.10969 276646.080000
   4158   4168     1   0.10190 328360.320000
   4161   4162     1   0.09730 310787.520000
   4166   4167     1   0.09730 310787.520000
   4169   4170     1   0.10129 337397.760000
   4171   4172     1   0.10969 276646.080000
   4171   4174     1   0.10969 276646.080000
   4173   4175     1   0.10969 276646.080000
   4173   4176     1   0.10969 276646.080000
   4178   4187     1   0.10969 276646.080000
   4178   4188     1   0.10969 276646.080000
   4179   4180     1   0.10969 276646.080000
   4179   4182     1   0.10969 276646.080000
   4181   4183     1   0.10969 276646.080000
   4181   4184     1   0.10969 276646.080000
   4189   4190     1   0.10969 276646.080000
   4189   4191     1   0.10969 276646.080000
   4194   4196     1   0.10969 276646.080000
   4195   4214     1   0.10969 276646.080000
   4197   4201     1   0.10969 276646.080000
   4198   4200     1   0.10969 276646.080000
   4199   4202     1   0.10961 277566.560000
   4203   4213     1   0.09730 310787.520000
   4204   4206     1   0.09730 310787.520000
   4205   4208     1   0.10969 276646.080000
   4205   4209     1   0.10969 276646.080000
   4207   4217     1   0.10190 328360.320000
   4210   4211     1   0.09730 310787.520000
   4215   4216     1   0.09730 310787.520000
   4218   4220     1   0.10969 276646.080000
   4219   4238     1   0.10969 276646.080000
   4221   4225     1   0.10969 276646.080000
   4222   4224     1   0.10969 276646.080000
   4223   4226     1   0.10961 277566.560000
   4227   4237     1   0.09730 310787.520000
   4228   4230     1   0.09730 310787.520000
   4229   4232     1   0.10969 276646.080000
   4229   4233     1   0.10969 276646.080000
   4231   4241     1   0.10190 328360.320000
   4234   4235     1   0.09730 310787.520000
   4239   4240     1   0.09730 310787.520000
   4242   4243     1   0.10129 337397.760000
   4244   4245     1   0.10969 276646.080000
   4244   4247     1   0.10969 276646.080000
   4246   4248     1   0.10969 276646.080000
   4246   4249     1   0.10969 276646.080000
   4251   4260     1   0.10969 276646.080000
   4251   4261     1   0.10969 276646.080000
   4252   4253     1   0.10969 276646.080000
   4252   4255     1   0.10969 276646.080000
   4254   4256     1   0.10969 276646.080000
   4254   4257     1   0.10969 276646.080000
   4262   4263     1   0.10969 276646.080000
   4262   4264     1   0.10969 276646.080000
   4267   4269     1   0.10969 276646.080000
   4268   4287     1   0.10969 276646.080000
   4270   4274     1   0.10969 276646.080000
   4271   4273     1   0.10969 276646.080000
   4272   4275     1   0.10961 277566.560000
   4276   4286     1   0.09730 310787.520000
   4277   4279     1   0.09730 310787.520000
   4278   4281     1   0.10969 276646.080000
   4278   4282     1   0.10969 276646.080000
   4280   4290     1   0.10190 328360.320000
   4283   4284     1   0.09730 310787.520000
   4288   4289     1   0.09730 310787.520000
   4291   4293     1   0.10969 276646.080000
   4292   4311     1   0.10969 276646.080000
   4294   4298     1   0.10969 276646.080000
   4295   4297     1   0.10969 276646.080000
   4296   4299     1   0.10961 277566.560000
   4300   4310     1   0.09730 310787.520000
   4301   4303     1   0.09730 310787.520000
   4302   4305     1   0.10969 276646.080000
   4302   4306     1   0.10969 276646.080000
   4304   4314     1   0.10190 328360.320000
   4307   4308     1   0.09730 310787.520000
   4312   4313     1   0.09730 310787.520000
   4315   4316     1   0.10129 337397.760000
   4317   4318     1   0.10969 276646.080000
   4317   4320     1   0.10969 276646.080000
   4319   4321     1   0.10969 276646.080000
   4319   4322     1   0.10969 276646.080000
   4324   4333     1   0.10969 276646.080000
   4324   4334     1   0.10969 276646.080000
   4325   4326     1   0.10969 276646.080000
   4325   4328     1   0.10969 276646.080000
   4327   4329     1   0.10969 276646.080000
   4327   4330     1   0.10969 276646.080000
   4335   4336     1   0.10969 276646.080000
   4335   4337     1   0.10969 276646.080000
   4340   4342     1   0.10969 276646.080000
   4341   4360     1   0.10969 276646.080000
   4343   4347     1   0.10969 276646.080000
   4344   4346     1   0.10969 276646.080000
   4345   4348     1   0.10961 277566.560000
   4349   4359     1   0.09730 310787.520000
   4350   4352     1   0.09730 310787.520000
   4351   4354     1   0.10969 276646.080000
   4351   4355     1   0.10969 276646.080000
   4353   4363     1   0.10190 328360.320000
   4356   4357     1   0.09730 310787.520000
   4361   4362     1   0.09730 310787.520000
   4364   4366     1   0.10969 276646.080000
   4365   4384     1   0.10969 276646.080000
   4367   4371     1   0.10969 276646.080000
   4368   4370     1   0.10969 276646.080000
   4369   4372     1   0.10961 277566.560000
   4373   4383     1   0.09730 310787.520000
   4374   4376     1   0.09730 310787.520000
   4375   4378     1   0.10969 276646.080000
   4375   4379     1   0.10969 276646.080000
   4377   4387     1   0.10190 328360.320000
   4380   4381     1   0.09730 310787.520000
   4385   4386     1   0.09730 310787.520000
   4388   4389     1   0.10129 337397.760000
   4390   4391     1   0.10969 276646.080000
   4390   4393     1   0.10969 276646.080000
   4392   4394     1   0.10969 276646.080000
   4392   4395     1   0.10969 276646.080000
   4397   4406     1   0.10969 276646.080000
   4397   4407     1   0.10969 276646.080000
   4398   4399     1   0.10969 276646.080000
   4398   4401     1   0.10969 276646.080000
   4400   4402     1   0.10969 276646.080000
   4400   4403     1   0.10969 276646.080000
   4408   4409     1   0.10969 276646.080000
   4408   4410     1   0.10969 276646.080000
   4413   4415     1   0.10969 276646.080000
   4414   4433     1   0.10969 276646.080000
   4416   4420     1   0.10969 276646.080000
   4417   4419     1   0.10969 276646.080000
   4418   4421     1   0.10961 277566.560000
   4422   4432     1   0.09730 310787.520000
   4423   4425     1   0.09730 310787.520000
   4424   4427     1   0.10969 276646.080000
   4424   4428     1   0.10969 276646.080000
   4426   4436     1   0.10190 328360.320000
   4429   4430     1   0.09730 310787.520000
   4434   4435     1   0.09730 310787.520000
   4437   4439     1   0.10969 276646.080000
   4438   4457     1   0.10969 276646.080000
   4440   4444     1   0.10969 276646.080000
   4441   4443     1   0.10969 276646.080000
   4442   4445     1   0.10961 277566.560000
   4446   4456     1   0.09730 310787.520000
   4447   4449     1   0.09730 310787.520000
   4448   4451     1   0.10969 276646.080000
   4448   4452     1   0.10969 276646.080000
   4450   4460     1   0.10190 328360.320000
   4453   4454     1   0.09730 310787.520000
   4458   4459     1   0.09730 310787.520000
   4461   4462     1   0.10129 337397.760000
   4463   4464     1   0.10969 276646.080000
   4463   4466     1   0.10969 276646.080000
   4465   4467     1   0.10969 276646.080000
   4465   4468     1   0.10969 276646.080000
   4470   4479     1   0.10969 276646.080000
   4470   4480     1   0.10969 276646.080000
   4471   4472     1   0.10969 276646.080000
   4471   4474     1   0.10969 276646.080000
   4473   4475     1   0.10969 276646.080000
   4473   4476     1   0.10969 276646.080000
   4481   4482     1   0.10969 276646.080000
   4481   4483     1   0.10969 276646.080000
   4486   4488     1   0.10969 276646.080000
   4487   4506     1   0.10969 276646.080000
   4489   4493     1   0.10969 276646.080000
   4490   4492     1   0.10969 276646.080000
   4491   4494     1   0.10961 277566.560000
   4495   4505     1   0.09730 310787.520000
   4496   4498     1   0.09730 310787.520000
   4497   4500     1   0.10969 276646.080000
   4497   4501     1   0.10969 276646.080000
   4499   4509     1   0.10190 328360.320000
   4502   4503     1   0.09730 310787.520000
   4507   4508     1   0.09730 310787.520000
   4510   4512     1   0.10969 276646.080000
   4511   4530     1   0.10969 276646.080000
   4513   4517     1   0.10969 276646.080000
   4514   4516     1   0.10969 276646.080000
   4515   4518     1   0.10961 277566.560000
   4519   4529     1   0.09730 310787.520000
   4520   4522     1   0.09730 310787.520000
   4521   4524     1   0.10969 276646.080000
   4521   4525     1   0.10969 276646.080000
   4523   4533     1   0.10190 328360.320000
   4526   4527     1   0.09730 310787.520000
   4531   4532     1   0.09730 310787.520000
   4534   4535     1   0.10129 337397.760000
   4536   4537     1   0.10969 276646.080000
   4536   4539     1   0.10969 276646.080000
   4538   4540     1   0.10969 276646.080000
   4538   4541     1   0.10969 276646.080000
   4543   4552     1   0.10969 276646.080000
   4543   4553     1   0.10969 276646.080000
   4544   4545     1   0.10969 276646.080000
   4544   4547     1   0.10969 276646.080000
   4546   4548     1   0.10969 276646.080000
   4546   4549     1   0.10969 276646.080000
   4554   4555     1   0.10969 276646.080000
   4554   4556     1   0.10969 276646.080000
   4559   4561     1   0.10969 276646.080000
   4560   4579     1   0.10969 276646.080000
   4562   4566     1   0.10969 276646.080000
   4563   4565     1   0.10969 276646.080000
   4564   4567     1   0.10961 277566.560000
   4568   4578     1   0.09730 310787.520000
   4569   4571     1   0.09730 310787.520000
   4570   4573     1   0.10969 276646.080000
   4570   4574     1   0.10969 276646.080000
   4572   4582     1   0.10190 328360.320000
   4575   4576     1   0.09730 310787.520000
   4580   4581     1   0.09730 310787.520000
   4583   4585     1   0.10969 276646.080000
   4584   4603     1   0.10969 276646.080000
   4586   4590     1   0.10969 276646.080000
   4587   4589     1   0.10969 276646.080000
   4588   4591     1   0.10961 277566.560000
   4592   4602     1   0.09730 310787.520000
   4593   4595     1   0.09730 310787.520000
   4594   4597     1   0.10969 276646.080000
   4594   4598     1   0.10969 276646.080000
   4596   4606     1   0.10190 328360.320000
   4599   4600     1   0.09730 310787.520000
   4604   4605     1   0.09730 310787.520000
   4607   4608     1   0.10129 337397.760000
   4609   4610     1   0.10969 276646.080000
   4609   4612     1   0.10969 276646.080000
   4611   4613     1   0.10969 276646.080000
   4611   4614     1   0.10969 276646.080000
   4616   4625     1   0.10969 276646.080000
   4616   4626     1   0.10969 276646.080000
   4617   4618     1   0.10969 276646.080000
   4617   4620     1   0.10969 276646.080000
   4619   4621     1   0.10969 276646.080000
   4619   4622     1   0.10969 276646.080000
   4627   4628     1   0.10969 276646.080000
   4627   4629     1   0.10969 276646.080000
   4632   4634     1   0.10969 276646.080000
   4633   4652     1   0.10969 276646.080000
   4635   4639     1   0.10969 276646.080000
   4636   4638     1   0.10969 276646.080000
   4637   4640     1   0.10961 277566.560000
   4641   4651     1   0.09730 310787.520000
   4642   4644     1   0.09730 310787.520000
   4643   4646     1   0.10969 276646.080000
   4643   4647     1   0.10969 276646.080000
   4645   4655     1   0.10190 328360.320000
   4648   4649     1   0.09730 310787.520000
   4653   4654     1   0.09730 310787.520000
   4656   4658     1   0.10969 276646.080000
   4657   4676     1   0.10969 276646.080000
   4659   4663     1   0.10969 276646.080000
   4660   4662     1   0.10969 276646.080000
   4661   4664     1   0.10961 277566.560000
   4665   4675     1   0.09730 310787.520000
   4666   4668     1   0.09730 310787.520000
   4667   4670     1   0.10969 276646.080000
   4667   4671     1   0.10969 276646.080000
   4669   4679     1   0.10190 328360.320000
   4672   4673     1   0.09730 310787.520000
   4677   4678     1   0.09730 310787.520000
   4680   4681     1   0.10129 337397.760000
   4682   4683     1   0.10969 276646.080000
   4682   4685     1   0.10969 276646.080000
   4684   4686     1   0.10969 276646.080000
   4684   4687     1   0.10969 276646.080000
   4689   4698     1   0.10969 276646.080000
   4689   4699     1   0.10969 276646.080000
   4690   4691     1   0.10969 276646.080000
   4690   4693     1   0.10969 276646.080000
   4692   4694     1   0.10969 276646.080000
   4692   4695     1   0.10969 276646.080000
   4700   4701     1   0.10969 276646.080000
   4700   4702     1   0.10969 276646.080000
   4705   4707     1   0.10969 276646.080000
   4706   4725     1   0.10969 276646.080000
   4708   4712     1   0.10969 276646.080000
   4709   4711     1   0.10969 276646.080000
   4710   4713     1   0.10961 277566.560000
   4714   4724     1   0.09730 310787.520000
   4715   4717     1   0.09730 310787.520000
   4716   4719     1   0.10969 276646.080000
   4716   4720     1   0.10969 276646.080000
   4718   4728     1   0.10190 328360.320000
   4721   4722     1   0.09730 310787.520000
   4726   4727     1   0.09730 310787.520000
   4729   4731     1   0.10969 276646.080000
   4730   4749     1   0.10969 276646.080000
   4732   4736     1   0.10969 276646.080000
   4733   4735     1   0.10969 276646.080000
   4734   4737     1   0.10961 277566.560000
   4738   4748     1   0.09730 310787.520000
   4739   4741     1   0.09730 310787.520000
   4740   4743     1   0.10969 276646.080000
   4740   4744     1   0.10969 276646.080000
   4742   4752     1   0.10190 328360.320000
   4745   4746     1   0.09730 310787.520000
   4750   4751     1   0.09730 310787.520000
   4753   4754     1   0.10129 337397.760000
   4755   4756     1   0.10969 276646.080000
   4755   4758     1   0.10969 276646.080000
   4757   4759     1   0.10969 276646.080000
   4757   4760     1   0.10969 276646.080000
   4762   4771     1   0.10969 276646.080000
   4762   4772     1   0.10969 276646.080000
   4763   4764     1   0.10969 276646.080000
   4763   4766     1   0.10969 276646.080000
   4765   4767     1   0.10969 276646.080000
   4765   4768     1   0.10969 276646.080000
   4773   4774     1   0.10969 276646.080000
   4773   4775     1   0.10969 276646.080000
   4778   4780     1   0.10969 276646.080000
   4779   4798     1   0.10969 276646.080000
   4781   4785     1   0.10969 276646.080000
   4782   4784     1   0.10969 276646.080000
   4783   4786     1   0.10961 277566.560000
   4787   4797     1   0.09730 310787.520000
   4788   4790     1   0.09730 310787.520000
   4789   4792     1   0.10969 276646.080000
   4789   4793     1   0.10969 276646.080000
   4791   4801     1   0.10190 328360.320000
   4794   4795     1   0.09730 310787.520000
   4799   4800     1   0.09730 310787.520000
   4802   4804     1   0.10969 276646.080000
   4803   4822     1   0.10969 276646.080000
   4805   4809     1   0.10969 276646.080000
   4806   4808     1   0.10969 276646.080000
   4807   4810     1   0.10961 277566.560000
   4811   4821     1   0.09730 310787.520000
   4812   4814     1   0.09730 310787.520000
   4813   4816     1   0.10969 276646.080000
   4813   4817     1   0.10969 276646.080000
   4815   4825     1   0.10190 328360.320000
   4818   4819     1   0.09730 310787.520000
   4823   4824     1   0.09730 310787.520000
   4826   4827     1   0.10129 337397.760000
   4828   4829     1   0.10969 276646.080000
   4828   4831     1   0.10969 276646.080000
   4830   4832     1   0.10969 276646.080000
   4830   4833     1   0.10969 276646.080000
   4835   4844     1   0.10969 276646.080000
   4835   4845     1   0.10969 276646.080000
   4836   4837     1   0.10969 276646.080000
   4836   4839     1   0.10969 276646.080000
   4838   4840     1   0.10969 276646.080000
   4838   4841     1   0.10969 276646.080000
   4846   4847     1   0.10969 276646.080000
   4846   4848     1   0.10969 276646.080000
   4851   4853     1   0.10969 276646.080000
   4852   4871     1   0.10969 276646.080000
   4854   4858     1   0.10969 276646.080000
   4855   4857     1   0.10969 276646.080000
   4856   4859     1   0.10961 277566.560000
   4860   4870     1   0.09730 310787.520000
   4861   4863     1   0.09730 310787.520000
   4862   4865     1   0.10969 276646.080000
   4862   4866     1   0.10969 276646.080000
   4864   4874     1   0.10190 328360.320000
   4867   4868     1   0.09730 310787.520000
   4872   4873     1   0.09730 310787.520000
   4875   4877     1   0.10969 276646.080000
   4876   4895     1   0.10969 276646.080000
   4878   4882     1   0.10969 276646.080000
   4879   4881     1   0.10969 276646.080000
   4880   4883     1   0.10961 277566.560000
   4884   4894     1   0.09730 310787.520000
   4885   4887     1   0.09730 310787.520000
   4886   4889     1   0.10969 276646.080000
   4886   4890     1   0.10969 276646.080000
   4888   4898     1   0.10190 328360.320000
   4891   4892     1   0.09730 310787.520000
   4896   4897     1   0.09730 310787.520000
   4899   4900     1   0.10129 337397.760000
   4901   4902     1   0.10969 276646.080000
   4901   4904     1   0.10969 276646.080000
   4903   4905     1   0.10969 276646.080000
   4903   4906     1   0.10969 276646.080000
   4908   4917     1   0.10969 276646.080000
   4908   4918     1   0.10969 276646.080000
   4909   4910     1   0.10969 276646.080000
   4909   4912     1   0.10969 276646.080000
   4911   4913     1   0.10969 276646.080000
   4911   4914     1   0.10969 276646.080000
   4919   4920     1   0.10969 276646.080000
   4919   4921     1   0.10969 276646.080000
   4924   4926     1   0.10969 276646.080000
   4925   4944     1   0.10969 276646.080000
   4927   4931     1   0.10969 276646.080000
   4928   4930     1   0.10969 276646.080000
   4929   4932     1   0.10961 277566.560000
   4933   4943     1   0.09730 310787.520000
   4934   4936     1   0.09730 310787.520000
   4935   4938     1   0.10969 276646.080000
   4935   4939     1   0.10969 276646.080000
   4937   4947     1   0.10190 328360.320000
   4940   4941     1   0.09730 310787.520000
   4945   4946     1   0.09730 310787.520000
   4948   4950     1   0.10969 276646.080000
   4949   4968     1   0.10969 276646.080000
   4951   4955     1   0.10969 276646.080000
   4952   4954     1   0.10969 276646.080000
   4953   4956     1   0.10961 277566.560000
   4957   4967     1   0.09730 310787.520000
   4958   4960     1   0.09730 310787.520000
   4959   4962     1   0.10969 276646.080000
   4959   4963     1   0.10969 276646.080000
   4961   4971     1   0.10190 328360.320000
   4964   4965     1   0.09730 310787.520000
   4969   4970     1   0.09730 310787.520000
   4972   4973     1   0.10129 337397.760000
   4974   4975     1   0.10969 276646.080000
   4974   4977     1   0.10969 276646.080000
   4976   4978     1   0.10969 276646.080000
   4976   4979     1   0.10969 276646.080000
   4981   4990     1   0.10969 276646.080000
   4981   4991     1   0.10969 276646.080000
   4982   4983     1   0.10969 276646.080000
   4982   4985     1   0.10969 276646.080000
   4984   4986     1   0.10969 276646.080000
   4984   4987     1   0.10969 276646.080000
   4992   4993     1   0.10969 276646.080000
   4992   4994     1   0.10969 276646.080000
   4997   4999     1   0.10969 276646.080000
   4998   5017     1   0.10969 276646.080000
   5000   5004     1   0.10969 276646.080000
   5001   5003     1   0.10969 276646.080000
   5002   5005     1   0.10961 277566.560000
   5006   5016     1   0.09730 310787.520000
   5007   5009     1   0.09730 310787.520000
   5008   5011     1   0.10969 276646.080000
   5008   5012     1   0.10969 276646.080000
   5010   5020     1   0.10190 328360.320000
   5013   5014     1   0.09730 310787.520000
   5018   5019     1   0.09730 310787.520000
   5021   5023     1   0.10969 276646.080000
   5022   5041     1   0.10969 276646.080000
   5024   5028     1   0.10969 276646.080000
   5025   5027     1   0.10969 276646.080000
   5026   5029     1   0.10961 277566.560000
   5030   5040     1   0.09730 310787.520000
   5031   5033     1   0.09730 310787.520000
   5032   5035     1   0.10969 276646.080000
   5032   5036     1   0.10969 276646.080000
   5034   5044     1   0.10190 328360.320000
   5037   5038     1   0.09730 310787.520000
   5042   5043     1   0.09730 310787.520000
   5045   5046     1   0.10129 337397.760000
   5047   5048     1   0.10969 276646.080000
   5047   5050     1   0.10969 276646.080000
   5049   5051     1   0.10969 276646.080000
   5049   5052     1   0.10969 276646.080000
   5054   5063     1   0.10969 276646.080000
   5054   5064     1   0.10969 276646.080000
   5055   5056     1   0.10969 276646.080000
   5055   5058     1   0.10969 276646.080000
   5057   5059     1   0.10969 276646.080000
   5057   5060     1   0.10969 276646.080000
   5065   5066     1   0.10969 276646.080000
   5065   5067     1   0.10969 276646.080000
   5070   5072     1   0.10969 276646.080000
   5071   5090     1   0.10969 276646.080000
   5073   5077     1   0.10969 276646.080000
   5074   5076     1   0.10969 276646.080000
   5075   5078     1   0.10961 277566.560000
   5079   5089     1   0.09730 310787.520000
   5080   5082     1   0.09730 310787.520000
   5081   5084     1   0.10969 276646.080000
   5081   5085     1   0.10969 276646.080000
   5083   5093     1   0.10190 328360.320000
   5086   5087     1   0.09730 310787.520000
   5091   5092     1   0.09730 310787.520000
   5094   5096     1   0.10969 276646.080000
   5095   5114     1   0.10969 276646.080000
   5097   5101     1   0.10969 276646.080000
   5098   5100     1   0.10969 276646.080000
   5099   5102     1   0.10961 277566.560000
   5103   5113     1   0.09730 310787.520000
   5104   5106     1   0.09730 310787.520000
   5105   5108     1   0.10969 276646.080000
   5105   5109     1   0.10969 276646.080000
   5107   5117     1   0.10190 328360.320000
   5110   5111     1   0.09730 310787.520000
   5115   5116     1   0.09730 310787.520000
   5118   5119     1   0.10129 337397.760000
   5120   5121     1   0.10969 276646.080000
   5120   5123     1   0.10969 276646.080000
   5122   5124     1   0.10969 276646.080000
   5122   5125     1   0.10969 276646.080000
   5127   5136     1   0.10969 276646.080000
   5127   5137     1   0.10969 276646.080000
   5128   5129     1   0.10969 276646.080000
   5128   5131     1   0.10969 276646.080000
   5130   5132     1   0.10969 276646.080000
   5130   5133     1   0.10969 276646.080000
   5138   5139     1   0.10969 276646.080000
   5138   5140     1   0.10969 276646.080000
   5143   5145     1   0.10969 276646.080000
   5144   5163     1   0.10969 276646.080000
   5146   5150     1   0.10969 276646.080000
   5147   5149     1   0.10969 276646.080000
   5148   5151     1   0.10961 277566.560000
   5152   5162     1   0.09730 310787.520000
   5153   5155     1   0.09730 310787.520000
   5154   5157     1   0.10969 276646.080000
   5154   5158     1   0.10969 276646.080000
   5156   5166     1   0.10190 328360.320000
   5159   5160     1   0.09730 310787.520000
   5164   5165     1   0.09730 310787.520000
   5167   5169     1   0.10969 276646.080000
   5168   5187     1   0.10969 276646.080000
   5170   5174     1   0.10969 276646.080000
   5171   5173     1   0.10969 276646.080000
   5172   5175     1   0.10961 277566.560000
   5176   5186     1   0.09730 310787.520000
   5177   5179     1   0.09730 310787.520000
   5178   5181     1   0.10969 276646.080000
   5178   5182     1   0.10969 276646.080000
   5180   5190     1   0.10190 328360.320000
   5183   5184     1   0.09730 310787.520000
   5188   5189     1   0.09730 310787.520000
   5191   5192     1   0.10129 337397.760000
   5193   5194     1   0.10969 276646.080000
   5193   5196     1   0.10969 276646.080000
   5195   5197     1   0.10969 276646.080000
   5195   5198     1   0.10969 276646.080000
   5200   5209     1   0.10969 276646.080000
   5200   5210     1   0.10969 276646.080000
   5201   5202     1   0.10969 276646.080000
   5201   5204     1   0.10969 276646.080000
   5203   5205     1   0.10969 276646.080000
   5203   5206     1   0.10969 276646.080000
   5211   5212     1   0.10969 276646.080000
   5211   5213     1   0.10969 276646.080000
   5216   5218     1   0.10969 276646.080000
   5217   5236     1   0.10969 276646.080000
   5219   5223     1   0.10969 276646.080000
   5220   5222     1   0.10969 276646.080000
   5221   5224     1   0.10961 277566.560000
   5225   5235     1   0.09730 310787.520000
   5226   5228     1   0.09730 310787.520000
   5227   5230     1   0.10969 276646.080000
   5227   5231     1   0.10969 276646.080000
   5229   5239     1   0.10190 328360.320000
   5232   5233     1   0.09730 310787.520000
   5237   5238     1   0.09730 310787.520000
   5240   5242     1   0.10969 276646.080000
   5241   5260     1   0.10969 276646.080000
   5243   5247     1   0.10969 276646.080000
   5244   5246     1   0.10969 276646.080000
   5245   5248     1   0.10961 277566.560000
   5249   5259     1   0.09730 310787.520000
   5250   5252     1   0.09730 310787.520000
   5251   5254     1   0.10969 276646.080000
   5251   5255     1   0.10969 276646.080000
   5253   5263     1   0.10190 328360.320000
   5256   5257     1   0.09730 310787.520000
   5261   5262     1   0.09730 310787.520000
   5264   5265     1   0.10129 337397.760000
   5266   5267     1   0.10969 276646.080000
   5266   5269     1   0.10969 276646.080000
   5268   5270     1   0.10969 276646.080000
   5268   5271     1   0.10969 276646.080000
   5273   5282     1   0.10969 276646.080000
   5273   5283     1   0.10969 276646.080000
   5274   5275     1   0.10969 276646.080000
   5274   5277     1   0.10969 276646.080000
   5276   5278     1   0.10969 276646.080000
   5276   5279     1   0.10969 276646.080000
   5284   5285     1   0.10969 276646.080000
   5284   5286     1   0.10969 276646.080000
   5289   5291     1   0.10969 276646.080000
   5290   5309     1   0.10969 276646.080000
   5292   5296     1   0.10969 276646.080000
   5293   5295     1   0.10969 276646.080000
   5294   5297     1   0.10961 277566.560000
   5298   5308     1   0.09730 310787.520000
   5299   5301     1   0.09730 310787.520000
   5300   5303     1   0.10969 276646.080000
   5300   5304     1   0.10969 276646.080000
   5302   5312     1   0.10190 328360.320000
   5305   5306     1   0.09730 310787.520000
   5310   5311     1   0.09730 310787.520000
   5313   5315     1   0.10969 276646.080000
   5314   5333     1   0.10969 276646.080000
   5316   5320     1   0.10969 276646.080000
   5317   5319     1   0.10969 276646.080000
   5318   5321     1   0.10961 277566.560000
   5322   5332     1   0.09730 310787.520000
   5323   5325     1   0.09730 310787.520000
   5324   5327     1   0.10969 276646.080000
   5324   5328     1   0.10969 276646.080000
   5326   5336     1   0.10190 328360.320000
   5329   5330     1   0.09730 310787.520000
   5334   5335     1   0.09730 310787.520000
   5337   5338     1   0.10129 337397.760000
   5339   5340     1   0.10969 276646.080000
   5339   5342     1   0.10969 276646.080000
   5341   5343     1   0.10969 276646.080000
   5341   5344     1   0.10969 276646.080000
   5346   5355     1   0.10969 276646.080000
   5346   5356     1   0.10969 276646.080000
   5347   5348     1   0.10969 276646.080000
   5347   5350     1   0.10969 276646.080000
   5349   5351     1   0.10969 276646.080000
   5349   5352     1   0.10969 276646.080000
   5357   5358     1   0.10969 276646.080000
   5357   5359     1   0.10969 276646.080000
   5362   5364     1   0.10969 276646.080000
   5363   5382     1   0.10969 276646.080000
   5365   5369     1   0.10969 276646.080000
   5366   5368     1   0.10969 276646.080000
   5367   5370     1   0.10961 277566.560000
   5371   5381     1   0.09730 310787.520000
   5372   5374     1   0.09730 310787.520000
   5373   5376     1   0.10969 276646.080000
   5373   5377     1   0.10969 276646.080000
   5375   5385     1   0.10190 328360.320000
   5378   5379     1   0.09730 310787.520000
   5383   5384     1   0.09730 310787.520000
   5386   5388     1   0.10969 276646.080000
   5387   5406     1   0.10969 276646.080000
   5389   5393     1   0.10969 276646.080000
   5390   5392     1   0.10969 276646.080000
   5391   5394     1   0.10961 277566.560000
   5395   5405     1   0.09730 310787.520000
   5396   5398     1   0.09730 310787.520000
   5397   5400     1   0.10969 276646.080000
   5397   5401     1   0.10969 276646.080000
   5399   5409     1   0.10190 328360.320000
   5402   5403     1   0.09730 310787.520000
   5407   5408     1   0.09730 310787.520000
   5410   5411     1   0.10129 337397.760000
   5412   5413     1   0.10969 276646.080000
   5412   5415     1   0.10969 276646.080000
   5414   5416     1   0.10969 276646.080000
   5414   5417     1   0.10969 276646.080000
   5419   5428     1   0.10969 276646.080000
   5419   5429     1   0.10969 276646.080000
   5420   5421     1   0.10969 276646.080000
   5420   5423     1   0.10969 276646.080000
   5422   5424     1   0.10969 276646.080000
   5422   5425     1   0.10969 276646.080000
   5430   5431     1   0.10969 276646.080000
   5430   5432     1   0.10969 276646.080000
   5435   5437     1   0.10969 276646.080000
   5436   5455     1   0.10969 276646.080000
   5438   5442     1   0.10969 276646.080000
   5439   5441     1   0.10969 276646.080000
   5440   5443     1   0.10961 277566.560000
   5444   5454     1   0.09730 310787.520000
   5445   5447     1   0.09730 310787.520000
   5446   5449     1   0.10969 276646.080000
   5446   5450     1   0.10969 276646.080000
   5448   5458     1   0.10190 328360.320000
   5451   5452     1   0.09730 310787.520000
   5456   5457     1   0.09730 310787.520000
   5459   5461     1   0.10969 276646.080000
   5460   5479     1   0.10969 276646.080000
   5462   5466     1   0.10969 276646.080000
   5463   5465     1   0.10969 276646.080000
   5464   5467     1   0.10961 277566.560000
   5468   5478     1   0.09730 310787.520000
   5469   5471     1   0.09730 310787.520000
   5470   5473     1   0.10969 276646.080000
   5470   5474     1   0.10969 276646.080000
   5472   5482     1   0.10190 328360.320000
   5475   5476     1   0.09730 310787.520000
   5480   5481     1   0.09730 310787.520000
   5483   5484     1   0.10129 337397.760000
   5485   5486     1   0.10969 276646.080000
   5485   5488     1   0.10969 276646.080000
   5487   5489     1   0.10969 276646.080000
   5487   5490     1   0.10969 276646.080000
   5492   5501     1   0.10969 276646.080000
   5492   5502     1   0.10969 276646.080000
   5493   5494     1   0.10969 276646.080000
   5493   5496     1   0.10969 276646.080000
   5495   5497     1   0.10969 276646.080000
   5495   5498     1   0.10969 276646.080000
   5503   5504     1   0.10969 276646.080000
   5503   5505     1   0.10969 276646.080000
   5508   5510     1   0.10969 276646.080000
   5509   5528     1   0.10969 276646.080000
   5511   5515     1   0.10969 276646.080000
   5512   5514     1   0.10969 276646.080000
   5513   5516     1   0.10961 277566.560000
   5517   5527     1   0.09730 310787.520000
   5518   5520     1   0.09730 310787.520000
   5519   5522     1   0.10969 276646.080000
   5519   5523     1   0.10969 276646.080000
   5521   5531     1   0.10190 328360.320000
   5524   5525     1   0.09730 310787.520000
   5529   5530     1   0.09730 310787.520000
   5532   5534     1   0.10969 276646.080000
   5533   5552     1   0.10969 276646.080000
   5535   5539     1   0.10969 276646.080000
   5536   5538     1   0.10969 276646.080000
   5537   5540     1   0.10961 277566.560000
   5541   5551     1   0.09730 310787.520000
   5542   5544     1   0.09730 310787.520000
   5543   5546     1   0.10969 276646.080000
   5543   5547     1   0.10969 276646.080000
   5545   5555     1   0.10190 328360.320000
   5548   5549     1   0.09730 310787.520000
   5553   5554     1   0.09730 310787.520000
   5556   5557     1   0.10129 337397.760000
   5558   5559     1   0.10969 276646.080000
   5558   5561     1   0.10969 276646.080000
   5560   5562     1   0.10969 276646.080000
   5560   5563     1   0.10969 276646.080000
   5565   5574     1   0.10969 276646.080000
   5565   5575     1   0.10969 276646.080000
   5566   5567     1   0.10969 276646.080000
   5566   5569     1   0.10969 276646.080000
   5568   5570     1   0.10969 276646.080000
   5568   5571     1   0.10969 276646.080000
   5576   5577     1   0.10969 276646.080000
   5576   5578     1   0.10969 276646.080000
   5581   5583     1   0.10969 276646.080000
   5582   5601     1   0.10969 276646.080000
   5584   5588     1   0.10969 276646.080000
   5585   5587     1   0.10969 276646.080000
   5586   5589     1   0.10961 277566.560000
   5590   5600     1   0.09730 310787.520000
   5591   5593     1   0.09730 310787.520000
   5592   5595     1   0.10969 276646.080000
   5592   5596     1   0.10969 276646.080000
   5594   5604     1   0.10190 328360.320000
   5597   5598     1   0.09730 310787.520000
   5602   5603     1   0.09730 310787.520000
   5605   5607     1   0.10969 276646.080000
   5606   5625     1   0.10969 276646.080000
   5608   5612     1   0.10969 276646.080000
   5609   5611     1   0.10969 276646.080000
   5610   5613     1   0.10961 277566.560000
   5614   5624     1   0.09730 310787.520000
   5615   5617     1   0.09730 310787.520000
   5616   5619     1   0.10969 276646.080000
   5616   5620     1   0.10969 276646.080000
   5618   5628     1   0.10190 328360.320000
   5621   5622     1   0.09730 310787.520000
   5626   5627     1   0.09730 310787.520000
   5629   5630     1   0.10129 337397.760000
   5631   5632     1   0.10969 276646.080000
   5631   5634     1   0.10969 276646.080000
   5633   5635     1   0.10969 276646.080000
   5633   5636     1   0.10969 276646.080000
   5638   5647     1   0.10969 276646.080000
   5638   5648     1   0.10969 276646.080000
   5639   5640     1   0.10969 276646.080000
   5639   5642     1   0.10969 276646.080000
   5641   5643     1   0.10969 276646.080000
   5641   5644     1   0.10969 276646.080000
   5649   5650     1   0.10969 276646.080000
   5649   5651     1   0.10969 276646.080000
   5654   5656     1   0.10969 276646.080000
   5655   5674     1   0.10969 276646.080000
   5657   5661     1   0.10969 276646.080000
   5658   5660     1   0.10969 276646.080000
   5659   5662     1   0.10961 277566.560000
   5663   5673     1   0.09730 310787.520000
   5664   5666     1   0.09730 310787.520000
   5665   5668     1   0.10969 276646.080000
   5665   5669     1   0.10969 276646.080000
   5667   5677     1   0.10190 328360.320000
   5670   5671     1   0.09730 310787.520000
   5675   5676     1   0.09730 310787.520000
   5678   5680     1   0.10969 276646.080000
   5679   5698     1   0.10969 276646.080000
   5681   5685     1   0.10969 276646.080000
   5682   5684     1   0.10969 276646.080000
   5683   5686     1   0.10961 277566.560000
   5687   5697     1   0.09730 310787.520000
   5688   5690     1   0.09730 310787.520000
   5689   5692     1   0.10969 276646.080000
   5689   5693     1   0.10969 276646.080000
   5691   5701     1   0.10190 328360.320000
   5694   5695     1   0.09730 310787.520000
   5699   5700     1   0.09730 310787.520000
   5702   5703     1   0.10129 337397.760000
   5704   5705     1   0.10969 276646.080000
   5704   5707     1   0.10969 276646.080000
   5706   5708     1   0.10969 276646.080000
   5706   5709     1   0.10969 276646.080000
   5711   5720     1   0.10969 276646.080000
   5711   5721     1   0.10969 276646.080000
   5712   5713     1   0.10969 276646.080000
   5712   5715     1   0.10969 276646.080000
   5714   5716     1   0.10969 276646.080000
   5714   5717     1   0.10969 276646.080000
   5722   5723     1   0.10969 276646.080000
   5722   5724     1   0.10969 276646.080000
   5727   5729     1   0.10969 276646.080000
   5728   5747     1   0.10969 276646.080000
   5730   5734     1   0.10969 276646.080000
   5731   5733     1   0.10969 276646.080000
   5732   5735     1   0.10961 277566.560000
   5736   5746     1   0.09730 310787.520000
   5737   5739     1   0.09730 310787.520000
   5738   5741     1   0.10969 276646.080000
   5738   5742     1   0.10969 276646.080000
   5740   5750     1   0.10190 328360.320000
   5743   5744     1   0.09730 310787.520000
   5748   5749     1   0.09730 310787.520000
   5751   5753     1   0.10969 276646.080000
   5752   5771     1   0.10969 276646.080000
   5754   5758     1   0.10969 276646.080000
   5755   5757     1   0.10969 276646.080000
   5756   5759     1   0.10961 277566.560000
   5760   5770     1   0.09730 310787.520000
   5761   5763     1   0.09730 310787.520000
   5762   5765     1   0.10969 276646.080000
   5762   5766     1   0.10969 276646.080000
   5764   5774     1   0.10190 328360.320000
   5767   5768     1   0.09730 310787.520000
   5772   5773     1   0.09730 310787.520000
   5775   5776     1   0.10129 337397.760000
   5777   5778     1   0.10969 276646.080000
   5777   5780     1   0.10969 276646.080000
   5779   5781     1   0.10969 276646.080000
   5779   5782     1   0.10969 276646.080000
   5784   5793     1   0.10969 276646.080000
   5784   5794     1   0.10969 276646.080000
   5785   5786     1   0.10969 276646.080000
   5785   5788     1   0.10969 276646.080000
   5787   5789     1   0.10969 276646.080000
   5787   5790     1   0.10969 276646.080000
   5795   5796     1   0.10969 276646.080000
   5795   5797     1   0.10969 276646.080000
   5800   5802     1   0.10969 276646.080000
   5801   5820     1   0.10969 276646.080000
   5803   5807     1   0.10969 276646.080000
   5804   5806     1   0.10969 276646.080000
   5805   5808     1   0.10961 277566.560000
   5809   5819     1   0.09730 310787.520000
   5810   5812     1   0.09730 310787.520000
   5811   5814     1   0.10969 276646.080000
   5811   5815     1   0.10969 276646.080000
   5813   5823     1   0.10190 328360.320000
   5816   5817     1   0.09730 310787.520000
   5821   5822     1   0.09730 310787.520000
   5824   5826     1   0.10969 276646.080000
   5825   5844     1   0.10969 276646.080000
   5827   5831     1   0.10969 276646.080000
   5828   5830     1   0.10969 276646.080000
   5829   5832     1   0.10961 277566.560000
   5833   5843     1   0.09730 310787.520000
   5834   5836     1   0.09730 310787.520000
   5835   5838     1   0.10969 276646.080000
   5835   5839     1   0.10969 276646.080000
   5837   5847     1   0.10190 328360.320000
   5840   5841     1   0.09730 310787.520000
   5845   5846     1   0.09730 310787.520000
   5848   5849     1   0.10129 337397.760000
   5850   5851     1   0.10969 276646.080000
   5850   5853     1   0.10969 276646.080000
   5852   5854     1   0.10969 276646.080000
   5852   5855     1   0.10969 276646.080000
   5857   5866     1   0.10969 276646.080000
   5857   5867     1   0.10969 276646.080000
   5858   5859     1   0.10969 276646.080000
   5858   5861     1   0.10969 276646.080000
   5860   5862     1   0.10969 276646.080000
   5860   5863     1   0.10969 276646.080000
   5868   5869     1   0.10969 276646.080000
   5868   5870     1   0.10969 276646.080000
   5873   5875     1   0.10969 276646.080000
   5874   5893     1   0.10969 276646.080000
   5876   5880     1   0.10969 276646.080000
   5877   5879     1   0.10969 276646.080000
   5878   5881     1   0.10961 277566.560000
   5882   5892     1   0.09730 310787.520000
   5883   5885     1   0.09730 310787.520000
   5884   5887     1   0.10969 276646.080000
   5884   5888     1   0.10969 276646.080000
   5886   5896     1   0.10190 328360.320000
   5889   5890     1   0.09730 310787.520000
   5894   5895     1   0.09730 310787.520000
   5897   5899     1   0.10969 276646.080000
   5898   5917     1   0.10969 276646.080000
   5900   5904     1   0.10969 276646.080000
   5901   5903     1   0.10969 276646.080000
   5902   5905     1   0.10961 277566.560000
   5906   5916     1   0.09730 310787.520000
   5907   5909     1   0.09730 310787.520000
   5908   5911     1   0.10969 276646.080000
   5908   5912     1   0.10969 276646.080000
   5910   5920     1   0.10190 328360.320000
   5913   5914     1   0.09730 310787.520000
   5918   5919     1   0.09730 310787.520000
   5921   5922     1   0.10129 337397.760000
   5923   5924     1   0.10969 276646.080000
   5923   5926     1   0.10969 276646.080000
   5925   5927     1   0.10969 276646.080000
   5925   5928     1   0.10969 276646.080000
   5930   5939     1   0.10969 276646.080000
   5930   5940     1   0.10969 276646.080000
   5931   5932     1   0.10969 276646.080000
   5931   5934     1   0.10969 276646.080000
   5933   5935     1   0.10969 276646.080000
   5933   5936     1   0.10969 276646.080000
   5941   5942     1   0.10969 276646.080000
   5941   5943     1   0.10969 276646.080000
   5946   5948     1   0.10969 276646.080000
   5947   5966     1   0.10969 276646.080000
   5949   5953     1   0.10969 276646.080000
   5950   5952     1   0.10969 276646.080000
   5951   5954     1   0.10961 277566.560000
   5955   5965     1   0.09730 310787.520000
   5956   5958     1   0.09730 310787.520000
   5957   5960     1   0.10969 276646.080000
   5957   5961     1   0.10969 276646.080000
   5959   5969     1   0.10190 328360.320000
   5962   5963     1   0.09730 310787.520000
   5967   5968     1   0.09730 310787.520000
   5970   5972     1   0.10969 276646.080000
   5971   5990     1   0.10969 276646.080000
   5973   5977     1   0.10969 276646.080000
   5974   5976     1   0.10969 276646.080000
   5975   5978     1   0.10961 277566.560000
   5979   5989     1   0.09730 310787.520000
   5980   5982     1   0.09730 310787.520000
   5981   5984     1   0.10969 276646.080000
   5981   5985     1   0.10969 276646.080000
   5983   5993     1   0.10190 328360.320000
   5986   5987     1   0.09730 310787.520000
   5991   5992     1   0.09730 310787.520000
   5994   5995     1   0.10129 337397.760000
   5996   5997     1   0.10969 276646.080000
   5996   5999     1   0.10969 276646.080000
   5998   6000     1   0.10969 276646.080000
   5998   6001     1   0.10969 276646.080000
   6003   6012     1   0.10969 276646.080000
   6003   6013     1   0.10969 276646.080000
   6004   6005     1   0.10969 276646.080000
   6004   6007     1   0.10969 276646.080000
   6006   6008     1   0.10969 276646.080000
   6006   6009     1   0.10969 276646.080000
   6014   6015     1   0.10969 276646.080000
   6014   6016     1   0.10969 276646.080000
   6019   6021     1   0.10969 276646.080000
   6020   6039     1   0.10969 276646.080000
   6022   6026     1   0.10969 276646.080000
   6023   6025     1   0.10969 276646.080000
   6024   6027     1   0.10961 277566.560000
   6028   6038     1   0.09730 310787.520000
   6029   6031     1   0.09730 310787.520000
   6030   6033     1   0.10969 276646.080000
   6030   6034     1   0.10969 276646.080000
   6032   6042     1   0.10190 328360.320000
   6035   6036     1   0.09730 310787.520000
   6040   6041     1   0.09730 310787.520000
   6043   6045     1   0.10969 276646.080000
   6044   6063     1   0.10969 276646.080000
   6046   6050     1   0.10969 276646.080000
   6047   6049     1   0.10969 276646.080000
   6048   6051     1   0.10961 277566.560000
   6052   6062     1   0.09730 310787.520000
   6053   6055     1   0.09730 310787.520000
   6054   6057     1   0.10969 276646.080000
   6054   6058     1   0.10969 276646.080000
   6056   6066     1   0.10190 328360.320000
   6059   6060     1   0.09730 310787.520000
   6064   6065     1   0.09730 310787.520000
   6067   6068     1   0.10129 337397.760000
   6069   6070     1   0.10969 276646.080000
   6069   6072     1   0.10969 276646.080000
   6071   6073     1   0.10969 276646.080000
   6071   6074     1   0.10969 276646.080000
   6076   6085     1   0.10969 276646.080000
   6076   6086     1   0.10969 276646.080000
   6077   6078     1   0.10969 276646.080000
   6077   6080     1   0.10969 276646.080000
   6079   6081     1   0.10969 276646.080000
   6079   6082     1   0.10969 276646.080000
   6087   6088     1   0.10969 276646.080000
   6087   6089     1   0.10969 276646.080000
   6092   6094     1   0.10969 276646.080000
   6093   6112     1   0.10969 276646.080000
   6095   6099     1   0.10969 276646.080000
   6096   6098     1   0.10969 276646.080000
   6097   6100     1   0.10961 277566.560000
   6101   6111     1   0.09730 310787.520000
   6102   6104     1   0.09730 310787.520000
   6103   6106     1   0.10969 276646.080000
   6103   6107     1   0.10969 276646.080000
   6105   6115     1   0.10190 328360.320000
   6108   6109     1   0.09730 310787.520000
   6113   6114     1   0.09730 310787.520000
   6116   6118     1   0.10969 276646.080000
   6117   6136     1   0.10969 276646.080000
   6119   6123     1   0.10969 276646.080000
   6120   6122     1   0.10969 276646.080000
   6121   6124     1   0.10961 277566.560000
   6125   6135     1   0.09730 310787.520000
   6126   6128     1   0.09730 310787.520000
   6127   6130     1   0.10969 276646.080000
   6127   6131     1   0.10969 276646.080000
   6129   6139     1   0.10190 328360.320000
   6132   6133     1   0.09730 310787.520000
   6137   6138     1   0.09730 310787.520000
   6140   6141     1   0.10129 337397.760000
   6142   6143     1   0.10969 276646.080000
   6142   6145     1   0.10969 276646.080000
   6144   6146     1   0.10969 276646.080000
   6144   6147     1   0.10969 276646.080000
   6149   6158     1   0.10969 276646.080000
   6149   6159     1   0.10969 276646.080000
   6150   6151     1   0.10969 276646.080000
   6150   6153     1   0.10969 276646.080000
   6152   6154     1   0.10969 276646.080000
   6152   6155     1   0.10969 276646.080000
   6160   6161     1   0.10969 276646.080000
   6160   6162     1   0.10969 276646.080000
   6165   6167     1   0.10969 276646.080000
   6166   6185     1   0.10969 276646.080000
   6168   6172     1   0.10969 276646.080000
   6169   6171     1   0.10969 276646.080000
   6170   6173     1   0.10961 277566.560000
   6174   6184     1   0.09730 310787.520000
   6175   6177     1   0.09730 310787.520000
   6176   6179     1   0.10969 276646.080000
   6176   6180     1   0.10969 276646.080000
   6178   6188     1   0.10190 328360.320000
   6181   6182     1   0.09730 310787.520000
   6186   6187     1   0.09730 310787.520000
   6189   6191     1   0.10969 276646.080000
   6190   6209     1   0.10969 276646.080000
   6192   6196     1   0.10969 276646.080000
   6193   6195     1   0.10969 276646.080000
   6194   6197     1   0.10961 277566.560000
   6198   6208     1   0.09730 310787.520000
   6199   6201     1   0.09730 310787.520000
   6200   6203     1   0.10969 276646.080000
   6200   6204     1   0.10969 276646.080000
   6202   6212     1   0.10190 328360.320000
   6205   6206     1   0.09730 310787.520000
   6210   6211     1   0.09730 310787.520000

[ pairs ]
;    ai     aj funct         c0         c1         c2         c3
      1     15     1
      1     18     1
      1     30     1
      1     27     1
      4      9     1
      4     12     1
      4     21     1
      4     24     1
      8      7     1
      7     35     1
      7     36     1
      8     34     1
      8     33     1
      9     27     1
      9     40     1
      9     89     1
     12     30     1
     12     37     1
     12     64     1
     15     24     1
     15     38     1
     15    114     1
     18     21     1
     18     39     1
     18    139     1
     21     94     1
     24    119     1
     27     44     1
     30     69     1
     33     41     1
     34     66     1
     35     91     1
     36    116     1
     37     44     1
     38     94     1
     39    119     1
     40     69     1
     41     57     1
     41     54     1
     44     48     1
     44     51     1
     47     64     1
     47     61     1
     47     60     1
     48     54     1
     48     63     1
     48    189     1
     51     57     1
     51     62     1
     51    164     1
     54    144     1
     57    169     1
     60    141     1
     61    166     1
     62    144     1
     63    169     1
     66     82     1
     66     79     1
     69     73     1
     69     76     1
     72     89     1
     72     86     1
     72     85     1
     73     79     1
     73     88     1
     73    239     1
     76     82     1
     76     87     1
     76    214     1
     79    194     1
     82    219     1
     85    191     1
     86    216     1
     87    194     1
     88    219     1
     91    107     1
     91    104     1
     94     98     1
     94    101     1
     97    114     1
     97    111     1
     97    110     1
     98    104     1
     98    113     1
     98    289     1
    101    107     1
    101    112     1
    101    264     1
    104    244     1
    107    269     1
    110    241     1
    111    266     1
    112    244     1
    113    269     1
    116    132     1
    116    129     1
    119    123     1
    119    126     1
    122    139     1
    122    136     1
    122    135     1
    123    129     1
    123    138     1
    123    339     1
    126    132     1
    126    137     1
    126    314     1
    129    294     1
    132    319     1
    135    291     1
    136    316     1
    137    294     1
    138    319     1
    141    157     1
    141    154     1
    144    148     1
    144    151     1
    147    164     1
    147    161     1
    147    160     1
    148    154     1
    148    163     1
    148    389     1
    151    157     1
    151    162     1
    151    364     1
    154    344     1
    157    369     1
    160    341     1
    161    366     1
    162    344     1
    163    369     1
    166    182     1
    166    179     1
    169    173     1
    169    176     1
    172    189     1
    172    186     1
    172    185     1
    173    179     1
    173    188     1
    173    439     1
    176    182     1
    176    187     1
    176    414     1
    179    394     1
    182    419     1
    185    391     1
    186    416     1
    187    394     1
    188    419     1
    191    207     1
    191    204     1
    194    198     1
    194    201     1
    197    214     1
    197    211     1
    197    210     1
    198    204     1
    198    213     1
    198    489     1
    201    207     1
    201    212     1
    201    464     1
    204    444     1
    207    469     1
    210    441     1
    211    466     1
    212    444     1
    213    469     1
    216    232     1
    216    229     1
    219    223     1
    219    226     1
    222    239     1
    222    236     1
    222    235     1
    223    229     1
    223    238     1
    223    539     1
    226    232     1
    226    237     1
    226    514     1
    229    494     1
    232    519     1
    235    491     1
    236    516     1
    237    494     1
    238    519     1
    241    257     1
    241    254     1
    244    248     1
    244    251     1
    247    264     1
    247    261     1
    247    260     1
    248    254     1
    248    263     1
    248    589     1
    251    257     1
    251    262     1
    251    564     1
    254    544     1
    257    569     1
    260    541     1
    261    566     1
    262    544     1
    263    569     1
    266    282     1
    266    279     1
    269    273     1
    269    276     1
    272    289     1
    272    286     1
    272    285     1
    273    279     1
    273    288     1
    273    639     1
    276    282     1
    276    287     1
    276    614     1
    279    594     1
    282    619     1
    285    591     1
    286    616     1
    287    594     1
    288    619     1
    291    307     1
    291    304     1
    294    298     1
    294    301     1
    297    314     1
    297    311     1
    297    310     1
    298    304     1
    298    313     1
    298    689     1
    301    307     1
    301    312     1
    301    664     1
    304    644     1
    307    669     1
    310    641     1
    311    666     1
    312    644     1
    313    669     1
    316    332     1
    316    329     1
    319    323     1
    319    326     1
    322    339     1
    322    336     1
    322    335     1
    323    329     1
    323    338     1
    323    739     1
    326    332     1
    326    337     1
    326    714     1
    329    694     1
    332    719     1
    335    691     1
    336    716     1
    337    694     1
    338    719     1
    341    357     1
    341    354     1
    344    348     1
    344    351     1
    347    364     1
    347    361     1
    347    360     1
    348    354     1
    348    363     1
    348    789     1
    351    357     1
    351    362     1
    351    764     1
    354    744     1
    357    769     1
    360    741     1
    361    766     1
    362    744     1
    363    769     1
    366    382     1
    366    379     1
    369    373     1
    369    376     1
    372    389     1
    372    386     1
    372    385     1
    373    379     1
    373    388     1
    373    839     1
    376    382     1
    376    387     1
    376    814     1
    379    794     1
    382    819     1
    385    791     1
    386    816     1
    387    794     1
    388    819     1
    391    407     1
    391    404     1
    394    398     1
    394    401     1
    397    414     1
    397    411     1
    397    410     1
    398    404     1
    398    413     1
    398    889     1
    401    407     1
    401    412     1
    401    864     1
    404    844     1
    407    869     1
    410    841     1
    411    866     1
    412    844     1
    413    869     1
    416    432     1
    416    429     1
    419    423     1
    419    426     1
    422    439     1
    422    436     1
    422    435     1
    423    429     1
    423    438     1
    423    939     1
    426    432     1
    426    437     1
    426    914     1
    429    894     1
    432    919     1
    435    891     1
    436    916     1
    437    894     1
    438    919     1
    441    457     1
    441    454     1
    444    448     1
    444    451     1
    447    464     1
    447    461     1
    447    460     1
    448    454     1
    448    463     1
    448    989     1
    451    457     1
    451    462     1
    451    964     1
    454    944     1
    457    969     1
    460    941     1
    461    966     1
    462    944     1
    463    969     1
    466    482     1
    466    479     1
    469    473     1
    469    476     1
    472    489     1
    472    486     1
    472    485     1
    473    479     1
    473    488     1
    473   1039     1
    476    482     1
    476    487     1
    476   1014     1
    479    994     1
    482   1019     1
    485    991     1
    486   1016     1
    487    994     1
    488   1019     1
    491    507     1
    491    504     1
    494    498     1
    494    501     1
    497    514     1
    497    511     1
    497    510     1
    498    504     1
    498    513     1
    498   1089     1
    501    507     1
    501    512     1
    501   1064     1
    504   1044     1
    507   1069     1
    510   1041     1
    511   1066     1
    512   1044     1
    513   1069     1
    516    532     1
    516    529     1
    519    523     1
    519    526     1
    522    539     1
    522    536     1
    522    535     1
    523    529     1
    523    538     1
    523   1139     1
    526    532     1
    526    537     1
    526   1114     1
    529   1094     1
    532   1119     1
    535   1091     1
    536   1116     1
    537   1094     1
    538   1119     1
    541    557     1
    541    554     1
    544    548     1
    544    551     1
    547    564     1
    547    561     1
    547    560     1
    548    554     1
    548    563     1
    548   1189     1
    551    557     1
    551    562     1
    551   1164     1
    554   1144     1
    557   1169     1
    560   1141     1
    561   1166     1
    562   1144     1
    563   1169     1
    566    582     1
    566    579     1
    569    573     1
    569    576     1
    572    589     1
    572    586     1
    572    585     1
    573    579     1
    573    588     1
    573   1239     1
    576    582     1
    576    587     1
    576   1214     1
    579   1194     1
    582   1219     1
    585   1191     1
    586   1216     1
    587   1194     1
    588   1219     1
    591    607     1
    591    604     1
    594    598     1
    594    601     1
    597    614     1
    597    611     1
    597    610     1
    598    604     1
    598    613     1
    598   1289     1
    601    607     1
    601    612     1
    601   1264     1
    604   1244     1
    607   1269     1
    610   1241     1
    611   1266     1
    612   1244     1
    613   1269     1
    616    632     1
    616    629     1
    619    623     1
    619    626     1
    622    639     1
    622    636     1
    622    635     1
    623    629     1
    623    638     1
    623   1339     1
    626    632     1
    626    637     1
    626   1314     1
    629   1294     1
    632   1319     1
    635   1291     1
    636   1316     1
    637   1294     1
    638   1319     1
    641    657     1
    641    654     1
    644    648     1
    644    651     1
    647    664     1
    647    661     1
    647    660     1
    648    654     1
    648    663     1
    648   1389     1
    651    657     1
    651    662     1
    651   1364     1
    654   1344     1
    657   1369     1
    660   1341     1
    661   1366     1
    662   1344     1
    663   1369     1
    666    682     1
    666    679     1
    669    673     1
    669    676     1
    672    689     1
    672    686     1
    672    685     1
    673    679     1
    673    688     1
    673   1439     1
    676    682     1
    676    687     1
    676   1414     1
    679   1394     1
    682   1419     1
    685   1391     1
    686   1416     1
    687   1394     1
    688   1419     1
    691    707     1
    691    704     1
    694    698     1
    694    701     1
    697    714     1
    697    711     1
    697    710     1
    698    704     1
    698    713     1
    698   1489     1
    701    707     1
    701    712     1
    701   1464     1
    704   1444     1
    707   1469     1
    710   1441     1
    711   1466     1
    712   1444     1
    713   1469     1
    716    732     1
    716    729     1
    719    723     1
    719    726     1
    722    739     1
    722    736     1
    722    735     1
    723    729     1
    723    738     1
    723   1539     1
    726    732     1
    726    737     1
    726   1514     1
    729   1494     1
    732   1519     1
    735   1491     1
    736   1516     1
    737   1494     1
    738   1519     1
    741    757     1
    741    754     1
    744    748     1
    744    751     1
    747    764     1
    747    761     1
    747    760     1
    748    754     1
    748    763     1
    748   1614     1
    751    757     1
    751   1541     1
    751    762     1
    754   1543     1
    757   1616     1
    760   1545     1
    761   1618     1
    762   1543     1
    763   1616     1
    766    782     1
    766    779     1
    769    773     1
    769    776     1
    772    789     1
    772    786     1
    772    785     1
    773    779     1
    773    788     1
    773   1760     1
    776    782     1
    776   1687     1
    776    787     1
    779   1689     1
    782   1762     1
    785   1691     1
    786   1764     1
    787   1689     1
    788   1762     1
    791    807     1
    791    804     1
    794    798     1
    794    801     1
    797    814     1
    797    811     1
    797    810     1
    798    804     1
    798    813     1
    798   1906     1
    801    807     1
    801   1833     1
    801    812     1
    804   1835     1
    807   1908     1
    810   1837     1
    811   1910     1
    812   1835     1
    813   1908     1
    816    832     1
    816    829     1
    819    823     1
    819    826     1
    822    839     1
    822    836     1
    822    835     1
    823    829     1
    823    838     1
    823   2052     1
    826    832     1
    826   1979     1
    826    837     1
    829   1981     1
    832   2054     1
    835   1983     1
    836   2056     1
    837   1981     1
    838   2054     1
    841    857     1
    841    854     1
    844    848     1
    844    851     1
    847    864     1
    847    861     1
    847    860     1
    848    854     1
    848    863     1
    848   2198     1
    851    857     1
    851   2125     1
    851    862     1
    854   2127     1
    857   2200     1
    860   2129     1
    861   2202     1
    862   2127     1
    863   2200     1
    866    882     1
    866    879     1
    869    873     1
    869    876     1
    872    889     1
    872    886     1
    872    885     1
    873    879     1
    873    888     1
    873   2344     1
    876    882     1
    876   2271     1
    876    887     1
    879   2273     1
    882   2346     1
    885   2275     1
    886   2348     1
    887   2273     1
    888   2346     1
    891    907     1
    891    904     1
    894    898     1
    894    901     1
    897    914     1
    897    911     1
    897    910     1
    898    904     1
    898    913     1
    898   2490     1
    901    907     1
    901   2417     1
    901    912     1
    904   2419     1
    907   2492     1
    910   2421     1
    911   2494     1
    912   2419     1
    913   2492     1
    916    932     1
    916    929     1
    919    923     1
    919    926     1
    922    939     1
    922    936     1
    922    935     1
    923    929     1
    923    938     1
    923   2636     1
    926    932     1
    926   2563     1
    926    937     1
    929   2565     1
    932   2638     1
    935   2567     1
    936   2640     1
    937   2565     1
    938   2638     1
    941    957     1
    941    954     1
    944    948     1
    944    951     1
    947    964     1
    947    961     1
    947    960     1
    948    954     1
    948    963     1
    948   2782     1
    951    957     1
    951   2709     1
    951    962     1
    954   2711     1
    957   2784     1
    960   2713     1
    961   2786     1
    962   2711     1
    963   2784     1
    966    982     1
    966    979     1
    969    973     1
    969    976     1
    972    989     1
    972    986     1
    972    985     1
    973    979     1
    973    988     1
    973   2928     1
    976    982     1
    976   2855     1
    976    987     1
    979   2857     1
    982   2930     1
    985   2859     1
    986   2932     1
    987   2857     1
    988   2930     1
    991   1007     1
    991   1004     1
    994    998     1
    994   1001     1
    997   1014     1
    997   1011     1
    997   1010     1
    998   1004     1
    998   1013     1
    998   3074     1
   1001   1007     1
   1001   3001     1
   1001   1012     1
   1004   3003     1
   1007   3076     1
   1010   3005     1
   1011   3078     1
   1012   3003     1
   1013   3076     1
   1016   1032     1
   1016   1029     1
   1019   1023     1
   1019   1026     1
   1022   1039     1
   1022   1036     1
   1022   1035     1
   1023   1029     1
   1023   1038     1
   1023   3220     1
   1026   1032     1
   1026   3147     1
   1026   1037     1
   1029   3149     1
   1032   3222     1
   1035   3151     1
   1036   3224     1
   1037   3149     1
   1038   3222     1
   1041   1057     1
   1041   1054     1
   1044   1048     1
   1044   1051     1
   1047   1064     1
   1047   1061     1
   1047   1060     1
   1048   1054     1
   1048   1063     1
   1048   3366     1
   1051   1057     1
   1051   3293     1
   1051   1062     1
   1054   3295     1
   1057   3368     1
   1060   3297     1
   1061   3370     1
   1062   3295     1
   1063   3368     1
   1066   1082     1
   1066   1079     1
   1069   1073     1
   1069   1076     1
   1072   1089     1
   1072   1086     1
   1072   1085     1
   1073   1079     1
   1073   1088     1
   1073   3512     1
   1076   1082     1
   1076   3439     1
   1076   1087     1
   1079   3441     1
   1082   3514     1
   1085   3443     1
   1086   3516     1
   1087   3441     1
   1088   3514     1
   1091   1107     1
   1091   1104     1
   1094   1098     1
   1094   1101     1
   1097   1114     1
   1097   1111     1
   1097   1110     1
   1098   1104     1
   1098   1113     1
   1098   3658     1
   1101   1107     1
   1101   3585     1
   1101   1112     1
   1104   3587     1
   1107   3660     1
   1110   3589     1
   1111   3662     1
   1112   3587     1
   1113   3660     1
   1116   1132     1
   1116   1129     1
   1119   1123     1
   1119   1126     1
   1122   1139     1
   1122   1136     1
   1122   1135     1
   1123   1129     1
   1123   1138     1
   1123   3804     1
   1126   1132     1
   1126   3731     1
   1126   1137     1
   1129   3733     1
   1132   3806     1
   1135   3735     1
   1136   3808     1
   1137   3733     1
   1138   3806     1
   1141   1157     1
   1141   1154     1
   1144   1148     1
   1144   1151     1
   1147   1164     1
   1147   1161     1
   1147   1160     1
   1148   1154     1
   1148   1163     1
   1148   3950     1
   1151   1157     1
   1151   3877     1
   1151   1162     1
   1154   3879     1
   1157   3952     1
   1160   3881     1
   1161   3954     1
   1162   3879     1
   1163   3952     1
   1166   1182     1
   1166   1179     1
   1169   1173     1
   1169   1176     1
   1172   1189     1
   1172   1186     1
   1172   1185     1
   1173   1179     1
   1173   1188     1
   1173   4096     1
   1176   1182     1
   1176   4023     1
   1176   1187     1
   1179   4025     1
   1182   4098     1
   1185   4027     1
   1186   4100     1
   1187   4025     1
   1188   4098     1
   1191   1207     1
   1191   1204     1
   1194   1198     1
   1194   1201     1
   1197   1214     1
   1197   1211     1
   1197   1210     1
   1198   1204     1
   1198   1213     1
   1198   4242     1
   1201   1207     1
   1201   4169     1
   1201   1212     1
   1204   4171     1
   1207   4244     1
   1210   4173     1
   1211   4246     1
   1212   4171     1
   1213   4244     1
   1216   1232     1
   1216   1229     1
   1219   1223     1
   1219   1226     1
   1222   1239     1
   1222   1236     1
   1222   1235     1
   1223   1229     1
   1223   1238     1
   1223   4388     1
   1226   1232     1
   1226   4315     1
   1226   1237     1
   1229   4317     1
   1232   4390     1
   1235   4319     1
   1236   4392     1
   1237   4317     1
   1238   4390     1
   1241   1257     1
   1241   1254     1
   1244   1248     1
   1244   1251     1
   1247   1264     1
   1247   1261     1
   1247   1260     1
   1248   1254     1
   1248   1263     1
   1248   4534     1
   1251   1257     1
   1251   4461     1
   1251   1262     1
   1254   4463     1
   1257   4536     1
   1260   4465     1
   1261   4538     1
   1262   4463     1
   1263   4536     1
   1266   1282     1
   1266   1279     1
   1269   1273     1
   1269   1276     1
   1272   1289     1
   1272   1286     1
   1272   1285     1
   1273   1279     1
   1273   1288     1
   1273   4680     1
   1276   1282     1
   1276   4607     1
   1276   1287     1
   1279   4609     1
   1282   4682     1
   1285   4611     1
   1286   4684     1
   1287   4609     1
   1288   4682     1
   1291   1307     1
   1291   1304     1
   1294   1298     1
   1294   1301     1
   1297   1314     1
   1297   1311     1
   1297   1310     1
   1298   1304     1
   1298   1313     1
   1298   4826     1
   1301   1307     1
   1301   4753     1
   1301   1312     1
   1304   4755     1
   1307   4828     1
   1310   4757     1
   1311   4830     1
   1312   4755     1
   1313   4828     1
   1316   1332     1
   1316   1329     1
   1319   1323     1
   1319   1326     1
   1322   1339     1
   1322   1336     1
   1322   1335     1
   1323   1329     1
   1323   1338     1
   1323   4972     1
   1326   1332     1
   1326   4899     1
   1326   1337     1
   1329   4901     1
   1332   4974     1
   1335   4903     1
   1336   4976     1
   1337   4901     1
   1338   4974     1
   1341   1357     1
   1341   1354     1
   1344   1348     1
   1344   1351     1
   1347   1364     1
   1347   1361     1
   1347   1360     1
   1348   1354     1
   1348   1363     1
   1348   5118     1
   1351   1357     1
   1351   5045     1
   1351   1362     1
   1354   5047     1
   1357   5120     1
   1360   5049     1
   1361   5122     1
   1362   5047     1
   1363   5120     1
   1366   1382     1
   1366   1379     1
   1369   1373     1
   1369   1376     1
   1372   1389     1
   1372   1386     1
   1372   1385     1
   1373   1379     1
   1373   1388     1
   1373   5264     1
   1376   1382     1
   1376   5191     1
   1376   1387     1
   1379   5193     1
   1382   5266     1
   1385   5195     1
   1386   5268     1
   1387   5193     1
   1388   5266     1
   1391   1407     1
   1391   1404     1
   1394   1398     1
   1394   1401     1
   1397   1414     1
   1397   1411     1
   1397   1410     1
   1398   1404     1
   1398   1413     1
   1398   5410     1
   1401   1407     1
   1401   5337     1
   1401   1412     1
   1404   5339     1
   1407   5412     1
   1410   5341     1
   1411   5414     1
   1412   5339     1
   1413   5412     1
   1416   1432     1
   1416   1429     1
   1419   1423     1
   1419   1426     1
   1422   1439     1
   1422   1436     1
   1422   1435     1
   1423   1429     1
   1423   1438     1
   1423   5556     1
   1426   1432     1
   1426   5483     1
   1426   1437     1
   1429   5485     1
   1432   5558     1
   1435   5487     1
   1436   5560     1
   1437   5485     1
   1438   5558     1
   1441   1457     1
   1441   1454     1
   1444   1448     1
   1444   1451     1
   1447   1464     1
   1447   1461     1
   1447   1460     1
   1448   1454     1
   1448   1463     1
   1448   5702     1
   1451   1457     1
   1451   5629     1
   1451   1462     1
   1454   5631     1
   1457   5704     1
   1460   5633     1
   1461   5706     1
   1462   5631     1
   1463   5704     1
   1466   1482     1
   1466   1479     1
   1469   1473     1
   1469   1476     1
   1472   1489     1
   1472   1486     1
   1472   1485     1
   1473   1479     1
   1473   1488     1
   1473   5848     1
   1476   1482     1
   1476   5775     1
   1476   1487     1
   1479   5777     1
   1482   5850     1
   1485   5779     1
   1486   5852     1
   1487   5777     1
   1488   5850     1
   1491   1507     1
   1491   1504     1
   1494   1498     1
   1494   1501     1
   1497   1514     1
   1497   1511     1
   1497   1510     1
   1498   1504     1
   1498   1513     1
   1498   5994     1
   1501   1507     1
   1501   5921     1
   1501   1512     1
   1504   5923     1
   1507   5996     1
   1510   5925     1
   1511   5998     1
   1512   5923     1
   1513   5996     1
   1516   1532     1
   1516   1529     1
   1519   1523     1
   1519   1526     1
   1522   1539     1
   1522   1536     1
   1522   1535     1
   1523   1529     1
   1523   6140     1
   1523   1538     1
   1526   1532     1
   1526   6067     1
   1526   1537     1
   1529   6069     1
   1532   6142     1
   1535   6071     1
   1536   6144     1
   1537   6069     1
   1538   6142     1
   1541   1549     1
   1543   1550     1
   1543   1551     1
   1545   1561     1
   1545   1553     1
   1549   1564     1
   1549   1557     1
   1550   1553     1
   1550   1565     1
   1550   1613     1
   1551   1561     1
   1551   1558     1
   1551   1589     1
   1553   1570     1
   1557   1569     1
   1557   1571     1
   1558   1570     1
   1561   1594     1
   1564   1593     1
   1564   1595     1
   1565   1594     1
   1566   1570     1
   1566   1576     1
   1566   1575     1
   1567   1582     1
   1567   1571     1
   1567   1589     1
   1569   1577     1
   1569   1584     1
   1569   1575     1
   1570   1587     1
   1571   1576     1
   1571   1577     1
   1575   1589     1
   1576   1587     1
   1576   1589     1
   1577   1587     1
   1582   1584     1
   1584   1587     1
   1584   1589     1
   1590   1594     1
   1590   1600     1
   1590   1599     1
   1591   1606     1
   1591   1595     1
   1591   1613     1
   1593   1601     1
   1593   1608     1
   1593   1599     1
   1594   1611     1
   1595   1600     1
   1595   1601     1
   1599   1613     1
   1600   1611     1
   1600   1613     1
   1601   1611     1
   1606   1608     1
   1608   1611     1
   1608   1613     1
   1614   1622     1
   1616   1623     1
   1616   1624     1
   1618   1634     1
   1618   1626     1
   1622   1637     1
   1622   1630     1
   1623   1638     1
   1623   1686     1
   1623   1626     1
   1624   1631     1
   1624   1662     1
   1624   1634     1
   1626   1643     1
   1630   1644     1
   1630   1642     1
   1631   1643     1
   1634   1667     1
   1637   1668     1
   1637   1666     1
   1638   1667     1
   1639   1643     1
   1639   1649     1
   1639   1648     1
   1640   1644     1
   1640   1662     1
   1640   1655     1
   1642   1648     1
   1642   1657     1
   1642   1650     1
   1643   1660     1
   1644   1650     1
   1644   1649     1
   1648   1662     1
   1649   1662     1
   1649   1660     1
   1650   1660     1
   1655   1657     1
   1657   1662     1
   1657   1660     1
   1663   1667     1
   1663   1673     1
   1663   1672     1
   1664   1668     1
   1664   1686     1
   1664   1679     1
   1666   1672     1
   1666   1681     1
   1666   1674     1
   1667   1684     1
   1668   1674     1
   1668   1673     1
   1672   1686     1
   1673   1686     1
   1673   1684     1
   1674   1684     1
   1679   1681     1
   1681   1686     1
   1681   1684     1
   1687   1695     1
   1689   1696     1
   1689   1697     1
   1691   1707     1
   1691   1699     1
   1695   1710     1
   1695   1703     1
   1696   1699     1
   1696   1711     1
   1696   1759     1
   1697   1707     1
   1697   1704     1
   1697   1735     1
   1699   1716     1
   1703   1715     1
   1703   1717     1
   1704   1716     1
   1707   1740     1
   1710   1739     1
   1710   1741     1
   1711   1740     1
   1712   1716     1
   1712   1722     1
   1712   1721     1
   1713   1728     1
   1713   1717     1
   1713   1735     1
   1715   1723     1
   1715   1730     1
   1715   1721     1
   1716   1733     1
   1717   1722     1
   1717   1723     1
   1721   1735     1
   1722   1733     1
   1722   1735     1
   1723   1733     1
   1728   1730     1
   1730   1733     1
   1730   1735     1
   1736   1740     1
   1736   1746     1
   1736   1745     1
   1737   1752     1
   1737   1741     1
   1737   1759     1
   1739   1747     1
   1739   1754     1
   1739   1745     1
   1740   1757     1
   1741   1746     1
   1741   1747     1
   1745   1759     1
   1746   1757     1
   1746   1759     1
   1747   1757     1
   1752   1754     1
   1754   1757     1
   1754   1759     1
   1760   1768     1
   1762   1769     1
   1762   1770     1
   1764   1780     1
   1764   1772     1
   1768   1783     1
   1768   1776     1
   1769   1784     1
   1769   1832     1
   1769   1772     1
   1770   1777     1
   1770   1808     1
   1770   1780     1
   1772   1789     1
   1776   1790     1
   1776   1788     1
   1777   1789     1
   1780   1813     1
   1783   1814     1
   1783   1812     1
   1784   1813     1
   1785   1789     1
   1785   1795     1
   1785   1794     1
   1786   1790     1
   1786   1808     1
   1786   1801     1
   1788   1794     1
   1788   1803     1
   1788   1796     1
   1789   1806     1
   1790   1796     1
   1790   1795     1
   1794   1808     1
   1795   1808     1
   1795   1806     1
   1796   1806     1
   1801   1803     1
   1803   1808     1
   1803   1806     1
   1809   1813     1
   1809   1819     1
   1809   1818     1
   1810   1814     1
   1810   1832     1
   1810   1825     1
   1812   1818     1
   1812   1827     1
   1812   1820     1
   1813   1830     1
   1814   1820     1
   1814   1819     1
   1818   1832     1
   1819   1832     1
   1819   1830     1
   1820   1830     1
   1825   1827     1
   1827   1832     1
   1827   1830     1
   1833   1841     1
   1835   1842     1
   1835   1843     1
   1837   1853     1
   1837   1845     1
   1841   1856     1
   1841   1849     1
   1842   1845     1
   1842   1857     1
   1842   1905     1
   1843   1853     1
   1843   1850     1
   1843   1881     1
   1845   1862     1
   1849   1861     1
   1849   1863     1
   1850   1862     1
   1853   1886     1
   1856   1885     1
   1856   1887     1
   1857   1886     1
   1858   1862     1
   1858   1868     1
   1858   1867     1
   1859   1874     1
   1859   1863     1
   1859   1881     1
   1861   1869     1
   1861   1876     1
   1861   1867     1
   1862   1879     1
   1863   1868     1
   1863   1869     1
   1867   1881     1
   1868   1879     1
   1868   1881     1
   1869   1879     1
   1874   1876     1
   1876   1879     1
   1876   1881     1
   1882   1886     1
   1882   1892     1
   1882   1891     1
   1883   1898     1
   1883   1887     1
   1883   1905     1
   1885   1893     1
   1885   1900     1
   1885   1891     1
   1886   1903     1
   1887   1892     1
   1887   1893     1
   1891   1905     1
   1892   1903     1
   1892   1905     1
   1893   1903     1
   1898   1900     1
   1900   1903     1
   1900   1905     1
   1906   1914     1
   1908   1915     1
   1908   1916     1
   1910   1926     1
   1910   1918     1
   1914   1929     1
   1914   1922     1
   1915   1930     1
   1915   1978     1
   1915   1918     1
   1916   1923     1
   1916   1954     1
   1916   1926     1
   1918   1935     1
   1922   1936     1
   1922   1934     1
   1923   1935     1
   1926   1959     1
   1929   1960     1
   1929   1958     1
   1930   1959     1
   1931   1935     1
   1931   1941     1
   1931   1940     1
   1932   1936     1
   1932   1954     1
   1932   1947     1
   1934   1940     1
   1934   1949     1
   1934   1942     1
   1935   1952     1
   1936   1942     1
   1936   1941     1
   1940   1954     1
   1941   1954     1
   1941   1952     1
   1942   1952     1
   1947   1949     1
   1949   1954     1
   1949   1952     1
   1955   1959     1
   1955   1965     1
   1955   1964     1
   1956   1960     1
   1956   1978     1
   1956   1971     1
   1958   1964     1
   1958   1973     1
   1958   1966     1
   1959   1976     1
   1960   1966     1
   1960   1965     1
   1964   1978     1
   1965   1978     1
   1965   1976     1
   1966   1976     1
   1971   1973     1
   1973   1978     1
   1973   1976     1
   1979   1987     1
   1981   1988     1
   1981   1989     1
   1983   1999     1
   1983   1991     1
   1987   2002     1
   1987   1995     1
   1988   1991     1
   1988   2003     1
   1988   2051     1
   1989   1999     1
   1989   1996     1
   1989   2027     1
   1991   2008     1
   1995   2007     1
   1995   2009     1
   1996   2008     1
   1999   2032     1
   2002   2031     1
   2002   2033     1
   2003   2032     1
   2004   2008     1
   2004   2014     1
   2004   2013     1
   2005   2020     1
   2005   2009     1
   2005   2027     1
   2007   2015     1
   2007   2022     1
   2007   2013     1
   2008   2025     1
   2009   2014     1
   2009   2015     1
   2013   2027     1
   2014   2025     1
   2014   2027     1
   2015   2025     1
   2020   2022     1
   2022   2025     1
   2022   2027     1
   2028   2032     1
   2028   2038     1
   2028   2037     1
   2029   2044     1
   2029   2033     1
   2029   2051     1
   2031   2039     1
   2031   2046     1
   2031   2037     1
   2032   2049     1
   2033   2038     1
   2033   2039     1
   2037   2051     1
   2038   2049     1
   2038   2051     1
   2039   2049     1
   2044   2046     1
   2046   2049     1
   2046   2051     1
   2052   2060     1
   2054   2061     1
   2054   2062     1
   2056   2072     1
   2056   2064     1
   2060   2075     1
   2060   2068     1
   2061   2076     1
   2061   2124     1
   2061   2064     1
   2062   2069     1
   2062   2100     1
   2062   2072     1
   2064   2081     1
   2068   2082     1
   2068   2080     1
   2069   2081     1
   2072   2105     1
   2075   2106     1
   2075   2104     1
   2076   2105     1
   2077   2081     1
   2077   2087     1
   2077   2086     1
   2078   2082     1
   2078   2100     1
   2078   2093     1
   2080   2086     1
   2080   2095     1
   2080   2088     1
   2081   2098     1
   2082   2088     1
   2082   2087     1
   2086   2100     1
   2087   2100     1
   2087   2098     1
   2088   2098     1
   2093   2095     1
   2095   2100     1
   2095   2098     1
   2101   2105     1
   2101   2111     1
   2101   2110     1
   2102   2106     1
   2102   2124     1
   2102   2117     1
   2104   2110     1
   2104   2119     1
   2104   2112     1
   2105   2122     1
   2106   2112     1
   2106   2111     1
   2110   2124     1
   2111   2124     1
   2111   2122     1
   2112   2122     1
   2117   2119     1
   2119   2124     1
   2119   2122     1
   2125   2133     1
   2127   2134     1
   2127   2135     1
   2129   2145     1
   2129   2137     1
   2133   2148     1
   2133   2141     1
   2134   2137     1
   2134   2149     1
   2134   2197     1
   2135   2145     1
   2135   2142     1
   2135   2173     1
   2137   2154     1
   2141   2153     1
   2141   2155     1
   2142   2154     1
   2145   2178     1
   2148   2177     1
   2148   2179     1
   2149   2178     1
   2150   2154     1
   2150   2160     1
   2150   2159     1
   2151   2166     1
   2151   2155     1
   2151   2173     1
   2153   2161     1
   2153   2168     1
   2153   2159     1
   2154   2171     1
   2155   2160     1
   2155   2161     1
   2159   2173     1
   2160   2171     1
   2160   2173     1
   2161   2171     1
   2166   2168     1
   2168   2171     1
   2168   2173     1
   2174   2178     1
   2174   2184     1
   2174   2183     1
   2175   2190     1
   2175   2179     1
   2175   2197     1
   2177   2185     1
   2177   2192     1
   2177   2183     1
   2178   2195     1
   2179   2184     1
   2179   2185     1
   2183   2197     1
   2184   2195     1
   2184   2197     1
   2185   2195     1
   2190   2192     1
   2192   2195     1
   2192   2197     1
   2198   2206     1
   2200   2207     1
   2200   2208     1
   2202   2218     1
   2202   2210     1
   2206   2221     1
   2206   2214     1
   2207   2222     1
   2207   2270     1
   2207   2210     1
   2208   2215     1
   2208   2246     1
   2208   2218     1
   2210   2227     1
   2214   2228     1
   2214   2226     1
   2215   2227     1
   2218   2251     1
   2221   2252     1
   2221   2250     1
   2222   2251     1
   2223   2227     1
   2223   2233     1
   2223   2232     1
   2224   2228     1
   2224   2246     1
   2224   2239     1
   2226   2232     1
   2226   2241     1
   2226   2234     1
   2227   2244     1
   2228   2234     1
   2228   2233     1
   2232   2246     1
   2233   2246     1
   2233   2244     1
   2234   2244     1
   2239   2241     1
   2241   2246     1
   2241   2244     1
   2247   2251     1
   2247   2257     1
   2247   2256     1
   2248   2252     1
   2248   2270     1
   2248   2263     1
   2250   2256     1
   2250   2265     1
   2250   2258     1
   2251   2268     1
   2252   2258     1
   2252   2257     1
   2256   2270     1
   2257   2270     1
   2257   2268     1
   2258   2268     1
   2263   2265     1
   2265   2270     1
   2265   2268     1
   2271   2279     1
   2273   2280     1
   2273   2281     1
   2275   2291     1
   2275   2283     1
   2279   2294     1
   2279   2287     1
   2280   2283     1
   2280   2295     1
   2280   2343     1
   2281   2291     1
   2281   2288     1
   2281   2319     1
   2283   2300     1
   2287   2299     1
   2287   2301     1
   2288   2300     1
   2291   2324     1
   2294   2323     1
   2294   2325     1
   2295   2324     1
   2296   2300     1
   2296   2306     1
   2296   2305     1
   2297   2312     1
   2297   2301     1
   2297   2319     1
   2299   2307     1
   2299   2314     1
   2299   2305     1
   2300   2317     1
   2301   2306     1
   2301   2307     1
   2305   2319     1
   2306   2317     1
   2306   2319     1
   2307   2317     1
   2312   2314     1
   2314   2317     1
   2314   2319     1
   2320   2324     1
   2320   2330     1
   2320   2329     1
   2321   2336     1
   2321   2325     1
   2321   2343     1
   2323   2331     1
   2323   2338     1
   2323   2329     1
   2324   2341     1
   2325   2330     1
   2325   2331     1
   2329   2343     1
   2330   2341     1
   2330   2343     1
   2331   2341     1
   2336   2338     1
   2338   2341     1
   2338   2343     1
   2344   2352     1
   2346   2353     1
   2346   2354     1
   2348   2364     1
   2348   2356     1
   2352   2367     1
   2352   2360     1
   2353   2368     1
   2353   2416     1
   2353   2356     1
   2354   2361     1
   2354   2392     1
   2354   2364     1
   2356   2373     1
   2360   2374     1
   2360   2372     1
   2361   2373     1
   2364   2397     1
   2367   2398     1
   2367   2396     1
   2368   2397     1
   2369   2373     1
   2369   2379     1
   2369   2378     1
   2370   2374     1
   2370   2392     1
   2370   2385     1
   2372   2378     1
   2372   2387     1
   2372   2380     1
   2373   2390     1
   2374   2380     1
   2374   2379     1
   2378   2392     1
   2379   2392     1
   2379   2390     1
   2380   2390     1
   2385   2387     1
   2387   2392     1
   2387   2390     1
   2393   2397     1
   2393   2403     1
   2393   2402     1
   2394   2398     1
   2394   2416     1
   2394   2409     1
   2396   2402     1
   2396   2411     1
   2396   2404     1
   2397   2414     1
   2398   2404     1
   2398   2403     1
   2402   2416     1
   2403   2416     1
   2403   2414     1
   2404   2414     1
   2409   2411     1
   2411   2416     1
   2411   2414     1
   2417   2425     1
   2419   2426     1
   2419   2427     1
   2421   2437     1
   2421   2429     1
   2425   2440     1
   2425   2433     1
   2426   2429     1
   2426   2441     1
   2426   2489     1
   2427   2437     1
   2427   2434     1
   2427   2465     1
   2429   2446     1
   2433   2445     1
   2433   2447     1
   2434   2446     1
   2437   2470     1
   2440   2469     1
   2440   2471     1
   2441   2470     1
   2442   2446     1
   2442   2452     1
   2442   2451     1
   2443   2458     1
   2443   2447     1
   2443   2465     1
   2445   2453     1
   2445   2460     1
   2445   2451     1
   2446   2463     1
   2447   2452     1
   2447   2453     1
   2451   2465     1
   2452   2463     1
   2452   2465     1
   2453   2463     1
   2458   2460     1
   2460   2463     1
   2460   2465     1
   2466   2470     1
   2466   2476     1
   2466   2475     1
   2467   2482     1
   2467   2471     1
   2467   2489     1
   2469   2477     1
   2469   2484     1
   2469   2475     1
   2470   2487     1
   2471   2476     1
   2471   2477     1
   2475   2489     1
   2476   2487     1
   2476   2489     1
   2477   2487     1
   2482   2484     1
   2484   2487     1
   2484   2489     1
   2490   2498     1
   2492   2499     1
   2492   2500     1
   2494   2510     1
   2494   2502     1
   2498   2513     1
   2498   2506     1
   2499   2514     1
   2499   2562     1
   2499   2502     1
   2500   2507     1
   2500   2538     1
   2500   2510     1
   2502   2519     1
   2506   2520     1
   2506   2518     1
   2507   2519     1
   2510   2543     1
   2513   2544     1
   2513   2542     1
   2514   2543     1
   2515   2519     1
   2515   2525     1
   2515   2524     1
   2516   2520     1
   2516   2538     1
   2516   2531     1
   2518   2524     1
   2518   2533     1
   2518   2526     1
   2519   2536     1
   2520   2526     1
   2520   2525     1
   2524   2538     1
   2525   2538     1
   2525   2536     1
   2526   2536     1
   2531   2533     1
   2533   2538     1
   2533   2536     1
   2539   2543     1
   2539   2549     1
   2539   2548     1
   2540   2544     1
   2540   2562     1
   2540   2555     1
   2542   2548     1
   2542   2557     1
   2542   2550     1
   2543   2560     1
   2544   2550     1
   2544   2549     1
   2548   2562     1
   2549   2562     1
   2549   2560     1
   2550   2560     1
   2555   2557     1
   2557   2562     1
   2557   2560     1
   2563   2571     1
   2565   2572     1
   2565   2573     1
   2567   2583     1
   2567   2575     1
   2571   2586     1
   2571   2579     1
   2572   2575     1
   2572   2587     1
   2572   2635     1
   2573   2583     1
   2573   2580     1
   2573   2611     1
   2575   2592     1
   2579   2591     1
   2579   2593     1
   2580   2592     1
   2583   2616     1
   2586   2615     1
   2586   2617     1
   2587   2616     1
   2588   2592     1
   2588   2598     1
   2588   2597     1
   2589   2604     1
   2589   2593     1
   2589   2611     1
   2591   2599     1
   2591   2606     1
   2591   2597     1
   2592   2609     1
   2593   2598     1
   2593   2599     1
   2597   2611     1
   2598   2609     1
   2598   2611     1
   2599   2609     1
   2604   2606     1
   2606   2609     1
   2606   2611     1
   2612   2616     1
   2612   2622     1
   2612   2621     1
   2613   2628     1
   2613   2617     1
   2613   2635     1
   2615   2623     1
   2615   2630     1
   2615   2621     1
   2616   2633     1
   2617   2622     1
   2617   2623     1
   2621   2635     1
   2622   2633     1
   2622   2635     1
   2623   2633     1
   2628   2630     1
   2630   2633     1
   2630   2635     1
   2636   2644     1
   2638   2645     1
   2638   2646     1
   2640   2656     1
   2640   2648     1
   2644   2659     1
   2644   2652     1
   2645   2660     1
   2645   2708     1
   2645   2648     1
   2646   2653     1
   2646   2684     1
   2646   2656     1
   2648   2665     1
   2652   2666     1
   2652   2664     1
   2653   2665     1
   2656   2689     1
   2659   2690     1
   2659   2688     1
   2660   2689     1
   2661   2665     1
   2661   2671     1
   2661   2670     1
   2662   2666     1
   2662   2684     1
   2662   2677     1
   2664   2670     1
   2664   2679     1
   2664   2672     1
   2665   2682     1
   2666   2672     1
   2666   2671     1
   2670   2684     1
   2671   2684     1
   2671   2682     1
   2672   2682     1
   2677   2679     1
   2679   2684     1
   2679   2682     1
   2685   2689     1
   2685   2695     1
   2685   2694     1
   2686   2690     1
   2686   2708     1
   2686   2701     1
   2688   2694     1
   2688   2703     1
   2688   2696     1
   2689   2706     1
   2690   2696     1
   2690   2695     1
   2694   2708     1
   2695   2708     1
   2695   2706     1
   2696   2706     1
   2701   2703     1
   2703   2708     1
   2703   2706     1
   2709   2717     1
   2711   2718     1
   2711   2719     1
   2713   2729     1
   2713   2721     1
   2717   2732     1
   2717   2725     1
   2718   2721     1
   2718   2733     1
   2718   2781     1
   2719   2729     1
   2719   2726     1
   2719   2757     1
   2721   2738     1
   2725   2737     1
   2725   2739     1
   2726   2738     1
   2729   2762     1
   2732   2761     1
   2732   2763     1
   2733   2762     1
   2734   2738     1
   2734   2744     1
   2734   2743     1
   2735   2750     1
   2735   2739     1
   2735   2757     1
   2737   2745     1
   2737   2752     1
   2737   2743     1
   2738   2755     1
   2739   2744     1
   2739   2745     1
   2743   2757     1
   2744   2755     1
   2744   2757     1
   2745   2755     1
   2750   2752     1
   2752   2755     1
   2752   2757     1
   2758   2762     1
   2758   2768     1
   2758   2767     1
   2759   2774     1
   2759   2763     1
   2759   2781     1
   2761   2769     1
   2761   2776     1
   2761   2767     1
   2762   2779     1
   2763   2768     1
   2763   2769     1
   2767   2781     1
   2768   2779     1
   2768   2781     1
   2769   2779     1
   2774   2776     1
   2776   2779     1
   2776   2781     1
   2782   2790     1
   2784   2791     1
   2784   2792     1
   2786   2802     1
   2786   2794     1
   2790   2805     1
   2790   2798     1
   2791   2806     1
   2791   2854     1
   2791   2794     1
   2792   2799     1
   2792   2830     1
   2792   2802     1
   2794   2811     1
   2798   2812     1
   2798   2810     1
   2799   2811     1
   2802   2835     1
   2805   2836     1
   2805   2834     1
   2806   2835     1
   2807   2811     1
   2807   2817     1
   2807   2816     1
   2808   2812     1
   2808   2830     1
   2808   2823     1
   2810   2816     1
   2810   2825     1
   2810   2818     1
   2811   2828     1
   2812   2818     1
   2812   2817     1
   2816   2830     1
   2817   2830     1
   2817   2828     1
   2818   2828     1
   2823   2825     1
   2825   2830     1
   2825   2828     1
   2831   2835     1
   2831   2841     1
   2831   2840     1
   2832   2836     1
   2832   2854     1
   2832   2847     1
   2834   2840     1
   2834   2849     1
   2834   2842     1
   2835   2852     1
   2836   2842     1
   2836   2841     1
   2840   2854     1
   2841   2854     1
   2841   2852     1
   2842   2852     1
   2847   2849     1
   2849   2854     1
   2849   2852     1
   2855   2863     1
   2857   2864     1
   2857   2865     1
   2859   2875     1
   2859   2867     1
   2863   2878     1
   2863   2871     1
   2864   2867     1
   2864   2879     1
   2864   2927     1
   2865   2875     1
   2865   2872     1
   2865   2903     1
   2867   2884     1
   2871   2883     1
   2871   2885     1
   2872   2884     1
   2875   2908     1
   2878   2907     1
   2878   2909     1
   2879   2908     1
   2880   2884     1
   2880   2890     1
   2880   2889     1
   2881   2896     1
   2881   2885     1
   2881   2903     1
   2883   2891     1
   2883   2898     1
   2883   2889     1
   2884   2901     1
   2885   2890     1
   2885   2891     1
   2889   2903     1
   2890   2901     1
   2890   2903     1
   2891   2901     1
   2896   2898     1
   2898   2901     1
   2898   2903     1
   2904   2908     1
   2904   2914     1
   2904   2913     1
   2905   2920     1
   2905   2909     1
   2905   2927     1
   2907   2915     1
   2907   2922     1
   2907   2913     1
   2908   2925     1
   2909   2914     1
   2909   2915     1
   2913   2927     1
   2914   2925     1
   2914   2927     1
   2915   2925     1
   2920   2922     1
   2922   2925     1
   2922   2927     1
   2928   2936     1
   2930   2937     1
   2930   2938     1
   2932   2948     1
   2932   2940     1
   2936   2951     1
   2936   2944     1
   2937   2952     1
   2937   3000     1
   2937   2940     1
   2938   2945     1
   2938   2976     1
   2938   2948     1
   2940   2957     1
   2944   2958     1
   2944   2956     1
   2945   2957     1
   2948   2981     1
   2951   2982     1
   2951   2980     1
   2952   2981     1
   2953   2957     1
   2953   2963     1
   2953   2962     1
   2954   2958     1
   2954   2976     1
   2954   2969     1
   2956   2962     1
   2956   2971     1
   2956   2964     1
   2957   2974     1
   2958   2964     1
   2958   2963     1
   2962   2976     1
   2963   2976     1
   2963   2974     1
   2964   2974     1
   2969   2971     1
   2971   2976     1
   2971   2974     1
   2977   2981     1
   2977   2987     1
   2977   2986     1
   2978   2982     1
   2978   3000     1
   2978   2993     1
   2980   2986     1
   2980   2995     1
   2980   2988     1
   2981   2998     1
   2982   2988     1
   2982   2987     1
   2986   3000     1
   2987   3000     1
   2987   2998     1
   2988   2998     1
   2993   2995     1
   2995   3000     1
   2995   2998     1
   3001   3009     1
   3003   3010     1
   3003   3011     1
   3005   3021     1
   3005   3013     1
   3009   3024     1
   3009   3017     1
   3010   3013     1
   3010   3025     1
   3010   3073     1
   3011   3021     1
   3011   3018     1
   3011   3049     1
   3013   3030     1
   3017   3029     1
   3017   3031     1
   3018   3030     1
   3021   3054     1
   3024   3053     1
   3024   3055     1
   3025   3054     1
   3026   3030     1
   3026   3036     1
   3026   3035     1
   3027   3042     1
   3027   3031     1
   3027   3049     1
   3029   3037     1
   3029   3044     1
   3029   3035     1
   3030   3047     1
   3031   3036     1
   3031   3037     1
   3035   3049     1
   3036   3047     1
   3036   3049     1
   3037   3047     1
   3042   3044     1
   3044   3047     1
   3044   3049     1
   3050   3054     1
   3050   3060     1
   3050   3059     1
   3051   3066     1
   3051   3055     1
   3051   3073     1
   3053   3061     1
   3053   3068     1
   3053   3059     1
   3054   3071     1
   3055   3060     1
   3055   3061     1
   3059   3073     1
   3060   3071     1
   3060   3073     1
   3061   3071     1
   3066   3068     1
   3068   3071     1
   3068   3073     1
   3074   3082     1
   3076   3083     1
   3076   3084     1
   3078   3094     1
   3078   3086     1
   3082   3097     1
   3082   3090     1
   3083   3098     1
   3083   3146     1
   3083   3086     1
   3084   3091     1
   3084   3122     1
   3084   3094     1
   3086   3103     1
   3090   3104     1
   3090   3102     1
   3091   3103     1
   3094   3127     1
   3097   3128     1
   3097   3126     1
   3098   3127     1
   3099   3103     1
   3099   3109     1
   3099   3108     1
   3100   3104     1
   3100   3122     1
   3100   3115     1
   3102   3108     1
   3102   3117     1
   3102   3110     1
   3103   3120     1
   3104   3110     1
   3104   3109     1
   3108   3122     1
   3109   3122     1
   3109   3120     1
   3110   3120     1
   3115   3117     1
   3117   3122     1
   3117   3120     1
   3123   3127     1
   3123   3133     1
   3123   3132     1
   3124   3128     1
   3124   3146     1
   3124   3139     1
   3126   3132     1
   3126   3141     1
   3126   3134     1
   3127   3144     1
   3128   3134     1
   3128   3133     1
   3132   3146     1
   3133   3146     1
   3133   3144     1
   3134   3144     1
   3139   3141     1
   3141   3146     1
   3141   3144     1
   3147   3155     1
   3149   3156     1
   3149   3157     1
   3151   3167     1
   3151   3159     1
   3155   3170     1
   3155   3163     1
   3156   3159     1
   3156   3171     1
   3156   3219     1
   3157   3167     1
   3157   3164     1
   3157   3195     1
   3159   3176     1
   3163   3175     1
   3163   3177     1
   3164   3176     1
   3167   3200     1
   3170   3199     1
   3170   3201     1
   3171   3200     1
   3172   3176     1
   3172   3182     1
   3172   3181     1
   3173   3188     1
   3173   3177     1
   3173   3195     1
   3175   3183     1
   3175   3190     1
   3175   3181     1
   3176   3193     1
   3177   3182     1
   3177   3183     1
   3181   3195     1
   3182   3193     1
   3182   3195     1
   3183   3193     1
   3188   3190     1
   3190   3193     1
   3190   3195     1
   3196   3200     1
   3196   3206     1
   3196   3205     1
   3197   3212     1
   3197   3201     1
   3197   3219     1
   3199   3207     1
   3199   3214     1
   3199   3205     1
   3200   3217     1
   3201   3206     1
   3201   3207     1
   3205   3219     1
   3206   3217     1
   3206   3219     1
   3207   3217     1
   3212   3214     1
   3214   3217     1
   3214   3219     1
   3220   3228     1
   3222   3229     1
   3222   3230     1
   3224   3240     1
   3224   3232     1
   3228   3243     1
   3228   3236     1
   3229   3244     1
   3229   3292     1
   3229   3232     1
   3230   3237     1
   3230   3268     1
   3230   3240     1
   3232   3249     1
   3236   3250     1
   3236   3248     1
   3237   3249     1
   3240   3273     1
   3243   3274     1
   3243   3272     1
   3244   3273     1
   3245   3249     1
   3245   3255     1
   3245   3254     1
   3246   3250     1
   3246   3268     1
   3246   3261     1
   3248   3254     1
   3248   3263     1
   3248   3256     1
   3249   3266     1
   3250   3256     1
   3250   3255     1
   3254   3268     1
   3255   3268     1
   3255   3266     1
   3256   3266     1
   3261   3263     1
   3263   3268     1
   3263   3266     1
   3269   3273     1
   3269   3279     1
   3269   3278     1
   3270   3274     1
   3270   3292     1
   3270   3285     1
   3272   3278     1
   3272   3287     1
   3272   3280     1
   3273   3290     1
   3274   3280     1
   3274   3279     1
   3278   3292     1
   3279   3292     1
   3279   3290     1
   3280   3290     1
   3285   3287     1
   3287   3292     1
   3287   3290     1
   3293   3301     1
   3295   3302     1
   3295   3303     1
   3297   3313     1
   3297   3305     1
   3301   3316     1
   3301   3309     1
   3302   3305     1
   3302   3317     1
   3302   3365     1
   3303   3313     1
   3303   3310     1
   3303   3341     1
   3305   3322     1
   3309   3321     1
   3309   3323     1
   3310   3322     1
   3313   3346     1
   3316   3345     1
   3316   3347     1
   3317   3346     1
   3318   3322     1
   3318   3328     1
   3318   3327     1
   3319   3334     1
   3319   3323     1
   3319   3341     1
   3321   3329     1
   3321   3336     1
   3321   3327     1
   3322   3339     1
   3323   3328     1
   3323   3329     1
   3327   3341     1
   3328   3339     1
   3328   3341     1
   3329   3339     1
   3334   3336     1
   3336   3339     1
   3336   3341     1
   3342   3346     1
   3342   3352     1
   3342   3351     1
   3343   3358     1
   3343   3347     1
   3343   3365     1
   3345   3353     1
   3345   3360     1
   3345   3351     1
   3346   3363     1
   3347   3352     1
   3347   3353     1
   3351   3365     1
   3352   3363     1
   3352   3365     1
   3353   3363     1
   3358   3360     1
   3360   3363     1
   3360   3365     1
   3366   3374     1
   3368   3375     1
   3368   3376     1
   3370   3386     1
   3370   3378     1
   3374   3389     1
   3374   3382     1
   3375   3390     1
   3375   3438     1
   3375   3378     1
   3376   3383     1
   3376   3414     1
   3376   3386     1
   3378   3395     1
   3382   3396     1
   3382   3394     1
   3383   3395     1
   3386   3419     1
   3389   3420     1
   3389   3418     1
   3390   3419     1
   3391   3395     1
   3391   3401     1
   3391   3400     1
   3392   3396     1
   3392   3414     1
   3392   3407     1
   3394   3400     1
   3394   3409     1
   3394   3402     1
   3395   3412     1
   3396   3402     1
   3396   3401     1
   3400   3414     1
   3401   3414     1
   3401   3412     1
   3402   3412     1
   3407   3409     1
   3409   3414     1
   3409   3412     1
   3415   3419     1
   3415   3425     1
   3415   3424     1
   3416   3420     1
   3416   3438     1
   3416   3431     1
   3418   3424     1
   3418   3433     1
   3418   3426     1
   3419   3436     1
   3420   3426     1
   3420   3425     1
   3424   3438     1
   3425   3438     1
   3425   3436     1
   3426   3436     1
   3431   3433     1
   3433   3438     1
   3433   3436     1
   3439   3447     1
   3441   3448     1
   3441   3449     1
   3443   3459     1
   3443   3451     1
   3447   3462     1
   3447   3455     1
   3448   3451     1
   3448   3463     1
   3448   3511     1
   3449   3459     1
   3449   3456     1
   3449   3487     1
   3451   3468     1
   3455   3467     1
   3455   3469     1
   3456   3468     1
   3459   3492     1
   3462   3491     1
   3462   3493     1
   3463   3492     1
   3464   3468     1
   3464   3474     1
   3464   3473     1
   3465   3480     1
   3465   3469     1
   3465   3487     1
   3467   3475     1
   3467   3482     1
   3467   3473     1
   3468   3485     1
   3469   3474     1
   3469   3475     1
   3473   3487     1
   3474   3485     1
   3474   3487     1
   3475   3485     1
   3480   3482     1
   3482   3485     1
   3482   3487     1
   3488   3492     1
   3488   3498     1
   3488   3497     1
   3489   3504     1
   3489   3493     1
   3489   3511     1
   3491   3499     1
   3491   3506     1
   3491   3497     1
   3492   3509     1
   3493   3498     1
   3493   3499     1
   3497   3511     1
   3498   3509     1
   3498   3511     1
   3499   3509     1
   3504   3506     1
   3506   3509     1
   3506   3511     1
   3512   3520     1
   3514   3521     1
   3514   3522     1
   3516   3532     1
   3516   3524     1
   3520   3535     1
   3520   3528     1
   3521   3536     1
   3521   3584     1
   3521   3524     1
   3522   3529     1
   3522   3560     1
   3522   3532     1
   3524   3541     1
   3528   3542     1
   3528   3540     1
   3529   3541     1
   3532   3565     1
   3535   3566     1
   3535   3564     1
   3536   3565     1
   3537   3541     1
   3537   3547     1
   3537   3546     1
   3538   3542     1
   3538   3560     1
   3538   3553     1
   3540   3546     1
   3540   3555     1
   3540   3548     1
   3541   3558     1
   3542   3548     1
   3542   3547     1
   3546   3560     1
   3547   3560     1
   3547   3558     1
   3548   3558     1
   3553   3555     1
   3555   3560     1
   3555   3558     1
   3561   3565     1
   3561   3571     1
   3561   3570     1
   3562   3566     1
   3562   3584     1
   3562   3577     1
   3564   3570     1
   3564   3579     1
   3564   3572     1
   3565   3582     1
   3566   3572     1
   3566   3571     1
   3570   3584     1
   3571   3584     1
   3571   3582     1
   3572   3582     1
   3577   3579     1
   3579   3584     1
   3579   3582     1
   3585   3593     1
   3587   3594     1
   3587   3595     1
   3589   3605     1
   3589   3597     1
   3593   3608     1
   3593   3601     1
   3594   3597     1
   3594   3609     1
   3594   3657     1
   3595   3605     1
   3595   3602     1
   3595   3633     1
   3597   3614     1
   3601   3613     1
   3601   3615     1
   3602   3614     1
   3605   3638     1
   3608   3637     1
   3608   3639     1
   3609   3638     1
   3610   3614     1
   3610   3620     1
   3610   3619     1
   3611   3626     1
   3611   3615     1
   3611   3633     1
   3613   3621     1
   3613   3628     1
   3613   3619     1
   3614   3631     1
   3615   3620     1
   3615   3621     1
   3619   3633     1
   3620   3631     1
   3620   3633     1
   3621   3631     1
   3626   3628     1
   3628   3631     1
   3628   3633     1
   3634   3638     1
   3634   3644     1
   3634   3643     1
   3635   3650     1
   3635   3639     1
   3635   3657     1
   3637   3645     1
   3637   3652     1
   3637   3643     1
   3638   3655     1
   3639   3644     1
   3639   3645     1
   3643   3657     1
   3644   3655     1
   3644   3657     1
   3645   3655     1
   3650   3652     1
   3652   3655     1
   3652   3657     1
   3658   3666     1
   3660   3667     1
   3660   3668     1
   3662   3678     1
   3662   3670     1
   3666   3681     1
   3666   3674     1
   3667   3682     1
   3667   3730     1
   3667   3670     1
   3668   3675     1
   3668   3706     1
   3668   3678     1
   3670   3687     1
   3674   3688     1
   3674   3686     1
   3675   3687     1
   3678   3711     1
   3681   3712     1
   3681   3710     1
   3682   3711     1
   3683   3687     1
   3683   3693     1
   3683   3692     1
   3684   3688     1
   3684   3706     1
   3684   3699     1
   3686   3692     1
   3686   3701     1
   3686   3694     1
   3687   3704     1
   3688   3694     1
   3688   3693     1
   3692   3706     1
   3693   3706     1
   3693   3704     1
   3694   3704     1
   3699   3701     1
   3701   3706     1
   3701   3704     1
   3707   3711     1
   3707   3717     1
   3707   3716     1
   3708   3712     1
   3708   3730     1
   3708   3723     1
   3710   3716     1
   3710   3725     1
   3710   3718     1
   3711   3728     1
   3712   3718     1
   3712   3717     1
   3716   3730     1
   3717   3730     1
   3717   3728     1
   3718   3728     1
   3723   3725     1
   3725   3730     1
   3725   3728     1
   3731   3739     1
   3733   3740     1
   3733   3741     1
   3735   3751     1
   3735   3743     1
   3739   3754     1
   3739   3747     1
   3740   3743     1
   3740   3755     1
   3740   3803     1
   3741   3751     1
   3741   3748     1
   3741   3779     1
   3743   3760     1
   3747   3759     1
   3747   3761     1
   3748   3760     1
   3751   3784     1
   3754   3783     1
   3754   3785     1
   3755   3784     1
   3756   3760     1
   3756   3766     1
   3756   3765     1
   3757   3772     1
   3757   3761     1
   3757   3779     1
   3759   3767     1
   3759   3774     1
   3759   3765     1
   3760   3777     1
   3761   3766     1
   3761   3767     1
   3765   3779     1
   3766   3777     1
   3766   3779     1
   3767   3777     1
   3772   3774     1
   3774   3777     1
   3774   3779     1
   3780   3784     1
   3780   3790     1
   3780   3789     1
   3781   3796     1
   3781   3785     1
   3781   3803     1
   3783   3791     1
   3783   3798     1
   3783   3789     1
   3784   3801     1
   3785   3790     1
   3785   3791     1
   3789   3803     1
   3790   3801     1
   3790   3803     1
   3791   3801     1
   3796   3798     1
   3798   3801     1
   3798   3803     1
   3804   3812     1
   3806   3813     1
   3806   3814     1
   3808   3824     1
   3808   3816     1
   3812   3827     1
   3812   3820     1
   3813   3828     1
   3813   3876     1
   3813   3816     1
   3814   3821     1
   3814   3852     1
   3814   3824     1
   3816   3833     1
   3820   3834     1
   3820   3832     1
   3821   3833     1
   3824   3857     1
   3827   3858     1
   3827   3856     1
   3828   3857     1
   3829   3833     1
   3829   3839     1
   3829   3838     1
   3830   3834     1
   3830   3852     1
   3830   3845     1
   3832   3838     1
   3832   3847     1
   3832   3840     1
   3833   3850     1
   3834   3840     1
   3834   3839     1
   3838   3852     1
   3839   3852     1
   3839   3850     1
   3840   3850     1
   3845   3847     1
   3847   3852     1
   3847   3850     1
   3853   3857     1
   3853   3863     1
   3853   3862     1
   3854   3858     1
   3854   3876     1
   3854   3869     1
   3856   3862     1
   3856   3871     1
   3856   3864     1
   3857   3874     1
   3858   3864     1
   3858   3863     1
   3862   3876     1
   3863   3876     1
   3863   3874     1
   3864   3874     1
   3869   3871     1
   3871   3876     1
   3871   3874     1
   3877   3885     1
   3879   3886     1
   3879   3887     1
   3881   3897     1
   3881   3889     1
   3885   3900     1
   3885   3893     1
   3886   3889     1
   3886   3901     1
   3886   3949     1
   3887   3897     1
   3887   3894     1
   3887   3925     1
   3889   3906     1
   3893   3905     1
   3893   3907     1
   3894   3906     1
   3897   3930     1
   3900   3929     1
   3900   3931     1
   3901   3930     1
   3902   3906     1
   3902   3912     1
   3902   3911     1
   3903   3918     1
   3903   3907     1
   3903   3925     1
   3905   3913     1
   3905   3920     1
   3905   3911     1
   3906   3923     1
   3907   3912     1
   3907   3913     1
   3911   3925     1
   3912   3923     1
   3912   3925     1
   3913   3923     1
   3918   3920     1
   3920   3923     1
   3920   3925     1
   3926   3930     1
   3926   3936     1
   3926   3935     1
   3927   3942     1
   3927   3931     1
   3927   3949     1
   3929   3937     1
   3929   3944     1
   3929   3935     1
   3930   3947     1
   3931   3936     1
   3931   3937     1
   3935   3949     1
   3936   3947     1
   3936   3949     1
   3937   3947     1
   3942   3944     1
   3944   3947     1
   3944   3949     1
   3950   3958     1
   3952   3959     1
   3952   3960     1
   3954   3970     1
   3954   3962     1
   3958   3973     1
   3958   3966     1
   3959   3974     1
   3959   4022     1
   3959   3962     1
   3960   3967     1
   3960   3998     1
   3960   3970     1
   3962   3979     1
   3966   3980     1
   3966   3978     1
   3967   3979     1
   3970   4003     1
   3973   4004     1
   3973   4002     1
   3974   4003     1
   3975   3979     1
   3975   3985     1
   3975   3984     1
   3976   3980     1
   3976   3998     1
   3976   3991     1
   3978   3984     1
   3978   3993     1
   3978   3986     1
   3979   3996     1
   3980   3986     1
   3980   3985     1
   3984   3998     1
   3985   3998     1
   3985   3996     1
   3986   3996     1
   3991   3993     1
   3993   3998     1
   3993   3996     1
   3999   4003     1
   3999   4009     1
   3999   4008     1
   4000   4004     1
   4000   4022     1
   4000   4015     1
   4002   4008     1
   4002   4017     1
   4002   4010     1
   4003   4020     1
   4004   4010     1
   4004   4009     1
   4008   4022     1
   4009   4022     1
   4009   4020     1
   4010   4020     1
   4015   4017     1
   4017   4022     1
   4017   4020     1
   4023   4031     1
   4025   4032     1
   4025   4033     1
   4027   4043     1
   4027   4035     1
   4031   4046     1
   4031   4039     1
   4032   4035     1
   4032   4047     1
   4032   4095     1
   4033   4043     1
   4033   4040     1
   4033   4071     1
   4035   4052     1
   4039   4051     1
   4039   4053     1
   4040   4052     1
   4043   4076     1
   4046   4075     1
   4046   4077     1
   4047   4076     1
   4048   4052     1
   4048   4058     1
   4048   4057     1
   4049   4064     1
   4049   4053     1
   4049   4071     1
   4051   4059     1
   4051   4066     1
   4051   4057     1
   4052   4069     1
   4053   4058     1
   4053   4059     1
   4057   4071     1
   4058   4069     1
   4058   4071     1
   4059   4069     1
   4064   4066     1
   4066   4069     1
   4066   4071     1
   4072   4076     1
   4072   4082     1
   4072   4081     1
   4073   4088     1
   4073   4077     1
   4073   4095     1
   4075   4083     1
   4075   4090     1
   4075   4081     1
   4076   4093     1
   4077   4082     1
   4077   4083     1
   4081   4095     1
   4082   4093     1
   4082   4095     1
   4083   4093     1
   4088   4090     1
   4090   4093     1
   4090   4095     1
   4096   4104     1
   4098   4105     1
   4098   4106     1
   4100   4116     1
   4100   4108     1
   4104   4119     1
   4104   4112     1
   4105   4120     1
   4105   4168     1
   4105   4108     1
   4106   4113     1
   4106   4144     1
   4106   4116     1
   4108   4125     1
   4112   4126     1
   4112   4124     1
   4113   4125     1
   4116   4149     1
   4119   4150     1
   4119   4148     1
   4120   4149     1
   4121   4125     1
   4121   4131     1
   4121   4130     1
   4122   4126     1
   4122   4144     1
   4122   4137     1
   4124   4130     1
   4124   4139     1
   4124   4132     1
   4125   4142     1
   4126   4132     1
   4126   4131     1
   4130   4144     1
   4131   4144     1
   4131   4142     1
   4132   4142     1
   4137   4139     1
   4139   4144     1
   4139   4142     1
   4145   4149     1
   4145   4155     1
   4145   4154     1
   4146   4150     1
   4146   4168     1
   4146   4161     1
   4148   4154     1
   4148   4163     1
   4148   4156     1
   4149   4166     1
   4150   4156     1
   4150   4155     1
   4154   4168     1
   4155   4168     1
   4155   4166     1
   4156   4166     1
   4161   4163     1
   4163   4168     1
   4163   4166     1
   4169   4177     1
   4171   4178     1
   4171   4179     1
   4173   4189     1
   4173   4181     1
   4177   4192     1
   4177   4185     1
   4178   4181     1
   4178   4193     1
   4178   4241     1
   4179   4189     1
   4179   4186     1
   4179   4217     1
   4181   4198     1
   4185   4197     1
   4185   4199     1
   4186   4198     1
   4189   4222     1
   4192   4221     1
   4192   4223     1
   4193   4222     1
   4194   4198     1
   4194   4204     1
   4194   4203     1
   4195   4210     1
   4195   4199     1
   4195   4217     1
   4197   4205     1
   4197   4212     1
   4197   4203     1
   4198   4215     1
   4199   4204     1
   4199   4205     1
   4203   4217     1
   4204   4215     1
   4204   4217     1
   4205   4215     1
   4210   4212     1
   4212   4215     1
   4212   4217     1
   4218   4222     1
   4218   4228     1
   4218   4227     1
   4219   4234     1
   4219   4223     1
   4219   4241     1
   4221   4229     1
   4221   4236     1
   4221   4227     1
   4222   4239     1
   4223   4228     1
   4223   4229     1
   4227   4241     1
   4228   4239     1
   4228   4241     1
   4229   4239     1
   4234   4236     1
   4236   4239     1
   4236   4241     1
   4242   4250     1
   4244   4251     1
   4244   4252     1
   4246   4262     1
   4246   4254     1
   4250   4265     1
   4250   4258     1
   4251   4266     1
   4251   4314     1
   4251   4254     1
   4252   4259     1
   4252   4290     1
   4252   4262     1
   4254   4271     1
   4258   4272     1
   4258   4270     1
   4259   4271     1
   4262   4295     1
   4265   4296     1
   4265   4294     1
   4266   4295     1
   4267   4271     1
   4267   4277     1
   4267   4276     1
   4268   4272     1
   4268   4290     1
   4268   4283     1
   4270   4276     1
   4270   4285     1
   4270   4278     1
   4271   4288     1
   4272   4278     1
   4272   4277     1
   4276   4290     1
   4277   4290     1
   4277   4288     1
   4278   4288     1
   4283   4285     1
   4285   4290     1
   4285   4288     1
   4291   4295     1
   4291   4301     1
   4291   4300     1
   4292   4296     1
   4292   4314     1
   4292   4307     1
   4294   4300     1
   4294   4309     1
   4294   4302     1
   4295   4312     1
   4296   4302     1
   4296   4301     1
   4300   4314     1
   4301   4314     1
   4301   4312     1
   4302   4312     1
   4307   4309     1
   4309   4314     1
   4309   4312     1
   4315   4323     1
   4317   4324     1
   4317   4325     1
   4319   4335     1
   4319   4327     1
   4323   4338     1
   4323   4331     1
   4324   4327     1
   4324   4339     1
   4324   4387     1
   4325   4335     1
   4325   4332     1
   4325   4363     1
   4327   4344     1
   4331   4343     1
   4331   4345     1
   4332   4344     1
   4335   4368     1
   4338   4367     1
   4338   4369     1
   4339   4368     1
   4340   4344     1
   4340   4350     1
   4340   4349     1
   4341   4356     1
   4341   4345     1
   4341   4363     1
   4343   4351     1
   4343   4358     1
   4343   4349     1
   4344   4361     1
   4345   4350     1
   4345   4351     1
   4349   4363     1
   4350   4361     1
   4350   4363     1
   4351   4361     1
   4356   4358     1
   4358   4361     1
   4358   4363     1
   4364   4368     1
   4364   4374     1
   4364   4373     1
   4365   4380     1
   4365   4369     1
   4365   4387     1
   4367   4375     1
   4367   4382     1
   4367   4373     1
   4368   4385     1
   4369   4374     1
   4369   4375     1
   4373   4387     1
   4374   4385     1
   4374   4387     1
   4375   4385     1
   4380   4382     1
   4382   4385     1
   4382   4387     1
   4388   4396     1
   4390   4397     1
   4390   4398     1
   4392   4408     1
   4392   4400     1
   4396   4411     1
   4396   4404     1
   4397   4412     1
   4397   4460     1
   4397   4400     1
   4398   4405     1
   4398   4436     1
   4398   4408     1
   4400   4417     1
   4404   4418     1
   4404   4416     1
   4405   4417     1
   4408   4441     1
   4411   4442     1
   4411   4440     1
   4412   4441     1
   4413   4417     1
   4413   4423     1
   4413   4422     1
   4414   4418     1
   4414   4436     1
   4414   4429     1
   4416   4422     1
   4416   4431     1
   4416   4424     1
   4417   4434     1
   4418   4424     1
   4418   4423     1
   4422   4436     1
   4423   4436     1
   4423   4434     1
   4424   4434     1
   4429   4431     1
   4431   4436     1
   4431   4434     1
   4437   4441     1
   4437   4447     1
   4437   4446     1
   4438   4442     1
   4438   4460     1
   4438   4453     1
   4440   4446     1
   4440   4455     1
   4440   4448     1
   4441   4458     1
   4442   4448     1
   4442   4447     1
   4446   4460     1
   4447   4460     1
   4447   4458     1
   4448   4458     1
   4453   4455     1
   4455   4460     1
   4455   4458     1
   4461   4469     1
   4463   4470     1
   4463   4471     1
   4465   4481     1
   4465   4473     1
   4469   4484     1
   4469   4477     1
   4470   4473     1
   4470   4485     1
   4470   4533     1
   4471   4481     1
   4471   4478     1
   4471   4509     1
   4473   4490     1
   4477   4489     1
   4477   4491     1
   4478   4490     1
   4481   4514     1
   4484   4513     1
   4484   4515     1
   4485   4514     1
   4486   4490     1
   4486   4496     1
   4486   4495     1
   4487   4502     1
   4487   4491     1
   4487   4509     1
   4489   4497     1
   4489   4504     1
   4489   4495     1
   4490   4507     1
   4491   4496     1
   4491   4497     1
   4495   4509     1
   4496   4507     1
   4496   4509     1
   4497   4507     1
   4502   4504     1
   4504   4507     1
   4504   4509     1
   4510   4514     1
   4510   4520     1
   4510   4519     1
   4511   4526     1
   4511   4515     1
   4511   4533     1
   4513   4521     1
   4513   4528     1
   4513   4519     1
   4514   4531     1
   4515   4520     1
   4515   4521     1
   4519   4533     1
   4520   4531     1
   4520   4533     1
   4521   4531     1
   4526   4528     1
   4528   4531     1
   4528   4533     1
   4534   4542     1
   4536   4543     1
   4536   4544     1
   4538   4554     1
   4538   4546     1
   4542   4557     1
   4542   4550     1
   4543   4558     1
   4543   4606     1
   4543   4546     1
   4544   4551     1
   4544   4582     1
   4544   4554     1
   4546   4563     1
   4550   4564     1
   4550   4562     1
   4551   4563     1
   4554   4587     1
   4557   4588     1
   4557   4586     1
   4558   4587     1
   4559   4563     1
   4559   4569     1
   4559   4568     1
   4560   4564     1
   4560   4582     1
   4560   4575     1
   4562   4568     1
   4562   4577     1
   4562   4570     1
   4563   4580     1
   4564   4570     1
   4564   4569     1
   4568   4582     1
   4569   4582     1
   4569   4580     1
   4570   4580     1
   4575   4577     1
   4577   4582     1
   4577   4580     1
   4583   4587     1
   4583   4593     1
   4583   4592     1
   4584   4588     1
   4584   4606     1
   4584   4599     1
   4586   4592     1
   4586   4601     1
   4586   4594     1
   4587   4604     1
   4588   4594     1
   4588   4593     1
   4592   4606     1
   4593   4606     1
   4593   4604     1
   4594   4604     1
   4599   4601     1
   4601   4606     1
   4601   4604     1
   4607   4615     1
   4609   4616     1
   4609   4617     1
   4611   4627     1
   4611   4619     1
   4615   4630     1
   4615   4623     1
   4616   4619     1
   4616   4631     1
   4616   4679     1
   4617   4627     1
   4617   4624     1
   4617   4655     1
   4619   4636     1
   4623   4635     1
   4623   4637     1
   4624   4636     1
   4627   4660     1
   4630   4659     1
   4630   4661     1
   4631   4660     1
   4632   4636     1
   4632   4642     1
   4632   4641     1
   4633   4648     1
   4633   4637     1
   4633   4655     1
   4635   4643     1
   4635   4650     1
   4635   4641     1
   4636   4653     1
   4637   4642     1
   4637   4643     1
   4641   4655     1
   4642   4653     1
   4642   4655     1
   4643   4653     1
   4648   4650     1
   4650   4653     1
   4650   4655     1
   4656   4660     1
   4656   4666     1
   4656   4665     1
   4657   4672     1
   4657   4661     1
   4657   4679     1
   4659   4667     1
   4659   4674     1
   4659   4665     1
   4660   4677     1
   4661   4666     1
   4661   4667     1
   4665   4679     1
   4666   4677     1
   4666   4679     1
   4667   4677     1
   4672   4674     1
   4674   4677     1
   4674   4679     1
   4680   4688     1
   4682   4689     1
   4682   4690     1
   4684   4700     1
   4684   4692     1
   4688   4703     1
   4688   4696     1
   4689   4704     1
   4689   4752     1
   4689   4692     1
   4690   4697     1
   4690   4728     1
   4690   4700     1
   4692   4709     1
   4696   4710     1
   4696   4708     1
   4697   4709     1
   4700   4733     1
   4703   4734     1
   4703   4732     1
   4704   4733     1
   4705   4709     1
   4705   4715     1
   4705   4714     1
   4706   4710     1
   4706   4728     1
   4706   4721     1
   4708   4714     1
   4708   4723     1
   4708   4716     1
   4709   4726     1
   4710   4716     1
   4710   4715     1
   4714   4728     1
   4715   4728     1
   4715   4726     1
   4716   4726     1
   4721   4723     1
   4723   4728     1
   4723   4726     1
   4729   4733     1
   4729   4739     1
   4729   4738     1
   4730   4734     1
   4730   4752     1
   4730   4745     1
   4732   4738     1
   4732   4747     1
   4732   4740     1
   4733   4750     1
   4734   4740     1
   4734   4739     1
   4738   4752     1
   4739   4752     1
   4739   4750     1
   4740   4750     1
   4745   4747     1
   4747   4752     1
   4747   4750     1
   4753   4761     1
   4755   4762     1
   4755   4763     1
   4757   4773     1
   4757   4765     1
   4761   4776     1
   4761   4769     1
   4762   4765     1
   4762   4777     1
   4762   4825     1
   4763   4773     1
   4763   4770     1
   4763   4801     1
   4765   4782     1
   4769   4781     1
   4769   4783     1
   4770   4782     1
   4773   4806     1
   4776   4805     1
   4776   4807     1
   4777   4806     1
   4778   4782     1
   4778   4788     1
   4778   4787     1
   4779   4794     1
   4779   4783     1
   4779   4801     1
   4781   4789     1
   4781   4796     1
   4781   4787     1
   4782   4799     1
   4783   4788     1
   4783   4789     1
   4787   4801     1
   4788   4799     1
   4788   4801     1
   4789   4799     1
   4794   4796     1
   4796   4799     1
   4796   4801     1
   4802   4806     1
   4802   4812     1
   4802   4811     1
   4803   4818     1
   4803   4807     1
   4803   4825     1
   4805   4813     1
   4805   4820     1
   4805   4811     1
   4806   4823     1
   4807   4812     1
   4807   4813     1
   4811   4825     1
   4812   4823     1
   4812   4825     1
   4813   4823     1
   4818   4820     1
   4820   4823     1
   4820   4825     1
   4826   4834     1
   4828   4835     1
   4828   4836     1
   4830   4846     1
   4830   4838     1
   4834   4849     1
   4834   4842     1
   4835   4850     1
   4835   4898     1
   4835   4838     1
   4836   4843     1
   4836   4874     1
   4836   4846     1
   4838   4855     1
   4842   4856     1
   4842   4854     1
   4843   4855     1
   4846   4879     1
   4849   4880     1
   4849   4878     1
   4850   4879     1
   4851   4855     1
   4851   4861     1
   4851   4860     1
   4852   4856     1
   4852   4874     1
   4852   4867     1
   4854   4860     1
   4854   4869     1
   4854   4862     1
   4855   4872     1
   4856   4862     1
   4856   4861     1
   4860   4874     1
   4861   4874     1
   4861   4872     1
   4862   4872     1
   4867   4869     1
   4869   4874     1
   4869   4872     1
   4875   4879     1
   4875   4885     1
   4875   4884     1
   4876   4880     1
   4876   4898     1
   4876   4891     1
   4878   4884     1
   4878   4893     1
   4878   4886     1
   4879   4896     1
   4880   4886     1
   4880   4885     1
   4884   4898     1
   4885   4898     1
   4885   4896     1
   4886   4896     1
   4891   4893     1
   4893   4898     1
   4893   4896     1
   4899   4907     1
   4901   4908     1
   4901   4909     1
   4903   4919     1
   4903   4911     1
   4907   4922     1
   4907   4915     1
   4908   4911     1
   4908   4923     1
   4908   4971     1
   4909   4919     1
   4909   4916     1
   4909   4947     1
   4911   4928     1
   4915   4927     1
   4915   4929     1
   4916   4928     1
   4919   4952     1
   4922   4951     1
   4922   4953     1
   4923   4952     1
   4924   4928     1
   4924   4934     1
   4924   4933     1
   4925   4940     1
   4925   4929     1
   4925   4947     1
   4927   4935     1
   4927   4942     1
   4927   4933     1
   4928   4945     1
   4929   4934     1
   4929   4935     1
   4933   4947     1
   4934   4945     1
   4934   4947     1
   4935   4945     1
   4940   4942     1
   4942   4945     1
   4942   4947     1
   4948   4952     1
   4948   4958     1
   4948   4957     1
   4949   4964     1
   4949   4953     1
   4949   4971     1
   4951   4959     1
   4951   4966     1
   4951   4957     1
   4952   4969     1
   4953   4958     1
   4953   4959     1
   4957   4971     1
   4958   4969     1
   4958   4971     1
   4959   4969     1
   4964   4966     1
   4966   4969     1
   4966   4971     1
   4972   4980     1
   4974   4981     1
   4974   4982     1
   4976   4992     1
   4976   4984     1
   4980   4995     1
   4980   4988     1
   4981   4996     1
   4981   5044     1
   4981   4984     1
   4982   4989     1
   4982   5020     1
   4982   4992     1
   4984   5001     1
   4988   5002     1
   4988   5000     1
   4989   5001     1
   4992   5025     1
   4995   5026     1
   4995   5024     1
   4996   5025     1
   4997   5001     1
   4997   5007     1
   4997   5006     1
   4998   5002     1
   4998   5020     1
   4998   5013     1
   5000   5006     1
   5000   5015     1
   5000   5008     1
   5001   5018     1
   5002   5008     1
   5002   5007     1
   5006   5020     1
   5007   5020     1
   5007   5018     1
   5008   5018     1
   5013   5015     1
   5015   5020     1
   5015   5018     1
   5021   5025     1
   5021   5031     1
   5021   5030     1
   5022   5026     1
   5022   5044     1
   5022   5037     1
   5024   5030     1
   5024   5039     1
   5024   5032     1
   5025   5042     1
   5026   5032     1
   5026   5031     1
   5030   5044     1
   5031   5044     1
   5031   5042     1
   5032   5042     1
   5037   5039     1
   5039   5044     1
   5039   5042     1
   5045   5053     1
   5047   5054     1
   5047   5055     1
   5049   5065     1
   5049   5057     1
   5053   5068     1
   5053   5061     1
   5054   5057     1
   5054   5069     1
   5054   5117     1
   5055   5065     1
   5055   5062     1
   5055   5093     1
   5057   5074     1
   5061   5073     1
   5061   5075     1
   5062   5074     1
   5065   5098     1
   5068   5097     1
   5068   5099     1
   5069   5098     1
   5070   5074     1
   5070   5080     1
   5070   5079     1
   5071   5086     1
   5071   5075     1
   5071   5093     1
   5073   5081     1
   5073   5088     1
   5073   5079     1
   5074   5091     1
   5075   5080     1
   5075   5081     1
   5079   5093     1
   5080   5091     1
   5080   5093     1
   5081   5091     1
   5086   5088     1
   5088   5091     1
   5088   5093     1
   5094   5098     1
   5094   5104     1
   5094   5103     1
   5095   5110     1
   5095   5099     1
   5095   5117     1
   5097   5105     1
   5097   5112     1
   5097   5103     1
   5098   5115     1
   5099   5104     1
   5099   5105     1
   5103   5117     1
   5104   5115     1
   5104   5117     1
   5105   5115     1
   5110   5112     1
   5112   5115     1
   5112   5117     1
   5118   5126     1
   5120   5127     1
   5120   5128     1
   5122   5138     1
   5122   5130     1
   5126   5141     1
   5126   5134     1
   5127   5142     1
   5127   5190     1
   5127   5130     1
   5128   5135     1
   5128   5166     1
   5128   5138     1
   5130   5147     1
   5134   5148     1
   5134   5146     1
   5135   5147     1
   5138   5171     1
   5141   5172     1
   5141   5170     1
   5142   5171     1
   5143   5147     1
   5143   5153     1
   5143   5152     1
   5144   5148     1
   5144   5166     1
   5144   5159     1
   5146   5152     1
   5146   5161     1
   5146   5154     1
   5147   5164     1
   5148   5154     1
   5148   5153     1
   5152   5166     1
   5153   5166     1
   5153   5164     1
   5154   5164     1
   5159   5161     1
   5161   5166     1
   5161   5164     1
   5167   5171     1
   5167   5177     1
   5167   5176     1
   5168   5172     1
   5168   5190     1
   5168   5183     1
   5170   5176     1
   5170   5185     1
   5170   5178     1
   5171   5188     1
   5172   5178     1
   5172   5177     1
   5176   5190     1
   5177   5190     1
   5177   5188     1
   5178   5188     1
   5183   5185     1
   5185   5190     1
   5185   5188     1
   5191   5199     1
   5193   5200     1
   5193   5201     1
   5195   5211     1
   5195   5203     1
   5199   5214     1
   5199   5207     1
   5200   5203     1
   5200   5215     1
   5200   5263     1
   5201   5211     1
   5201   5208     1
   5201   5239     1
   5203   5220     1
   5207   5219     1
   5207   5221     1
   5208   5220     1
   5211   5244     1
   5214   5243     1
   5214   5245     1
   5215   5244     1
   5216   5220     1
   5216   5226     1
   5216   5225     1
   5217   5232     1
   5217   5221     1
   5217   5239     1
   5219   5227     1
   5219   5234     1
   5219   5225     1
   5220   5237     1
   5221   5226     1
   5221   5227     1
   5225   5239     1
   5226   5237     1
   5226   5239     1
   5227   5237     1
   5232   5234     1
   5234   5237     1
   5234   5239     1
   5240   5244     1
   5240   5250     1
   5240   5249     1
   5241   5256     1
   5241   5245     1
   5241   5263     1
   5243   5251     1
   5243   5258     1
   5243   5249     1
   5244   5261     1
   5245   5250     1
   5245   5251     1
   5249   5263     1
   5250   5261     1
   5250   5263     1
   5251   5261     1
   5256   5258     1
   5258   5261     1
   5258   5263     1
   5264   5272     1
   5266   5273     1
   5266   5274     1
   5268   5284     1
   5268   5276     1
   5272   5287     1
   5272   5280     1
   5273   5288     1
   5273   5336     1
   5273   5276     1
   5274   5281     1
   5274   5312     1
   5274   5284     1
   5276   5293     1
   5280   5294     1
   5280   5292     1
   5281   5293     1
   5284   5317     1
   5287   5318     1
   5287   5316     1
   5288   5317     1
   5289   5293     1
   5289   5299     1
   5289   5298     1
   5290   5294     1
   5290   5312     1
   5290   5305     1
   5292   5298     1
   5292   5307     1
   5292   5300     1
   5293   5310     1
   5294   5300     1
   5294   5299     1
   5298   5312     1
   5299   5312     1
   5299   5310     1
   5300   5310     1
   5305   5307     1
   5307   5312     1
   5307   5310     1
   5313   5317     1
   5313   5323     1
   5313   5322     1
   5314   5318     1
   5314   5336     1
   5314   5329     1
   5316   5322     1
   5316   5331     1
   5316   5324     1
   5317   5334     1
   5318   5324     1
   5318   5323     1
   5322   5336     1
   5323   5336     1
   5323   5334     1
   5324   5334     1
   5329   5331     1
   5331   5336     1
   5331   5334     1
   5337   5345     1
   5339   5346     1
   5339   5347     1
   5341   5357     1
   5341   5349     1
   5345   5360     1
   5345   5353     1
   5346   5349     1
   5346   5361     1
   5346   5409     1
   5347   5357     1
   5347   5354     1
   5347   5385     1
   5349   5366     1
   5353   5365     1
   5353   5367     1
   5354   5366     1
   5357   5390     1
   5360   5389     1
   5360   5391     1
   5361   5390     1
   5362   5366     1
   5362   5372     1
   5362   5371     1
   5363   5378     1
   5363   5367     1
   5363   5385     1
   5365   5373     1
   5365   5380     1
   5365   5371     1
   5366   5383     1
   5367   5372     1
   5367   5373     1
   5371   5385     1
   5372   5383     1
   5372   5385     1
   5373   5383     1
   5378   5380     1
   5380   5383     1
   5380   5385     1
   5386   5390     1
   5386   5396     1
   5386   5395     1
   5387   5402     1
   5387   5391     1
   5387   5409     1
   5389   5397     1
   5389   5404     1
   5389   5395     1
   5390   5407     1
   5391   5396     1
   5391   5397     1
   5395   5409     1
   5396   5407     1
   5396   5409     1
   5397   5407     1
   5402   5404     1
   5404   5407     1
   5404   5409     1
   5410   5418     1
   5412   5419     1
   5412   5420     1
   5414   5430     1
   5414   5422     1
   5418   5433     1
   5418   5426     1
   5419   5434     1
   5419   5482     1
   5419   5422     1
   5420   5427     1
   5420   5458     1
   5420   5430     1
   5422   5439     1
   5426   5440     1
   5426   5438     1
   5427   5439     1
   5430   5463     1
   5433   5464     1
   5433   5462     1
   5434   5463     1
   5435   5439     1
   5435   5445     1
   5435   5444     1
   5436   5440     1
   5436   5458     1
   5436   5451     1
   5438   5444     1
   5438   5453     1
   5438   5446     1
   5439   5456     1
   5440   5446     1
   5440   5445     1
   5444   5458     1
   5445   5458     1
   5445   5456     1
   5446   5456     1
   5451   5453     1
   5453   5458     1
   5453   5456     1
   5459   5463     1
   5459   5469     1
   5459   5468     1
   5460   5464     1
   5460   5482     1
   5460   5475     1
   5462   5468     1
   5462   5477     1
   5462   5470     1
   5463   5480     1
   5464   5470     1
   5464   5469     1
   5468   5482     1
   5469   5482     1
   5469   5480     1
   5470   5480     1
   5475   5477     1
   5477   5482     1
   5477   5480     1
   5483   5491     1
   5485   5492     1
   5485   5493     1
   5487   5503     1
   5487   5495     1
   5491   5506     1
   5491   5499     1
   5492   5495     1
   5492   5507     1
   5492   5555     1
   5493   5503     1
   5493   5500     1
   5493   5531     1
   5495   5512     1
   5499   5511     1
   5499   5513     1
   5500   5512     1
   5503   5536     1
   5506   5535     1
   5506   5537     1
   5507   5536     1
   5508   5512     1
   5508   5518     1
   5508   5517     1
   5509   5524     1
   5509   5513     1
   5509   5531     1
   5511   5519     1
   5511   5526     1
   5511   5517     1
   5512   5529     1
   5513   5518     1
   5513   5519     1
   5517   5531     1
   5518   5529     1
   5518   5531     1
   5519   5529     1
   5524   5526     1
   5526   5529     1
   5526   5531     1
   5532   5536     1
   5532   5542     1
   5532   5541     1
   5533   5548     1
   5533   5537     1
   5533   5555     1
   5535   5543     1
   5535   5550     1
   5535   5541     1
   5536   5553     1
   5537   5542     1
   5537   5543     1
   5541   5555     1
   5542   5553     1
   5542   5555     1
   5543   5553     1
   5548   5550     1
   5550   5553     1
   5550   5555     1
   5556   5564     1
   5558   5565     1
   5558   5566     1
   5560   5576     1
   5560   5568     1
   5564   5579     1
   5564   5572     1
   5565   5580     1
   5565   5628     1
   5565   5568     1
   5566   5573     1
   5566   5604     1
   5566   5576     1
   5568   5585     1
   5572   5586     1
   5572   5584     1
   5573   5585     1
   5576   5609     1
   5579   5610     1
   5579   5608     1
   5580   5609     1
   5581   5585     1
   5581   5591     1
   5581   5590     1
   5582   5586     1
   5582   5604     1
   5582   5597     1
   5584   5590     1
   5584   5599     1
   5584   5592     1
   5585   5602     1
   5586   5592     1
   5586   5591     1
   5590   5604     1
   5591   5604     1
   5591   5602     1
   5592   5602     1
   5597   5599     1
   5599   5604     1
   5599   5602     1
   5605   5609     1
   5605   5615     1
   5605   5614     1
   5606   5610     1
   5606   5628     1
   5606   5621     1
   5608   5614     1
   5608   5623     1
   5608   5616     1
   5609   5626     1
   5610   5616     1
   5610   5615     1
   5614   5628     1
   5615   5628     1
   5615   5626     1
   5616   5626     1
   5621   5623     1
   5623   5628     1
   5623   5626     1
   5629   5637     1
   5631   5638     1
   5631   5639     1
   5633   5649     1
   5633   5641     1
   5637   5652     1
   5637   5645     1
   5638   5641     1
   5638   5653     1
   5638   5701     1
   5639   5649     1
   5639   5646     1
   5639   5677     1
   5641   5658     1
   5645   5657     1
   5645   5659     1
   5646   5658     1
   5649   5682     1
   5652   5681     1
   5652   5683     1
   5653   5682     1
   5654   5658     1
   5654   5664     1
   5654   5663     1
   5655   5670     1
   5655   5659     1
   5655   5677     1
   5657   5665     1
   5657   5672     1
   5657   5663     1
   5658   5675     1
   5659   5664     1
   5659   5665     1
   5663   5677     1
   5664   5675     1
   5664   5677     1
   5665   5675     1
   5670   5672     1
   5672   5675     1
   5672   5677     1
   5678   5682     1
   5678   5688     1
   5678   5687     1
   5679   5694     1
   5679   5683     1
   5679   5701     1
   5681   5689     1
   5681   5696     1
   5681   5687     1
   5682   5699     1
   5683   5688     1
   5683   5689     1
   5687   5701     1
   5688   5699     1
   5688   5701     1
   5689   5699     1
   5694   5696     1
   5696   5699     1
   5696   5701     1
   5702   5710     1
   5704   5711     1
   5704   5712     1
   5706   5722     1
   5706   5714     1
   5710   5725     1
   5710   5718     1
   5711   5726     1
   5711   5774     1
   5711   5714     1
   5712   5719     1
   5712   5750     1
   5712   5722     1
   5714   5731     1
   5718   5732     1
   5718   5730     1
   5719   5731     1
   5722   5755     1
   5725   5756     1
   5725   5754     1
   5726   5755     1
   5727   5731     1
   5727   5737     1
   5727   5736     1
   5728   5732     1
   5728   5750     1
   5728   5743     1
   5730   5736     1
   5730   5745     1
   5730   5738     1
   5731   5748     1
   5732   5738     1
   5732   5737     1
   5736   5750     1
   5737   5750     1
   5737   5748     1
   5738   5748     1
   5743   5745     1
   5745   5750     1
   5745   5748     1
   5751   5755     1
   5751   5761     1
   5751   5760     1
   5752   5756     1
   5752   5774     1
   5752   5767     1
   5754   5760     1
   5754   5769     1
   5754   5762     1
   5755   5772     1
   5756   5762     1
   5756   5761     1
   5760   5774     1
   5761   5774     1
   5761   5772     1
   5762   5772     1
   5767   5769     1
   5769   5774     1
   5769   5772     1
   5775   5783     1
   5777   5784     1
   5777   5785     1
   5779   5795     1
   5779   5787     1
   5783   5798     1
   5783   5791     1
   5784   5787     1
   5784   5799     1
   5784   5847     1
   5785   5795     1
   5785   5792     1
   5785   5823     1
   5787   5804     1
   5791   5803     1
   5791   5805     1
   5792   5804     1
   5795   5828     1
   5798   5827     1
   5798   5829     1
   5799   5828     1
   5800   5804     1
   5800   5810     1
   5800   5809     1
   5801   5816     1
   5801   5805     1
   5801   5823     1
   5803   5811     1
   5803   5818     1
   5803   5809     1
   5804   5821     1
   5805   5810     1
   5805   5811     1
   5809   5823     1
   5810   5821     1
   5810   5823     1
   5811   5821     1
   5816   5818     1
   5818   5821     1
   5818   5823     1
   5824   5828     1
   5824   5834     1
   5824   5833     1
   5825   5840     1
   5825   5829     1
   5825   5847     1
   5827   5835     1
   5827   5842     1
   5827   5833     1
   5828   5845     1
   5829   5834     1
   5829   5835     1
   5833   5847     1
   5834   5845     1
   5834   5847     1
   5835   5845     1
   5840   5842     1
   5842   5845     1
   5842   5847     1
   5848   5856     1
   5850   5857     1
   5850   5858     1
   5852   5868     1
   5852   5860     1
   5856   5871     1
   5856   5864     1
   5857   5872     1
   5857   5920     1
   5857   5860     1
   5858   5865     1
   5858   5896     1
   5858   5868     1
   5860   5877     1
   5864   5878     1
   5864   5876     1
   5865   5877     1
   5868   5901     1
   5871   5902     1
   5871   5900     1
   5872   5901     1
   5873   5877     1
   5873   5883     1
   5873   5882     1
   5874   5878     1
   5874   5896     1
   5874   5889     1
   5876   5882     1
   5876   5891     1
   5876   5884     1
   5877   5894     1
   5878   5884     1
   5878   5883     1
   5882   5896     1
   5883   5896     1
   5883   5894     1
   5884   5894     1
   5889   5891     1
   5891   5896     1
   5891   5894     1
   5897   5901     1
   5897   5907     1
   5897   5906     1
   5898   5902     1
   5898   5920     1
   5898   5913     1
   5900   5906     1
   5900   5915     1
   5900   5908     1
   5901   5918     1
   5902   5908     1
   5902   5907     1
   5906   5920     1
   5907   5920     1
   5907   5918     1
   5908   5918     1
   5913   5915     1
   5915   5920     1
   5915   5918     1
   5921   5929     1
   5923   5930     1
   5923   5931     1
   5925   5941     1
   5925   5933     1
   5929   5944     1
   5929   5937     1
   5930   5933     1
   5930   5945     1
   5930   5993     1
   5931   5941     1
   5931   5938     1
   5931   5969     1
   5933   5950     1
   5937   5949     1
   5937   5951     1
   5938   5950     1
   5941   5974     1
   5944   5973     1
   5944   5975     1
   5945   5974     1
   5946   5950     1
   5946   5956     1
   5946   5955     1
   5947   5962     1
   5947   5951     1
   5947   5969     1
   5949   5957     1
   5949   5964     1
   5949   5955     1
   5950   5967     1
   5951   5956     1
   5951   5957     1
   5955   5969     1
   5956   5967     1
   5956   5969     1
   5957   5967     1
   5962   5964     1
   5964   5967     1
   5964   5969     1
   5970   5974     1
   5970   5980     1
   5970   5979     1
   5971   5986     1
   5971   5975     1
   5971   5993     1
   5973   5981     1
   5973   5988     1
   5973   5979     1
   5974   5991     1
   5975   5980     1
   5975   5981     1
   5979   5993     1
   5980   5991     1
   5980   5993     1
   5981   5991     1
   5986   5988     1
   5988   5991     1
   5988   5993     1
   5994   6002     1
   5996   6003     1
   5996   6004     1
   5998   6014     1
   5998   6006     1
   6002   6017     1
   6002   6010     1
   6003   6018     1
   6003   6066     1
   6003   6006     1
   6004   6011     1
   6004   6042     1
   6004   6014     1
   6006   6023     1
   6010   6024     1
   6010   6022     1
   6011   6023     1
   6014   6047     1
   6017   6048     1
   6017   6046     1
   6018   6047     1
   6019   6023     1
   6019   6029     1
   6019   6028     1
   6020   6024     1
   6020   6042     1
   6020   6035     1
   6022   6028     1
   6022   6037     1
   6022   6030     1
   6023   6040     1
   6024   6030     1
   6024   6029     1
   6028   6042     1
   6029   6042     1
   6029   6040     1
   6030   6040     1
   6035   6037     1
   6037   6042     1
   6037   6040     1
   6043   6047     1
   6043   6053     1
   6043   6052     1
   6044   6048     1
   6044   6066     1
   6044   6059     1
   6046   6052     1
   6046   6061     1
   6046   6054     1
   6047   6064     1
   6048   6054     1
   6048   6053     1
   6052   6066     1
   6053   6066     1
   6053   6064     1
   6054   6064     1
   6059   6061     1
   6061   6066     1
   6061   6064     1
   6067   6075     1
   6069   6076     1
   6069   6077     1
   6071   6087     1
   6071   6079     1
   6075   6090     1
   6075   6083     1
   6076   6079     1
   6076   6091     1
   6076   6139     1
   6077   6087     1
   6077   6084     1
   6077   6115     1
   6079   6096     1
   6083   6095     1
   6083   6097     1
   6084   6096     1
   6087   6120     1
   6090   6119     1
   6090   6121     1
   6091   6120     1
   6092   6096     1
   6092   6102     1
   6092   6101     1
   6093   6108     1
   6093   6097     1
   6093   6115     1
   6095   6103     1
   6095   6110     1
   6095   6101     1
   6096   6113     1
   6097   6102     1
   6097   6103     1
   6101   6115     1
   6102   6113     1
   6102   6115     1
   6103   6113     1
   6108   6110     1
   6110   6113     1
   6110   6115     1
   6116   6120     1
   6116   6126     1
   6116   6125     1
   6117   6132     1
   6117   6121     1
   6117   6139     1
   6119   6127     1
   6119   6134     1
   6119   6125     1
   6120   6137     1
   6121   6126     1
   6121   6127     1
   6125   6139     1
   6126   6137     1
   6126   6139     1
   6127   6137     1
   6132   6134     1
   6134   6137     1
   6134   6139     1
   6140   6148     1
   6142   6149     1
   6142   6150     1
   6144   6160     1
   6144   6152     1
   6148   6163     1
   6148   6156     1
   6149   6164     1
   6149   6212     1
   6149   6152     1
   6150   6157     1
   6150   6188     1
   6150   6160     1
   6152   6169     1
   6156   6170     1
   6156   6168     1
   6157   6169     1
   6160   6193     1
   6163   6194     1
   6163   6192     1
   6164   6193     1
   6165   6169     1
   6165   6175     1
   6165   6174     1
   6166   6170     1
   6166   6188     1
   6166   6181     1
   6168   6174     1
   6168   6183     1
   6168   6176     1
   6169   6186     1
   6170   6176     1
   6170   6175     1
   6174   6188     1
   6175   6188     1
   6175   6186     1
   6176   6186     1
   6181   6183     1
   6183   6188     1
   6183   6186     1
   6189   6193     1
   6189   6199     1
   6189   6198     1
   6190   6194     1
   6190   6212     1
   6190   6205     1
   6192   6198     1
   6192   6207     1
   6192   6200     1
   6193   6210     1
   6194   6200     1
   6194   6199     1
   6198   6212     1
   6199   6212     1
   6199   6210     1
   6200   6210     1
   6205   6207     1
   6207   6212     1
   6207   6210     1
      1     10     1
      1     11     1
      1     13     1
      1     14     1
      2      7     1
      2      5     1
      2      6     1
      2      9     1
      2     12     1
      3      7     1
      3      5     1
      3      6     1
      3      9     1
      3     12     1
      4     16     1
      4     17     1
      4     19     1
      4     20     1
      8      5     1
      5     15     1
      5     18     1
      8      6     1
      6     15     1
      6     18     1
      7     22     1
      7     23     1
      7     25     1
      7     26     1
      8     31     1
      8     32     1
      8     28     1
      8     29     1
      9     13     1
      9     14     1
     10     12     1
     10     34     1
     10     31     1
     10     32     1
     11     12     1
     11     34     1
     11     31     1
     11     32     1
     13     33     1
     13     28     1
     13     29     1
     14     33     1
     14     28     1
     14     29     1
     15     19     1
     15     20     1
     16     18     1
     16     35     1
     16     22     1
     16     23     1
     17     18     1
     17     35     1
     17     22     1
     17     23     1
     19     36     1
     19     25     1
     19     26     1
     20     36     1
     20     25     1
     20     26     1
     21    115     1
     22     38     1
     22    114     1
     23     38     1
     23    114     1
     24    140     1
     25     39     1
     25    139     1
     26     39     1
     26    139     1
     27     65     1
     28     37     1
     28     64     1
     29     37     1
     29     64     1
     30     90     1
     31     40     1
     31     89     1
     32     40     1
     32     89     1
     33     45     1
     33     46     1
     34     70     1
     34     71     1
     35     95     1
     35     96     1
     36    120     1
     36    121     1
     37     65     1
     38    115     1
     39    140     1
     40     90     1
     41     65     1
     41     49     1
     41     50     1
     41     52     1
     41     53     1
     42     64     1
     42     45     1
     42     46     1
     42     48     1
     42     51     1
     43     64     1
     43     45     1
     43     46     1
     43     48     1
     43     51     1
     45     47     1
     45     65     1
     46     47     1
     46     65     1
     47     58     1
     47     59     1
     47     55     1
     47     56     1
     48     52     1
     48     53     1
     49     51     1
     49     61     1
     49     58     1
     49     59     1
     50     51     1
     50     61     1
     50     58     1
     50     59     1
     52     60     1
     52     55     1
     52     56     1
     53     60     1
     53     55     1
     53     56     1
     54    165     1
     55     62     1
     55    164     1
     56     62     1
     56    164     1
     57    190     1
     58     63     1
     58    189     1
     59     63     1
     59    189     1
     60    145     1
     60    146     1
     61    170     1
     61    171     1
     62    165     1
     63    190     1
     66     90     1
     66     74     1
     66     75     1
     66     77     1
     66     78     1
     67     89     1
     67     70     1
     67     71     1
     67     73     1
     67     76     1
     68     89     1
     68     70     1
     68     71     1
     68     73     1
     68     76     1
     70     72     1
     70     90     1
     71     72     1
     71     90     1
     72     83     1
     72     84     1
     72     80     1
     72     81     1
     73     77     1
     73     78     1
     74     76     1
     74     86     1
     74     83     1
     74     84     1
     75     76     1
     75     86     1
     75     83     1
     75     84     1
     77     85     1
     77     80     1
     77     81     1
     78     85     1
     78     80     1
     78     81     1
     79    215     1
     80     87     1
     80    214     1
     81     87     1
     81    214     1
     82    240     1
     83     88     1
     83    239     1
     84     88     1
     84    239     1
     85    195     1
     85    196     1
     86    220     1
     86    221     1
     87    215     1
     88    240     1
     91    115     1
     91     99     1
     91    100     1
     91    102     1
     91    103     1
     92    114     1
     92     95     1
     92     96     1
     92     98     1
     92    101     1
     93    114     1
     93     95     1
     93     96     1
     93     98     1
     93    101     1
     95     97     1
     95    115     1
     96     97     1
     96    115     1
     97    108     1
     97    109     1
     97    105     1
     97    106     1
     98    102     1
     98    103     1
     99    101     1
     99    111     1
     99    108     1
     99    109     1
    100    101     1
    100    111     1
    100    108     1
    100    109     1
    102    110     1
    102    105     1
    102    106     1
    103    110     1
    103    105     1
    103    106     1
    104    265     1
    105    112     1
    105    264     1
    106    112     1
    106    264     1
    107    290     1
    108    113     1
    108    289     1
    109    113     1
    109    289     1
    110    245     1
    110    246     1
    111    270     1
    111    271     1
    112    265     1
    113    290     1
    116    140     1
    116    124     1
    116    125     1
    116    127     1
    116    128     1
    117    139     1
    117    120     1
    117    121     1
    117    123     1
    117    126     1
    118    139     1
    118    120     1
    118    121     1
    118    123     1
    118    126     1
    120    122     1
    120    140     1
    121    122     1
    121    140     1
    122    133     1
    122    134     1
    122    130     1
    122    131     1
    123    127     1
    123    128     1
    124    126     1
    124    136     1
    124    133     1
    124    134     1
    125    126     1
    125    136     1
    125    133     1
    125    134     1
    127    135     1
    127    130     1
    127    131     1
    128    135     1
    128    130     1
    128    131     1
    129    315     1
    130    137     1
    130    314     1
    131    137     1
    131    314     1
    132    340     1
    133    138     1
    133    339     1
    134    138     1
    134    339     1
    135    295     1
    135    296     1
    136    320     1
    136    321     1
    137    315     1
    138    340     1
    141    165     1
    141    149     1
    141    150     1
    141    152     1
    141    153     1
    142    164     1
    142    145     1
    142    146     1
    142    148     1
    142    151     1
    143    164     1
    143    145     1
    143    146     1
    143    148     1
    143    151     1
    145    147     1
    145    165     1
    146    147     1
    146    165     1
    147    158     1
    147    159     1
    147    155     1
    147    156     1
    148    152     1
    148    153     1
    149    151     1
    149    161     1
    149    158     1
    149    159     1
    150    151     1
    150    161     1
    150    158     1
    150    159     1
    152    160     1
    152    155     1
    152    156     1
    153    160     1
    153    155     1
    153    156     1
    154    365     1
    155    162     1
    155    364     1
    156    162     1
    156    364     1
    157    390     1
    158    163     1
    158    389     1
    159    163     1
    159    389     1
    160    345     1
    160    346     1
    161    370     1
    161    371     1
    162    365     1
    163    390     1
    166    190     1
    166    174     1
    166    175     1
    166    177     1
    166    178     1
    167    189     1
    167    170     1
    167    171     1
    167    173     1
    167    176     1
    168    189     1
    168    170     1
    168    171     1
    168    173     1
    168    176     1
    170    172     1
    170    190     1
    171    172     1
    171    190     1
    172    183     1
    172    184     1
    172    180     1
    172    181     1
    173    177     1
    173    178     1
    174    176     1
    174    186     1
    174    183     1
    174    184     1
    175    176     1
    175    186     1
    175    183     1
    175    184     1
    177    185     1
    177    180     1
    177    181     1
    178    185     1
    178    180     1
    178    181     1
    179    415     1
    180    187     1
    180    414     1
    181    187     1
    181    414     1
    182    440     1
    183    188     1
    183    439     1
    184    188     1
    184    439     1
    185    395     1
    185    396     1
    186    420     1
    186    421     1
    187    415     1
    188    440     1
    191    215     1
    191    199     1
    191    200     1
    191    202     1
    191    203     1
    192    214     1
    192    195     1
    192    196     1
    192    198     1
    192    201     1
    193    214     1
    193    195     1
    193    196     1
    193    198     1
    193    201     1
    195    197     1
    195    215     1
    196    197     1
    196    215     1
    197    208     1
    197    209     1
    197    205     1
    197    206     1
    198    202     1
    198    203     1
    199    201     1
    199    211     1
    199    208     1
    199    209     1
    200    201     1
    200    211     1
    200    208     1
    200    209     1
    202    210     1
    202    205     1
    202    206     1
    203    210     1
    203    205     1
    203    206     1
    204    465     1
    205    212     1
    205    464     1
    206    212     1
    206    464     1
    207    490     1
    208    213     1
    208    489     1
    209    213     1
    209    489     1
    210    445     1
    210    446     1
    211    470     1
    211    471     1
    212    465     1
    213    490     1
    216    240     1
    216    224     1
    216    225     1
    216    227     1
    216    228     1
    217    239     1
    217    220     1
    217    221     1
    217    223     1
    217    226     1
    218    239     1
    218    220     1
    218    221     1
    218    223     1
    218    226     1
    220    222     1
    220    240     1
    221    222     1
    221    240     1
    222    233     1
    222    234     1
    222    230     1
    222    231     1
    223    227     1
    223    228     1
    224    226     1
    224    236     1
    224    233     1
    224    234     1
    225    226     1
    225    236     1
    225    233     1
    225    234     1
    227    235     1
    227    230     1
    227    231     1
    228    235     1
    228    230     1
    228    231     1
    229    515     1
    230    237     1
    230    514     1
    231    237     1
    231    514     1
    232    540     1
    233    238     1
    233    539     1
    234    238     1
    234    539     1
    235    495     1
    235    496     1
    236    520     1
    236    521     1
    237    515     1
    238    540     1
    241    265     1
    241    249     1
    241    250     1
    241    252     1
    241    253     1
    242    264     1
    242    245     1
    242    246     1
    242    248     1
    242    251     1
    243    264     1
    243    245     1
    243    246     1
    243    248     1
    243    251     1
    245    247     1
    245    265     1
    246    247     1
    246    265     1
    247    258     1
    247    259     1
    247    255     1
    247    256     1
    248    252     1
    248    253     1
    249    251     1
    249    261     1
    249    258     1
    249    259     1
    250    251     1
    250    261     1
    250    258     1
    250    259     1
    252    260     1
    252    255     1
    252    256     1
    253    260     1
    253    255     1
    253    256     1
    254    565     1
    255    262     1
    255    564     1
    256    262     1
    256    564     1
    257    590     1
    258    263     1
    258    589     1
    259    263     1
    259    589     1
    260    545     1
    260    546     1
    261    570     1
    261    571     1
    262    565     1
    263    590     1
    266    290     1
    266    274     1
    266    275     1
    266    277     1
    266    278     1
    267    289     1
    267    270     1
    267    271     1
    267    273     1
    267    276     1
    268    289     1
    268    270     1
    268    271     1
    268    273     1
    268    276     1
    270    272     1
    270    290     1
    271    272     1
    271    290     1
    272    283     1
    272    284     1
    272    280     1
    272    281     1
    273    277     1
    273    278     1
    274    276     1
    274    286     1
    274    283     1
    274    284     1
    275    276     1
    275    286     1
    275    283     1
    275    284     1
    277    285     1
    277    280     1
    277    281     1
    278    285     1
    278    280     1
    278    281     1
    279    615     1
    280    287     1
    280    614     1
    281    287     1
    281    614     1
    282    640     1
    283    288     1
    283    639     1
    284    288     1
    284    639     1
    285    595     1
    285    596     1
    286    620     1
    286    621     1
    287    615     1
    288    640     1
    291    315     1
    291    299     1
    291    300     1
    291    302     1
    291    303     1
    292    314     1
    292    295     1
    292    296     1
    292    298     1
    292    301     1
    293    314     1
    293    295     1
    293    296     1
    293    298     1
    293    301     1
    295    297     1
    295    315     1
    296    297     1
    296    315     1
    297    308     1
    297    309     1
    297    305     1
    297    306     1
    298    302     1
    298    303     1
    299    301     1
    299    311     1
    299    308     1
    299    309     1
    300    301     1
    300    311     1
    300    308     1
    300    309     1
    302    310     1
    302    305     1
    302    306     1
    303    310     1
    303    305     1
    303    306     1
    304    665     1
    305    312     1
    305    664     1
    306    312     1
    306    664     1
    307    690     1
    308    313     1
    308    689     1
    309    313     1
    309    689     1
    310    645     1
    310    646     1
    311    670     1
    311    671     1
    312    665     1
    313    690     1
    316    340     1
    316    324     1
    316    325     1
    316    327     1
    316    328     1
    317    339     1
    317    320     1
    317    321     1
    317    323     1
    317    326     1
    318    339     1
    318    320     1
    318    321     1
    318    323     1
    318    326     1
    320    322     1
    320    340     1
    321    322     1
    321    340     1
    322    333     1
    322    334     1
    322    330     1
    322    331     1
    323    327     1
    323    328     1
    324    326     1
    324    336     1
    324    333     1
    324    334     1
    325    326     1
    325    336     1
    325    333     1
    325    334     1
    327    335     1
    327    330     1
    327    331     1
    328    335     1
    328    330     1
    328    331     1
    329    715     1
    330    337     1
    330    714     1
    331    337     1
    331    714     1
    332    740     1
    333    338     1
    333    739     1
    334    338     1
    334    739     1
    335    695     1
    335    696     1
    336    720     1
    336    721     1
    337    715     1
    338    740     1
    341    365     1
    341    349     1
    341    350     1
    341    352     1
    341    353     1
    342    364     1
    342    345     1
    342    346     1
    342    348     1
    342    351     1
    343    364     1
    343    345     1
    343    346     1
    343    348     1
    343    351     1
    345    347     1
    345    365     1
    346    347     1
    346    365     1
    347    358     1
    347    359     1
    347    355     1
    347    356     1
    348    352     1
    348    353     1
    349    351     1
    349    361     1
    349    358     1
    349    359     1
    350    351     1
    350    361     1
    350    358     1
    350    359     1
    352    360     1
    352    355     1
    352    356     1
    353    360     1
    353    355     1
    353    356     1
    354    765     1
    355    362     1
    355    764     1
    356    362     1
    356    764     1
    357    790     1
    358    363     1
    358    789     1
    359    363     1
    359    789     1
    360    745     1
    360    746     1
    361    770     1
    361    771     1
    362    765     1
    363    790     1
    366    390     1
    366    374     1
    366    375     1
    366    377     1
    366    378     1
    367    389     1
    367    370     1
    367    371     1
    367    373     1
    367    376     1
    368    389     1
    368    370     1
    368    371     1
    368    373     1
    368    376     1
    370    372     1
    370    390     1
    371    372     1
    371    390     1
    372    383     1
    372    384     1
    372    380     1
    372    381     1
    373    377     1
    373    378     1
    374    376     1
    374    386     1
    374    383     1
    374    384     1
    375    376     1
    375    386     1
    375    383     1
    375    384     1
    377    385     1
    377    380     1
    377    381     1
    378    385     1
    378    380     1
    378    381     1
    379    815     1
    380    387     1
    380    814     1
    381    387     1
    381    814     1
    382    840     1
    383    388     1
    383    839     1
    384    388     1
    384    839     1
    385    795     1
    385    796     1
    386    820     1
    386    821     1
    387    815     1
    388    840     1
    391    415     1
    391    399     1
    391    400     1
    391    402     1
    391    403     1
    392    414     1
    392    395     1
    392    396     1
    392    398     1
    392    401     1
    393    414     1
    393    395     1
    393    396     1
    393    398     1
    393    401     1
    395    397     1
    395    415     1
    396    397     1
    396    415     1
    397    408     1
    397    409     1
    397    405     1
    397    406     1
    398    402     1
    398    403     1
    399    401     1
    399    411     1
    399    408     1
    399    409     1
    400    401     1
    400    411     1
    400    408     1
    400    409     1
    402    410     1
    402    405     1
    402    406     1
    403    410     1
    403    405     1
    403    406     1
    404    865     1
    405    412     1
    405    864     1
    406    412     1
    406    864     1
    407    890     1
    408    413     1
    408    889     1
    409    413     1
    409    889     1
    410    845     1
    410    846     1
    411    870     1
    411    871     1
    412    865     1
    413    890     1
    416    440     1
    416    424     1
    416    425     1
    416    427     1
    416    428     1
    417    439     1
    417    420     1
    417    421     1
    417    423     1
    417    426     1
    418    439     1
    418    420     1
    418    421     1
    418    423     1
    418    426     1
    420    422     1
    420    440     1
    421    422     1
    421    440     1
    422    433     1
    422    434     1
    422    430     1
    422    431     1
    423    427     1
    423    428     1
    424    426     1
    424    436     1
    424    433     1
    424    434     1
    425    426     1
    425    436     1
    425    433     1
    425    434     1
    427    435     1
    427    430     1
    427    431     1
    428    435     1
    428    430     1
    428    431     1
    429    915     1
    430    437     1
    430    914     1
    431    437     1
    431    914     1
    432    940     1
    433    438     1
    433    939     1
    434    438     1
    434    939     1
    435    895     1
    435    896     1
    436    920     1
    436    921     1
    437    915     1
    438    940     1
    441    465     1
    441    449     1
    441    450     1
    441    452     1
    441    453     1
    442    464     1
    442    445     1
    442    446     1
    442    448     1
    442    451     1
    443    464     1
    443    445     1
    443    446     1
    443    448     1
    443    451     1
    445    447     1
    445    465     1
    446    447     1
    446    465     1
    447    458     1
    447    459     1
    447    455     1
    447    456     1
    448    452     1
    448    453     1
    449    451     1
    449    461     1
    449    458     1
    449    459     1
    450    451     1
    450    461     1
    450    458     1
    450    459     1
    452    460     1
    452    455     1
    452    456     1
    453    460     1
    453    455     1
    453    456     1
    454    965     1
    455    462     1
    455    964     1
    456    462     1
    456    964     1
    457    990     1
    458    463     1
    458    989     1
    459    463     1
    459    989     1
    460    945     1
    460    946     1
    461    970     1
    461    971     1
    462    965     1
    463    990     1
    466    490     1
    466    474     1
    466    475     1
    466    477     1
    466    478     1
    467    489     1
    467    470     1
    467    471     1
    467    473     1
    467    476     1
    468    489     1
    468    470     1
    468    471     1
    468    473     1
    468    476     1
    470    472     1
    470    490     1
    471    472     1
    471    490     1
    472    483     1
    472    484     1
    472    480     1
    472    481     1
    473    477     1
    473    478     1
    474    476     1
    474    486     1
    474    483     1
    474    484     1
    475    476     1
    475    486     1
    475    483     1
    475    484     1
    477    485     1
    477    480     1
    477    481     1
    478    485     1
    478    480     1
    478    481     1
    479   1015     1
    480    487     1
    480   1014     1
    481    487     1
    481   1014     1
    482   1040     1
    483    488     1
    483   1039     1
    484    488     1
    484   1039     1
    485    995     1
    485    996     1
    486   1020     1
    486   1021     1
    487   1015     1
    488   1040     1
    491    515     1
    491    499     1
    491    500     1
    491    502     1
    491    503     1
    492    514     1
    492    495     1
    492    496     1
    492    498     1
    492    501     1
    493    514     1
    493    495     1
    493    496     1
    493    498     1
    493    501     1
    495    497     1
    495    515     1
    496    497     1
    496    515     1
    497    508     1
    497    509     1
    497    505     1
    497    506     1
    498    502     1
    498    503     1
    499    501     1
    499    511     1
    499    508     1
    499    509     1
    500    501     1
    500    511     1
    500    508     1
    500    509     1
    502    510     1
    502    505     1
    502    506     1
    503    510     1
    503    505     1
    503    506     1
    504   1065     1
    505    512     1
    505   1064     1
    506    512     1
    506   1064     1
    507   1090     1
    508    513     1
    508   1089     1
    509    513     1
    509   1089     1
    510   1045     1
    510   1046     1
    511   1070     1
    511   1071     1
    512   1065     1
    513   1090     1
    516    540     1
    516    524     1
    516    525     1
    516    527     1
    516    528     1
    517    539     1
    517    520     1
    517    521     1
    517    523     1
    517    526     1
    518    539     1
    518    520     1
    518    521     1
    518    523     1
    518    526     1
    520    522     1
    520    540     1
    521    522     1
    521    540     1
    522    533     1
    522    534     1
    522    530     1
    522    531     1
    523    527     1
    523    528     1
    524    526     1
    524    536     1
    524    533     1
    524    534     1
    525    526     1
    525    536     1
    525    533     1
    525    534     1
    527    535     1
    527    530     1
    527    531     1
    528    535     1
    528    530     1
    528    531     1
    529   1115     1
    530    537     1
    530   1114     1
    531    537     1
    531   1114     1
    532   1140     1
    533    538     1
    533   1139     1
    534    538     1
    534   1139     1
    535   1095     1
    535   1096     1
    536   1120     1
    536   1121     1
    537   1115     1
    538   1140     1
    541    565     1
    541    549     1
    541    550     1
    541    552     1
    541    553     1
    542    564     1
    542    545     1
    542    546     1
    542    548     1
    542    551     1
    543    564     1
    543    545     1
    543    546     1
    543    548     1
    543    551     1
    545    547     1
    545    565     1
    546    547     1
    546    565     1
    547    558     1
    547    559     1
    547    555     1
    547    556     1
    548    552     1
    548    553     1
    549    551     1
    549    561     1
    549    558     1
    549    559     1
    550    551     1
    550    561     1
    550    558     1
    550    559     1
    552    560     1
    552    555     1
    552    556     1
    553    560     1
    553    555     1
    553    556     1
    554   1165     1
    555    562     1
    555   1164     1
    556    562     1
    556   1164     1
    557   1190     1
    558    563     1
    558   1189     1
    559    563     1
    559   1189     1
    560   1145     1
    560   1146     1
    561   1170     1
    561   1171     1
    562   1165     1
    563   1190     1
    566    590     1
    566    574     1
    566    575     1
    566    577     1
    566    578     1
    567    589     1
    567    570     1
    567    571     1
    567    573     1
    567    576     1
    568    589     1
    568    570     1
    568    571     1
    568    573     1
    568    576     1
    570    572     1
    570    590     1
    571    572     1
    571    590     1
    572    583     1
    572    584     1
    572    580     1
    572    581     1
    573    577     1
    573    578     1
    574    576     1
    574    586     1
    574    583     1
    574    584     1
    575    576     1
    575    586     1
    575    583     1
    575    584     1
    577    585     1
    577    580     1
    577    581     1
    578    585     1
    578    580     1
    578    581     1
    579   1215     1
    580    587     1
    580   1214     1
    581    587     1
    581   1214     1
    582   1240     1
    583    588     1
    583   1239     1
    584    588     1
    584   1239     1
    585   1195     1
    585   1196     1
    586   1220     1
    586   1221     1
    587   1215     1
    588   1240     1
    591    615     1
    591    599     1
    591    600     1
    591    602     1
    591    603     1
    592    614     1
    592    595     1
    592    596     1
    592    598     1
    592    601     1
    593    614     1
    593    595     1
    593    596     1
    593    598     1
    593    601     1
    595    597     1
    595    615     1
    596    597     1
    596    615     1
    597    608     1
    597    609     1
    597    605     1
    597    606     1
    598    602     1
    598    603     1
    599    601     1
    599    611     1
    599    608     1
    599    609     1
    600    601     1
    600    611     1
    600    608     1
    600    609     1
    602    610     1
    602    605     1
    602    606     1
    603    610     1
    603    605     1
    603    606     1
    604   1265     1
    605    612     1
    605   1264     1
    606    612     1
    606   1264     1
    607   1290     1
    608    613     1
    608   1289     1
    609    613     1
    609   1289     1
    610   1245     1
    610   1246     1
    611   1270     1
    611   1271     1
    612   1265     1
    613   1290     1
    616    640     1
    616    624     1
    616    625     1
    616    627     1
    616    628     1
    617    639     1
    617    620     1
    617    621     1
    617    623     1
    617    626     1
    618    639     1
    618    620     1
    618    621     1
    618    623     1
    618    626     1
    620    622     1
    620    640     1
    621    622     1
    621    640     1
    622    633     1
    622    634     1
    622    630     1
    622    631     1
    623    627     1
    623    628     1
    624    626     1
    624    636     1
    624    633     1
    624    634     1
    625    626     1
    625    636     1
    625    633     1
    625    634     1
    627    635     1
    627    630     1
    627    631     1
    628    635     1
    628    630     1
    628    631     1
    629   1315     1
    630    637     1
    630   1314     1
    631    637     1
    631   1314     1
    632   1340     1
    633    638     1
    633   1339     1
    634    638     1
    634   1339     1
    635   1295     1
    635   1296     1
    636   1320     1
    636   1321     1
    637   1315     1
    638   1340     1
    641    665     1
    641    649     1
    641    650     1
    641    652     1
    641    653     1
    642    664     1
    642    645     1
    642    646     1
    642    648     1
    642    651     1
    643    664     1
    643    645     1
    643    646     1
    643    648     1
    643    651     1
    645    647     1
    645    665     1
    646    647     1
    646    665     1
    647    658     1
    647    659     1
    647    655     1
    647    656     1
    648    652     1
    648    653     1
    649    651     1
    649    661     1
    649    658     1
    649    659     1
    650    651     1
    650    661     1
    650    658     1
    650    659     1
    652    660     1
    652    655     1
    652    656     1
    653    660     1
    653    655     1
    653    656     1
    654   1365     1
    655    662     1
    655   1364     1
    656    662     1
    656   1364     1
    657   1390     1
    658    663     1
    658   1389     1
    659    663     1
    659   1389     1
    660   1345     1
    660   1346     1
    661   1370     1
    661   1371     1
    662   1365     1
    663   1390     1
    666    690     1
    666    674     1
    666    675     1
    666    677     1
    666    678     1
    667    689     1
    667    670     1
    667    671     1
    667    673     1
    667    676     1
    668    689     1
    668    670     1
    668    671     1
    668    673     1
    668    676     1
    670    672     1
    670    690     1
    671    672     1
    671    690     1
    672    683     1
    672    684     1
    672    680     1
    672    681     1
    673    677     1
    673    678     1
    674    676     1
    674    686     1
    674    683     1
    674    684     1
    675    676     1
    675    686     1
    675    683     1
    675    684     1
    677    685     1
    677    680     1
    677    681     1
    678    685     1
    678    680     1
    678    681     1
    679   1415     1
    680    687     1
    680   1414     1
    681    687     1
    681   1414     1
    682   1440     1
    683    688     1
    683   1439     1
    684    688     1
    684   1439     1
    685   1395     1
    685   1396     1
    686   1420     1
    686   1421     1
    687   1415     1
    688   1440     1
    691    715     1
    691    699     1
    691    700     1
    691    702     1
    691    703     1
    692    714     1
    692    695     1
    692    696     1
    692    698     1
    692    701     1
    693    714     1
    693    695     1
    693    696     1
    693    698     1
    693    701     1
    695    697     1
    695    715     1
    696    697     1
    696    715     1
    697    708     1
    697    709     1
    697    705     1
    697    706     1
    698    702     1
    698    703     1
    699    701     1
    699    711     1
    699    708     1
    699    709     1
    700    701     1
    700    711     1
    700    708     1
    700    709     1
    702    710     1
    702    705     1
    702    706     1
    703    710     1
    703    705     1
    703    706     1
    704   1465     1
    705    712     1
    705   1464     1
    706    712     1
    706   1464     1
    707   1490     1
    708    713     1
    708   1489     1
    709    713     1
    709   1489     1
    710   1445     1
    710   1446     1
    711   1470     1
    711   1471     1
    712   1465     1
    713   1490     1
    716    740     1
    716    724     1
    716    725     1
    716    727     1
    716    728     1
    717    739     1
    717    720     1
    717    721     1
    717    723     1
    717    726     1
    718    739     1
    718    720     1
    718    721     1
    718    723     1
    718    726     1
    720    722     1
    720    740     1
    721    722     1
    721    740     1
    722    733     1
    722    734     1
    722    730     1
    722    731     1
    723    727     1
    723    728     1
    724    726     1
    724    736     1
    724    733     1
    724    734     1
    725    726     1
    725    736     1
    725    733     1
    725    734     1
    727    735     1
    727    730     1
    727    731     1
    728    735     1
    728    730     1
    728    731     1
    729   1515     1
    730    737     1
    730   1514     1
    731    737     1
    731   1514     1
    732   1540     1
    733    738     1
    733   1539     1
    734    738     1
    734   1539     1
    735   1495     1
    735   1496     1
    736   1520     1
    736   1521     1
    737   1515     1
    738   1540     1
    741    765     1
    741    749     1
    741    750     1
    741    752     1
    741    753     1
    742    764     1
    742    745     1
    742    746     1
    742    748     1
    742    751     1
    743    764     1
    743    745     1
    743    746     1
    743    748     1
    743    751     1
    745    747     1
    745    765     1
    746    747     1
    746    765     1
    747    758     1
    747    759     1
    747    755     1
    747    756     1
    748    752     1
    748    753     1
    749    751     1
    749    761     1
    749    758     1
    749    759     1
    750    751     1
    750    761     1
    750    758     1
    750    759     1
    752    760     1
    752    755     1
    752    756     1
    753    760     1
    753    755     1
    753    756     1
    754   1542     1
    755   1541     1
    755    762     1
    756   1541     1
    756    762     1
    757   1615     1
    758    763     1
    758   1614     1
    759    763     1
    759   1614     1
    760   1544     1
    760   1546     1
    761   1617     1
    761   1619     1
    762   1542     1
    763   1615     1
    766    790     1
    766    774     1
    766    775     1
    766    777     1
    766    778     1
    767    789     1
    767    770     1
    767    771     1
    767    773     1
    767    776     1
    768    789     1
    768    770     1
    768    771     1
    768    773     1
    768    776     1
    770    772     1
    770    790     1
    771    772     1
    771    790     1
    772    783     1
    772    784     1
    772    780     1
    772    781     1
    773    777     1
    773    778     1
    774    776     1
    774    786     1
    774    783     1
    774    784     1
    775    776     1
    775    786     1
    775    783     1
    775    784     1
    777    785     1
    777    780     1
    777    781     1
    778    785     1
    778    780     1
    778    781     1
    779   1688     1
    780   1687     1
    780    787     1
    781   1687     1
    781    787     1
    782   1761     1
    783    788     1
    783   1760     1
    784    788     1
    784   1760     1
    785   1690     1
    785   1692     1
    786   1763     1
    786   1765     1
    787   1688     1
    788   1761     1
    791    815     1
    791    799     1
    791    800     1
    791    802     1
    791    803     1
    792    814     1
    792    795     1
    792    796     1
    792    798     1
    792    801     1
    793    814     1
    793    795     1
    793    796     1
    793    798     1
    793    801     1
    795    797     1
    795    815     1
    796    797     1
    796    815     1
    797    808     1
    797    809     1
    797    805     1
    797    806     1
    798    802     1
    798    803     1
    799    801     1
    799    811     1
    799    808     1
    799    809     1
    800    801     1
    800    811     1
    800    808     1
    800    809     1
    802    810     1
    802    805     1
    802    806     1
    803    810     1
    803    805     1
    803    806     1
    804   1834     1
    805   1833     1
    805    812     1
    806   1833     1
    806    812     1
    807   1907     1
    808    813     1
    808   1906     1
    809    813     1
    809   1906     1
    810   1836     1
    810   1838     1
    811   1909     1
    811   1911     1
    812   1834     1
    813   1907     1
    816    840     1
    816    824     1
    816    825     1
    816    827     1
    816    828     1
    817    839     1
    817    820     1
    817    821     1
    817    823     1
    817    826     1
    818    839     1
    818    820     1
    818    821     1
    818    823     1
    818    826     1
    820    822     1
    820    840     1
    821    822     1
    821    840     1
    822    833     1
    822    834     1
    822    830     1
    822    831     1
    823    827     1
    823    828     1
    824    826     1
    824    836     1
    824    833     1
    824    834     1
    825    826     1
    825    836     1
    825    833     1
    825    834     1
    827    835     1
    827    830     1
    827    831     1
    828    835     1
    828    830     1
    828    831     1
    829   1980     1
    830   1979     1
    830    837     1
    831   1979     1
    831    837     1
    832   2053     1
    833    838     1
    833   2052     1
    834    838     1
    834   2052     1
    835   1982     1
    835   1984     1
    836   2055     1
    836   2057     1
    837   1980     1
    838   2053     1
    841    865     1
    841    849     1
    841    850     1
    841    852     1
    841    853     1
    842    864     1
    842    845     1
    842    846     1
    842    848     1
    842    851     1
    843    864     1
    843    845     1
    843    846     1
    843    848     1
    843    851     1
    845    847     1
    845    865     1
    846    847     1
    846    865     1
    847    858     1
    847    859     1
    847    855     1
    847    856     1
    848    852     1
    848    853     1
    849    851     1
    849    861     1
    849    858     1
    849    859     1
    850    851     1
    850    861     1
    850    858     1
    850    859     1
    852    860     1
    852    855     1
    852    856     1
    853    860     1
    853    855     1
    853    856     1
    854   2126     1
    855   2125     1
    855    862     1
    856   2125     1
    856    862     1
    857   2199     1
    858    863     1
    858   2198     1
    859    863     1
    859   2198     1
    860   2128     1
    860   2130     1
    861   2201     1
    861   2203     1
    862   2126     1
    863   2199     1
    866    890     1
    866    874     1
    866    875     1
    866    877     1
    866    878     1
    867    889     1
    867    870     1
    867    871     1
    867    873     1
    867    876     1
    868    889     1
    868    870     1
    868    871     1
    868    873     1
    868    876     1
    870    872     1
    870    890     1
    871    872     1
    871    890     1
    872    883     1
    872    884     1
    872    880     1
    872    881     1
    873    877     1
    873    878     1
    874    876     1
    874    886     1
    874    883     1
    874    884     1
    875    876     1
    875    886     1
    875    883     1
    875    884     1
    877    885     1
    877    880     1
    877    881     1
    878    885     1
    878    880     1
    878    881     1
    879   2272     1
    880   2271     1
    880    887     1
    881   2271     1
    881    887     1
    882   2345     1
    883    888     1
    883   2344     1
    884    888     1
    884   2344     1
    885   2274     1
    885   2276     1
    886   2347     1
    886   2349     1
    887   2272     1
    888   2345     1
    891    915     1
    891    899     1
    891    900     1
    891    902     1
    891    903     1
    892    914     1
    892    895     1
    892    896     1
    892    898     1
    892    901     1
    893    914     1
    893    895     1
    893    896     1
    893    898     1
    893    901     1
    895    897     1
    895    915     1
    896    897     1
    896    915     1
    897    908     1
    897    909     1
    897    905     1
    897    906     1
    898    902     1
    898    903     1
    899    901     1
    899    911     1
    899    908     1
    899    909     1
    900    901     1
    900    911     1
    900    908     1
    900    909     1
    902    910     1
    902    905     1
    902    906     1
    903    910     1
    903    905     1
    903    906     1
    904   2418     1
    905   2417     1
    905    912     1
    906   2417     1
    906    912     1
    907   2491     1
    908    913     1
    908   2490     1
    909    913     1
    909   2490     1
    910   2420     1
    910   2422     1
    911   2493     1
    911   2495     1
    912   2418     1
    913   2491     1
    916    940     1
    916    924     1
    916    925     1
    916    927     1
    916    928     1
    917    939     1
    917    920     1
    917    921     1
    917    923     1
    917    926     1
    918    939     1
    918    920     1
    918    921     1
    918    923     1
    918    926     1
    920    922     1
    920    940     1
    921    922     1
    921    940     1
    922    933     1
    922    934     1
    922    930     1
    922    931     1
    923    927     1
    923    928     1
    924    926     1
    924    936     1
    924    933     1
    924    934     1
    925    926     1
    925    936     1
    925    933     1
    925    934     1
    927    935     1
    927    930     1
    927    931     1
    928    935     1
    928    930     1
    928    931     1
    929   2564     1
    930   2563     1
    930    937     1
    931   2563     1
    931    937     1
    932   2637     1
    933    938     1
    933   2636     1
    934    938     1
    934   2636     1
    935   2566     1
    935   2568     1
    936   2639     1
    936   2641     1
    937   2564     1
    938   2637     1
    941    965     1
    941    949     1
    941    950     1
    941    952     1
    941    953     1
    942    964     1
    942    945     1
    942    946     1
    942    948     1
    942    951     1
    943    964     1
    943    945     1
    943    946     1
    943    948     1
    943    951     1
    945    947     1
    945    965     1
    946    947     1
    946    965     1
    947    958     1
    947    959     1
    947    955     1
    947    956     1
    948    952     1
    948    953     1
    949    951     1
    949    961     1
    949    958     1
    949    959     1
    950    951     1
    950    961     1
    950    958     1
    950    959     1
    952    960     1
    952    955     1
    952    956     1
    953    960     1
    953    955     1
    953    956     1
    954   2710     1
    955   2709     1
    955    962     1
    956   2709     1
    956    962     1
    957   2783     1
    958    963     1
    958   2782     1
    959    963     1
    959   2782     1
    960   2712     1
    960   2714     1
    961   2785     1
    961   2787     1
    962   2710     1
    963   2783     1
    966    990     1
    966    974     1
    966    975     1
    966    977     1
    966    978     1
    967    989     1
    967    970     1
    967    971     1
    967    973     1
    967    976     1
    968    989     1
    968    970     1
    968    971     1
    968    973     1
    968    976     1
    970    972     1
    970    990     1
    971    972     1
    971    990     1
    972    983     1
    972    984     1
    972    980     1
    972    981     1
    973    977     1
    973    978     1
    974    976     1
    974    986     1
    974    983     1
    974    984     1
    975    976     1
    975    986     1
    975    983     1
    975    984     1
    977    985     1
    977    980     1
    977    981     1
    978    985     1
    978    980     1
    978    981     1
    979   2856     1
    980   2855     1
    980    987     1
    981   2855     1
    981    987     1
    982   2929     1
    983    988     1
    983   2928     1
    984    988     1
    984   2928     1
    985   2858     1
    985   2860     1
    986   2931     1
    986   2933     1
    987   2856     1
    988   2929     1
    991   1015     1
    991    999     1
    991   1000     1
    991   1002     1
    991   1003     1
    992   1014     1
    992    995     1
    992    996     1
    992    998     1
    992   1001     1
    993   1014     1
    993    995     1
    993    996     1
    993    998     1
    993   1001     1
    995    997     1
    995   1015     1
    996    997     1
    996   1015     1
    997   1008     1
    997   1009     1
    997   1005     1
    997   1006     1
    998   1002     1
    998   1003     1
    999   1001     1
    999   1011     1
    999   1008     1
    999   1009     1
   1000   1001     1
   1000   1011     1
   1000   1008     1
   1000   1009     1
   1002   1010     1
   1002   1005     1
   1002   1006     1
   1003   1010     1
   1003   1005     1
   1003   1006     1
   1004   3002     1
   1005   3001     1
   1005   1012     1
   1006   3001     1
   1006   1012     1
   1007   3075     1
   1008   1013     1
   1008   3074     1
   1009   1013     1
   1009   3074     1
   1010   3004     1
   1010   3006     1
   1011   3077     1
   1011   3079     1
   1012   3002     1
   1013   3075     1
   1016   1040     1
   1016   1024     1
   1016   1025     1
   1016   1027     1
   1016   1028     1
   1017   1039     1
   1017   1020     1
   1017   1021     1
   1017   1023     1
   1017   1026     1
   1018   1039     1
   1018   1020     1
   1018   1021     1
   1018   1023     1
   1018   1026     1
   1020   1022     1
   1020   1040     1
   1021   1022     1
   1021   1040     1
   1022   1033     1
   1022   1034     1
   1022   1030     1
   1022   1031     1
   1023   1027     1
   1023   1028     1
   1024   1026     1
   1024   1036     1
   1024   1033     1
   1024   1034     1
   1025   1026     1
   1025   1036     1
   1025   1033     1
   1025   1034     1
   1027   1035     1
   1027   1030     1
   1027   1031     1
   1028   1035     1
   1028   1030     1
   1028   1031     1
   1029   3148     1
   1030   3147     1
   1030   1037     1
   1031   3147     1
   1031   1037     1
   1032   3221     1
   1033   1038     1
   1033   3220     1
   1034   1038     1
   1034   3220     1
   1035   3150     1
   1035   3152     1
   1036   3223     1
   1036   3225     1
   1037   3148     1
   1038   3221     1
   1041   1065     1
   1041   1049     1
   1041   1050     1
   1041   1052     1
   1041   1053     1
   1042   1064     1
   1042   1045     1
   1042   1046     1
   1042   1048     1
   1042   1051     1
   1043   1064     1
   1043   1045     1
   1043   1046     1
   1043   1048     1
   1043   1051     1
   1045   1047     1
   1045   1065     1
   1046   1047     1
   1046   1065     1
   1047   1058     1
   1047   1059     1
   1047   1055     1
   1047   1056     1
   1048   1052     1
   1048   1053     1
   1049   1051     1
   1049   1061     1
   1049   1058     1
   1049   1059     1
   1050   1051     1
   1050   1061     1
   1050   1058     1
   1050   1059     1
   1052   1060     1
   1052   1055     1
   1052   1056     1
   1053   1060     1
   1053   1055     1
   1053   1056     1
   1054   3294     1
   1055   3293     1
   1055   1062     1
   1056   3293     1
   1056   1062     1
   1057   3367     1
   1058   1063     1
   1058   3366     1
   1059   1063     1
   1059   3366     1
   1060   3296     1
   1060   3298     1
   1061   3369     1
   1061   3371     1
   1062   3294     1
   1063   3367     1
   1066   1090     1
   1066   1074     1
   1066   1075     1
   1066   1077     1
   1066   1078     1
   1067   1089     1
   1067   1070     1
   1067   1071     1
   1067   1073     1
   1067   1076     1
   1068   1089     1
   1068   1070     1
   1068   1071     1
   1068   1073     1
   1068   1076     1
   1070   1072     1
   1070   1090     1
   1071   1072     1
   1071   1090     1
   1072   1083     1
   1072   1084     1
   1072   1080     1
   1072   1081     1
   1073   1077     1
   1073   1078     1
   1074   1076     1
   1074   1086     1
   1074   1083     1
   1074   1084     1
   1075   1076     1
   1075   1086     1
   1075   1083     1
   1075   1084     1
   1077   1085     1
   1077   1080     1
   1077   1081     1
   1078   1085     1
   1078   1080     1
   1078   1081     1
   1079   3440     1
   1080   3439     1
   1080   1087     1
   1081   3439     1
   1081   1087     1
   1082   3513     1
   1083   1088     1
   1083   3512     1
   1084   1088     1
   1084   3512     1
   1085   3442     1
   1085   3444     1
   1086   3515     1
   1086   3517     1
   1087   3440     1
   1088   3513     1
   1091   1115     1
   1091   1099     1
   1091   1100     1
   1091   1102     1
   1091   1103     1
   1092   1114     1
   1092   1095     1
   1092   1096     1
   1092   1098     1
   1092   1101     1
   1093   1114     1
   1093   1095     1
   1093   1096     1
   1093   1098     1
   1093   1101     1
   1095   1097     1
   1095   1115     1
   1096   1097     1
   1096   1115     1
   1097   1108     1
   1097   1109     1
   1097   1105     1
   1097   1106     1
   1098   1102     1
   1098   1103     1
   1099   1101     1
   1099   1111     1
   1099   1108     1
   1099   1109     1
   1100   1101     1
   1100   1111     1
   1100   1108     1
   1100   1109     1
   1102   1110     1
   1102   1105     1
   1102   1106     1
   1103   1110     1
   1103   1105     1
   1103   1106     1
   1104   3586     1
   1105   3585     1
   1105   1112     1
   1106   3585     1
   1106   1112     1
   1107   3659     1
   1108   1113     1
   1108   3658     1
   1109   1113     1
   1109   3658     1
   1110   3588     1
   1110   3590     1
   1111   3661     1
   1111   3663     1
   1112   3586     1
   1113   3659     1
   1116   1140     1
   1116   1124     1
   1116   1125     1
   1116   1127     1
   1116   1128     1
   1117   1139     1
   1117   1120     1
   1117   1121     1
   1117   1123     1
   1117   1126     1
   1118   1139     1
   1118   1120     1
   1118   1121     1
   1118   1123     1
   1118   1126     1
   1120   1122     1
   1120   1140     1
   1121   1122     1
   1121   1140     1
   1122   1133     1
   1122   1134     1
   1122   1130     1
   1122   1131     1
   1123   1127     1
   1123   1128     1
   1124   1126     1
   1124   1136     1
   1124   1133     1
   1124   1134     1
   1125   1126     1
   1125   1136     1
   1125   1133     1
   1125   1134     1
   1127   1135     1
   1127   1130     1
   1127   1131     1
   1128   1135     1
   1128   1130     1
   1128   1131     1
   1129   3732     1
   1130   3731     1
   1130   1137     1
   1131   3731     1
   1131   1137     1
   1132   3805     1
   1133   1138     1
   1133   3804     1
   1134   1138     1
   1134   3804     1
   1135   3734     1
   1135   3736     1
   1136   3807     1
   1136   3809     1
   1137   3732     1
   1138   3805     1
   1141   1165     1
   1141   1149     1
   1141   1150     1
   1141   1152     1
   1141   1153     1
   1142   1164     1
   1142   1145     1
   1142   1146     1
   1142   1148     1
   1142   1151     1
   1143   1164     1
   1143   1145     1
   1143   1146     1
   1143   1148     1
   1143   1151     1
   1145   1147     1
   1145   1165     1
   1146   1147     1
   1146   1165     1
   1147   1158     1
   1147   1159     1
   1147   1155     1
   1147   1156     1
   1148   1152     1
   1148   1153     1
   1149   1151     1
   1149   1161     1
   1149   1158     1
   1149   1159     1
   1150   1151     1
   1150   1161     1
   1150   1158     1
   1150   1159     1
   1152   1160     1
   1152   1155     1
   1152   1156     1
   1153   1160     1
   1153   1155     1
   1153   1156     1
   1154   3878     1
   1155   3877     1
   1155   1162     1
   1156   3877     1
   1156   1162     1
   1157   3951     1
   1158   1163     1
   1158   3950     1
   1159   1163     1
   1159   3950     1
   1160   3880     1
   1160   3882     1
   1161   3953     1
   1161   3955     1
   1162   3878     1
   1163   3951     1
   1166   1190     1
   1166   1174     1
   1166   1175     1
   1166   1177     1
   1166   1178     1
   1167   1189     1
   1167   1170     1
   1167   1171     1
   1167   1173     1
   1167   1176     1
   1168   1189     1
   1168   1170     1
   1168   1171     1
   1168   1173     1
   1168   1176     1
   1170   1172     1
   1170   1190     1
   1171   1172     1
   1171   1190     1
   1172   1183     1
   1172   1184     1
   1172   1180     1
   1172   1181     1
   1173   1177     1
   1173   1178     1
   1174   1176     1
   1174   1186     1
   1174   1183     1
   1174   1184     1
   1175   1176     1
   1175   1186     1
   1175   1183     1
   1175   1184     1
   1177   1185     1
   1177   1180     1
   1177   1181     1
   1178   1185     1
   1178   1180     1
   1178   1181     1
   1179   4024     1
   1180   4023     1
   1180   1187     1
   1181   4023     1
   1181   1187     1
   1182   4097     1
   1183   1188     1
   1183   4096     1
   1184   1188     1
   1184   4096     1
   1185   4026     1
   1185   4028     1
   1186   4099     1
   1186   4101     1
   1187   4024     1
   1188   4097     1
   1191   1215     1
   1191   1199     1
   1191   1200     1
   1191   1202     1
   1191   1203     1
   1192   1214     1
   1192   1195     1
   1192   1196     1
   1192   1198     1
   1192   1201     1
   1193   1214     1
   1193   1195     1
   1193   1196     1
   1193   1198     1
   1193   1201     1
   1195   1197     1
   1195   1215     1
   1196   1197     1
   1196   1215     1
   1197   1208     1
   1197   1209     1
   1197   1205     1
   1197   1206     1
   1198   1202     1
   1198   1203     1
   1199   1201     1
   1199   1211     1
   1199   1208     1
   1199   1209     1
   1200   1201     1
   1200   1211     1
   1200   1208     1
   1200   1209     1
   1202   1210     1
   1202   1205     1
   1202   1206     1
   1203   1210     1
   1203   1205     1
   1203   1206     1
   1204   4170     1
   1205   4169     1
   1205   1212     1
   1206   4169     1
   1206   1212     1
   1207   4243     1
   1208   1213     1
   1208   4242     1
   1209   1213     1
   1209   4242     1
   1210   4172     1
   1210   4174     1
   1211   4245     1
   1211   4247     1
   1212   4170     1
   1213   4243     1
   1216   1240     1
   1216   1224     1
   1216   1225     1
   1216   1227     1
   1216   1228     1
   1217   1239     1
   1217   1220     1
   1217   1221     1
   1217   1223     1
   1217   1226     1
   1218   1239     1
   1218   1220     1
   1218   1221     1
   1218   1223     1
   1218   1226     1
   1220   1222     1
   1220   1240     1
   1221   1222     1
   1221   1240     1
   1222   1233     1
   1222   1234     1
   1222   1230     1
   1222   1231     1
   1223   1227     1
   1223   1228     1
   1224   1226     1
   1224   1236     1
   1224   1233     1
   1224   1234     1
   1225   1226     1
   1225   1236     1
   1225   1233     1
   1225   1234     1
   1227   1235     1
   1227   1230     1
   1227   1231     1
   1228   1235     1
   1228   1230     1
   1228   1231     1
   1229   4316     1
   1230   4315     1
   1230   1237     1
   1231   4315     1
   1231   1237     1
   1232   4389     1
   1233   1238     1
   1233   4388     1
   1234   1238     1
   1234   4388     1
   1235   4318     1
   1235   4320     1
   1236   4391     1
   1236   4393     1
   1237   4316     1
   1238   4389     1
   1241   1265     1
   1241   1249     1
   1241   1250     1
   1241   1252     1
   1241   1253     1
   1242   1264     1
   1242   1245     1
   1242   1246     1
   1242   1248     1
   1242   1251     1
   1243   1264     1
   1243   1245     1
   1243   1246     1
   1243   1248     1
   1243   1251     1
   1245   1247     1
   1245   1265     1
   1246   1247     1
   1246   1265     1
   1247   1258     1
   1247   1259     1
   1247   1255     1
   1247   1256     1
   1248   1252     1
   1248   1253     1
   1249   1251     1
   1249   1261     1
   1249   1258     1
   1249   1259     1
   1250   1251     1
   1250   1261     1
   1250   1258     1
   1250   1259     1
   1252   1260     1
   1252   1255     1
   1252   1256     1
   1253   1260     1
   1253   1255     1
   1253   1256     1
   1254   4462     1
   1255   4461     1
   1255   1262     1
   1256   4461     1
   1256   1262     1
   1257   4535     1
   1258   1263     1
   1258   4534     1
   1259   1263     1
   1259   4534     1
   1260   4464     1
   1260   4466     1
   1261   4537     1
   1261   4539     1
   1262   4462     1
   1263   4535     1
   1266   1290     1
   1266   1274     1
   1266   1275     1
   1266   1277     1
   1266   1278     1
   1267   1289     1
   1267   1270     1
   1267   1271     1
   1267   1273     1
   1267   1276     1
   1268   1289     1
   1268   1270     1
   1268   1271     1
   1268   1273     1
   1268   1276     1
   1270   1272     1
   1270   1290     1
   1271   1272     1
   1271   1290     1
   1272   1283     1
   1272   1284     1
   1272   1280     1
   1272   1281     1
   1273   1277     1
   1273   1278     1
   1274   1276     1
   1274   1286     1
   1274   1283     1
   1274   1284     1
   1275   1276     1
   1275   1286     1
   1275   1283     1
   1275   1284     1
   1277   1285     1
   1277   1280     1
   1277   1281     1
   1278   1285     1
   1278   1280     1
   1278   1281     1
   1279   4608     1
   1280   4607     1
   1280   1287     1
   1281   4607     1
   1281   1287     1
   1282   4681     1
   1283   1288     1
   1283   4680     1
   1284   1288     1
   1284   4680     1
   1285   4610     1
   1285   4612     1
   1286   4683     1
   1286   4685     1
   1287   4608     1
   1288   4681     1
   1291   1315     1
   1291   1299     1
   1291   1300     1
   1291   1302     1
   1291   1303     1
   1292   1314     1
   1292   1295     1
   1292   1296     1
   1292   1298     1
   1292   1301     1
   1293   1314     1
   1293   1295     1
   1293   1296     1
   1293   1298     1
   1293   1301     1
   1295   1297     1
   1295   1315     1
   1296   1297     1
   1296   1315     1
   1297   1308     1
   1297   1309     1
   1297   1305     1
   1297   1306     1
   1298   1302     1
   1298   1303     1
   1299   1301     1
   1299   1311     1
   1299   1308     1
   1299   1309     1
   1300   1301     1
   1300   1311     1
   1300   1308     1
   1300   1309     1
   1302   1310     1
   1302   1305     1
   1302   1306     1
   1303   1310     1
   1303   1305     1
   1303   1306     1
   1304   4754     1
   1305   4753     1
   1305   1312     1
   1306   4753     1
   1306   1312     1
   1307   4827     1
   1308   1313     1
   1308   4826     1
   1309   1313     1
   1309   4826     1
   1310   4756     1
   1310   4758     1
   1311   4829     1
   1311   4831     1
   1312   4754     1
   1313   4827     1
   1316   1340     1
   1316   1324     1
   1316   1325     1
   1316   1327     1
   1316   1328     1
   1317   1339     1
   1317   1320     1
   1317   1321     1
   1317   1323     1
   1317   1326     1
   1318   1339     1
   1318   1320     1
   1318   1321     1
   1318   1323     1
   1318   1326     1
   1320   1322     1
   1320   1340     1
   1321   1322     1
   1321   1340     1
   1322   1333     1
   1322   1334     1
   1322   1330     1
   1322   1331     1
   1323   1327     1
   1323   1328     1
   1324   1326     1
   1324   1336     1
   1324   1333     1
   1324   1334     1
   1325   1326     1
   1325   1336     1
   1325   1333     1
   1325   1334     1
   1327   1335     1
   1327   1330     1
   1327   1331     1
   1328   1335     1
   1328   1330     1
   1328   1331     1
   1329   4900     1
   1330   4899     1
   1330   1337     1
   1331   4899     1
   1331   1337     1
   1332   4973     1
   1333   1338     1
   1333   4972     1
   1334   1338     1
   1334   4972     1
   1335   4902     1
   1335   4904     1
   1336   4975     1
   1336   4977     1
   1337   4900     1
   1338   4973     1
   1341   1365     1
   1341   1349     1
   1341   1350     1
   1341   1352     1
   1341   1353     1
   1342   1364     1
   1342   1345     1
   1342   1346     1
   1342   1348     1
   1342   1351     1
   1343   1364     1
   1343   1345     1
   1343   1346     1
   1343   1348     1
   1343   1351     1
   1345   1347     1
   1345   1365     1
   1346   1347     1
   1346   1365     1
   1347   1358     1
   1347   1359     1
   1347   1355     1
   1347   1356     1
   1348   1352     1
   1348   1353     1
   1349   1351     1
   1349   1361     1
   1349   1358     1
   1349   1359     1
   1350   1351     1
   1350   1361     1
   1350   1358     1
   1350   1359     1
   1352   1360     1
   1352   1355     1
   1352   1356     1
   1353   1360     1
   1353   1355     1
   1353   1356     1
   1354   5046     1
   1355   5045     1
   1355   1362     1
   1356   5045     1
   1356   1362     1
   1357   5119     1
   1358   1363     1
   1358   5118     1
   1359   1363     1
   1359   5118     1
   1360   5048     1
   1360   5050     1
   1361   5121     1
   1361   5123     1
   1362   5046     1
   1363   5119     1
   1366   1390     1
   1366   1374     1
   1366   1375     1
   1366   1377     1
   1366   1378     1
   1367   1389     1
   1367   1370     1
   1367   1371     1
   1367   1373     1
   1367   1376     1
   1368   1389     1
   1368   1370     1
   1368   1371     1
   1368   1373     1
   1368   1376     1
   1370   1372     1
   1370   1390     1
   1371   1372     1
   1371   1390     1
   1372   1383     1
   1372   1384     1
   1372   1380     1
   1372   1381     1
   1373   1377     1
   1373   1378     1
   1374   1376     1
   1374   1386     1
   1374   1383     1
   1374   1384     1
   1375   1376     1
   1375   1386     1
   1375   1383     1
   1375   1384     1
   1377   1385     1
   1377   1380     1
   1377   1381     1
   1378   1385     1
   1378   1380     1
   1378   1381     1
   1379   5192     1
   1380   5191     1
   1380   1387     1
   1381   5191     1
   1381   1387     1
   1382   5265     1
   1383   1388     1
   1383   5264     1
   1384   1388     1
   1384   5264     1
   1385   5194     1
   1385   5196     1
   1386   5267     1
   1386   5269     1
   1387   5192     1
   1388   5265     1
   1391   1415     1
   1391   1399     1
   1391   1400     1
   1391   1402     1
   1391   1403     1
   1392   1414     1
   1392   1395     1
   1392   1396     1
   1392   1398     1
   1392   1401     1
   1393   1414     1
   1393   1395     1
   1393   1396     1
   1393   1398     1
   1393   1401     1
   1395   1397     1
   1395   1415     1
   1396   1397     1
   1396   1415     1
   1397   1408     1
   1397   1409     1
   1397   1405     1
   1397   1406     1
   1398   1402     1
   1398   1403     1
   1399   1401     1
   1399   1411     1
   1399   1408     1
   1399   1409     1
   1400   1401     1
   1400   1411     1
   1400   1408     1
   1400   1409     1
   1402   1410     1
   1402   1405     1
   1402   1406     1
   1403   1410     1
   1403   1405     1
   1403   1406     1
   1404   5338     1
   1405   5337     1
   1405   1412     1
   1406   5337     1
   1406   1412     1
   1407   5411     1
   1408   1413     1
   1408   5410     1
   1409   1413     1
   1409   5410     1
   1410   5340     1
   1410   5342     1
   1411   5413     1
   1411   5415     1
   1412   5338     1
   1413   5411     1
   1416   1440     1
   1416   1424     1
   1416   1425     1
   1416   1427     1
   1416   1428     1
   1417   1439     1
   1417   1420     1
   1417   1421     1
   1417   1423     1
   1417   1426     1
   1418   1439     1
   1418   1420     1
   1418   1421     1
   1418   1423     1
   1418   1426     1
   1420   1422     1
   1420   1440     1
   1421   1422     1
   1421   1440     1
   1422   1433     1
   1422   1434     1
   1422   1430     1
   1422   1431     1
   1423   1427     1
   1423   1428     1
   1424   1426     1
   1424   1436     1
   1424   1433     1
   1424   1434     1
   1425   1426     1
   1425   1436     1
   1425   1433     1
   1425   1434     1
   1427   1435     1
   1427   1430     1
   1427   1431     1
   1428   1435     1
   1428   1430     1
   1428   1431     1
   1429   5484     1
   1430   5483     1
   1430   1437     1
   1431   5483     1
   1431   1437     1
   1432   5557     1
   1433   1438     1
   1433   5556     1
   1434   1438     1
   1434   5556     1
   1435   5486     1
   1435   5488     1
   1436   5559     1
   1436   5561     1
   1437   5484     1
   1438   5557     1
   1441   1465     1
   1441   1449     1
   1441   1450     1
   1441   1452     1
   1441   1453     1
   1442   1464     1
   1442   1445     1
   1442   1446     1
   1442   1448     1
   1442   1451     1
   1443   1464     1
   1443   1445     1
   1443   1446     1
   1443   1448     1
   1443   1451     1
   1445   1447     1
   1445   1465     1
   1446   1447     1
   1446   1465     1
   1447   1458     1
   1447   1459     1
   1447   1455     1
   1447   1456     1
   1448   1452     1
   1448   1453     1
   1449   1451     1
   1449   1461     1
   1449   1458     1
   1449   1459     1
   1450   1451     1
   1450   1461     1
   1450   1458     1
   1450   1459     1
   1452   1460     1
   1452   1455     1
   1452   1456     1
   1453   1460     1
   1453   1455     1
   1453   1456     1
   1454   5630     1
   1455   5629     1
   1455   1462     1
   1456   5629     1
   1456   1462     1
   1457   5703     1
   1458   1463     1
   1458   5702     1
   1459   1463     1
   1459   5702     1
   1460   5632     1
   1460   5634     1
   1461   5705     1
   1461   5707     1
   1462   5630     1
   1463   5703     1
   1466   1490     1
   1466   1474     1
   1466   1475     1
   1466   1477     1
   1466   1478     1
   1467   1489     1
   1467   1470     1
   1467   1471     1
   1467   1473     1
   1467   1476     1
   1468   1489     1
   1468   1470     1
   1468   1471     1
   1468   1473     1
   1468   1476     1
   1470   1472     1
   1470   1490     1
   1471   1472     1
   1471   1490     1
   1472   1483     1
   1472   1484     1
   1472   1480     1
   1472   1481     1
   1473   1477     1
   1473   1478     1
   1474   1476     1
   1474   1486     1
   1474   1483     1
   1474   1484     1
   1475   1476     1
   1475   1486     1
   1475   1483     1
   1475   1484     1
   1477   1485     1
   1477   1480     1
   1477   1481     1
   1478   1485     1
   1478   1480     1
   1478   1481     1
   1479   5776     1
   1480   5775     1
   1480   1487     1
   1481   5775     1
   1481   1487     1
   1482   5849     1
   1483   1488     1
   1483   5848     1
   1484   1488     1
   1484   5848     1
   1485   5778     1
   1485   5780     1
   1486   5851     1
   1486   5853     1
   1487   5776     1
   1488   5849     1
   1491   1515     1
   1491   1499     1
   1491   1500     1
   1491   1502     1
   1491   1503     1
   1492   1514     1
   1492   1495     1
   1492   1496     1
   1492   1498     1
   1492   1501     1
   1493   1514     1
   1493   1495     1
   1493   1496     1
   1493   1498     1
   1493   1501     1
   1495   1497     1
   1495   1515     1
   1496   1497     1
   1496   1515     1
   1497   1508     1
   1497   1509     1
   1497   1505     1
   1497   1506     1
   1498   1502     1
   1498   1503     1
   1499   1501     1
   1499   1511     1
   1499   1508     1
   1499   1509     1
   1500   1501     1
   1500   1511     1
   1500   1508     1
   1500   1509     1
   1502   1510     1
   1502   1505     1
   1502   1506     1
   1503   1510     1
   1503   1505     1
   1503   1506     1
   1504   5922     1
   1505   5921     1
   1505   1512     1
   1506   5921     1
   1506   1512     1
   1507   5995     1
   1508   1513     1
   1508   5994     1
   1509   1513     1
   1509   5994     1
   1510   5924     1
   1510   5926     1
   1511   5997     1
   1511   5999     1
   1512   5922     1
   1513   5995     1
   1516   1540     1
   1516   1524     1
   1516   1525     1
   1516   1527     1
   1516   1528     1
   1517   1539     1
   1517   1520     1
   1517   1521     1
   1517   1523     1
   1517   1526     1
   1518   1539     1
   1518   1520     1
   1518   1521     1
   1518   1523     1
   1518   1526     1
   1520   1522     1
   1520   1540     1
   1521   1522     1
   1521   1540     1
   1522   1533     1
   1522   1534     1
   1522   1530     1
   1522   1531     1
   1523   1527     1
   1523   1528     1
   1524   1526     1
   1524   1536     1
   1524   1533     1
   1524   1534     1
   1525   1526     1
   1525   1536     1
   1525   1533     1
   1525   1534     1
   1527   1535     1
   1527   1530     1
   1527   1531     1
   1528   1535     1
   1528   1530     1
   1528   1531     1
   1529   6068     1
   1530   6067     1
   1530   1537     1
   1531   6067     1
   1531   1537     1
   1532   6141     1
   1533   6140     1
   1533   1538     1
   1534   6140     1
   1534   1538     1
   1535   6070     1
   1535   6072     1
   1536   6143     1
   1536   6145     1
   1537   6068     1
   1538   6141     1
   1541   1547     1
   1541   1548     1
   1542   1545     1
   1542   1544     1
   1542   1546     1
   1544   1549     1
   1544   1547     1
   1544   1548     1
   1545   1559     1
   1545   1560     1
   1545   1552     1
   1545   1554     1
   1546   1549     1
   1546   1547     1
   1546   1548     1
   1547   1550     1
   1547   1551     1
   1548   1550     1
   1548   1551     1
   1549   1562     1
   1549   1563     1
   1549   1555     1
   1549   1556     1
   1550   1552     1
   1550   1554     1
   1551   1559     1
   1551   1560     1
   1552   1557     1
   1552   1555     1
   1552   1556     1
   1553   1579     1
   1554   1557     1
   1554   1555     1
   1554   1556     1
   1555   1558     1
   1555   1589     1
   1556   1558     1
   1556   1589     1
   1557   1572     1
   1558   1579     1
   1559   1564     1
   1559   1562     1
   1559   1563     1
   1560   1564     1
   1560   1562     1
   1560   1563     1
   1561   1603     1
   1562   1565     1
   1562   1613     1
   1563   1565     1
   1563   1613     1
   1564   1596     1
   1565   1603     1
   1566   1573     1
   1566   1588     1
   1566   1583     1
   1566   1574     1
   1567   1580     1
   1567   1581     1
   1567   1572     1
   1567   1578     1
   1568   1569     1
   1568   1587     1
   1568   1586     1
   1568   1582     1
   1568   1580     1
   1568   1581     1
   1568   1571     1
   1569   1588     1
   1569   1574     1
   1569   1579     1
   1570   1586     1
   1570   1578     1
   1570   1585     1
   1571   1573     1
   1571   1579     1
   1572   1576     1
   1572   1573     1
   1572   1575     1
   1572   1584     1
   1572   1574     1
   1572   1579     1
   1573   1587     1
   1573   1586     1
   1573   1589     1
   1573   1578     1
   1574   1589     1
   1574   1585     1
   1576   1586     1
   1577   1586     1
   1580   1584     1
   1580   1583     1
   1581   1584     1
   1581   1583     1
   1584   1586     1
   1584   1585     1
   1586   1588     1
   1590   1597     1
   1590   1612     1
   1590   1607     1
   1590   1598     1
   1591   1604     1
   1591   1605     1
   1591   1596     1
   1591   1602     1
   1592   1593     1
   1592   1611     1
   1592   1610     1
   1592   1606     1
   1592   1604     1
   1592   1605     1
   1592   1595     1
   1593   1612     1
   1593   1598     1
   1593   1603     1
   1594   1610     1
   1594   1602     1
   1594   1609     1
   1595   1597     1
   1595   1603     1
   1596   1600     1
   1596   1597     1
   1596   1599     1
   1596   1608     1
   1596   1598     1
   1596   1603     1
   1597   1611     1
   1597   1610     1
   1597   1613     1
   1597   1602     1
   1598   1613     1
   1598   1609     1
   1600   1610     1
   1601   1610     1
   1604   1608     1
   1604   1607     1
   1605   1608     1
   1605   1607     1
   1608   1610     1
   1608   1609     1
   1610   1612     1
   1614   1620     1
   1614   1621     1
   1615   1618     1
   1615   1617     1
   1615   1619     1
   1617   1622     1
   1617   1620     1
   1617   1621     1
   1618   1632     1
   1618   1633     1
   1618   1625     1
   1618   1627     1
   1619   1622     1
   1619   1620     1
   1619   1621     1
   1620   1623     1
   1620   1624     1
   1621   1623     1
   1621   1624     1
   1622   1635     1
   1622   1636     1
   1622   1628     1
   1622   1629     1
   1623   1625     1
   1623   1627     1
   1624   1632     1
   1624   1633     1
   1625   1630     1
   1625   1628     1
   1625   1629     1
   1626   1652     1
   1627   1630     1
   1627   1628     1
   1627   1629     1
   1628   1631     1
   1628   1662     1
   1629   1631     1
   1629   1662     1
   1630   1645     1
   1631   1652     1
   1632   1637     1
   1632   1635     1
   1632   1636     1
   1633   1637     1
   1633   1635     1
   1633   1636     1
   1634   1676     1
   1635   1638     1
   1635   1686     1
   1636   1638     1
   1636   1686     1
   1637   1669     1
   1638   1676     1
   1639   1646     1
   1639   1661     1
   1639   1656     1
   1639   1647     1
   1640   1645     1
   1640   1651     1
   1640   1653     1
   1640   1654     1
   1641   1642     1
   1641   1660     1
   1641   1659     1
   1641   1655     1
   1641   1653     1
   1641   1654     1
   1641   1644     1
   1642   1647     1
   1642   1652     1
   1642   1661     1
   1643   1658     1
   1643   1651     1
   1643   1659     1
   1644   1652     1
   1644   1646     1
   1645   1648     1
   1645   1657     1
   1645   1647     1
   1645   1652     1
   1645   1649     1
   1645   1646     1
   1646   1662     1
   1646   1651     1
   1646   1660     1
   1646   1659     1
   1647   1658     1
   1647   1662     1
   1649   1659     1
   1650   1659     1
   1653   1656     1
   1653   1657     1
   1654   1656     1
   1654   1657     1
   1657   1658     1
   1657   1659     1
   1659   1661     1
   1663   1670     1
   1663   1685     1
   1663   1680     1
   1663   1671     1
   1664   1669     1
   1664   1675     1
   1664   1677     1
   1664   1678     1
   1665   1666     1
   1665   1684     1
   1665   1683     1
   1665   1679     1
   1665   1677     1
   1665   1678     1
   1665   1668     1
   1666   1671     1
   1666   1676     1
   1666   1685     1
   1667   1682     1
   1667   1675     1
   1667   1683     1
   1668   1676     1
   1668   1670     1
   1669   1672     1
   1669   1681     1
   1669   1671     1
   1669   1676     1
   1669   1673     1
   1669   1670     1
   1670   1686     1
   1670   1675     1
   1670   1684     1
   1670   1683     1
   1671   1682     1
   1671   1686     1
   1673   1683     1
   1674   1683     1
   1677   1680     1
   1677   1681     1
   1678   1680     1
   1678   1681     1
   1681   1682     1
   1681   1683     1
   1683   1685     1
   1687   1693     1
   1687   1694     1
   1688   1691     1
   1688   1690     1
   1688   1692     1
   1690   1695     1
   1690   1693     1
   1690   1694     1
   1691   1705     1
   1691   1706     1
   1691   1698     1
   1691   1700     1
   1692   1695     1
   1692   1693     1
   1692   1694     1
   1693   1696     1
   1693   1697     1
   1694   1696     1
   1694   1697     1
   1695   1708     1
   1695   1709     1
   1695   1701     1
   1695   1702     1
   1696   1698     1
   1696   1700     1
   1697   1705     1
   1697   1706     1
   1698   1703     1
   1698   1701     1
   1698   1702     1
   1699   1725     1
   1700   1703     1
   1700   1701     1
   1700   1702     1
   1701   1704     1
   1701   1735     1
   1702   1704     1
   1702   1735     1
   1703   1718     1
   1704   1725     1
   1705   1710     1
   1705   1708     1
   1705   1709     1
   1706   1710     1
   1706   1708     1
   1706   1709     1
   1707   1749     1
   1708   1711     1
   1708   1759     1
   1709   1711     1
   1709   1759     1
   1710   1742     1
   1711   1749     1
   1712   1719     1
   1712   1734     1
   1712   1729     1
   1712   1720     1
   1713   1726     1
   1713   1727     1
   1713   1718     1
   1713   1724     1
   1714   1715     1
   1714   1733     1
   1714   1732     1
   1714   1728     1
   1714   1726     1
   1714   1727     1
   1714   1717     1
   1715   1734     1
   1715   1720     1
   1715   1725     1
   1716   1732     1
   1716   1724     1
   1716   1731     1
   1717   1719     1
   1717   1725     1
   1718   1722     1
   1718   1719     1
   1718   1721     1
   1718   1730     1
   1718   1720     1
   1718   1725     1
   1719   1733     1
   1719   1732     1
   1719   1735     1
   1719   1724     1
   1720   1735     1
   1720   1731     1
   1722   1732     1
   1723   1732     1
   1726   1730     1
   1726   1729     1
   1727   1730     1
   1727   1729     1
   1730   1732     1
   1730   1731     1
   1732   1734     1
   1736   1743     1
   1736   1758     1
   1736   1753     1
   1736   1744     1
   1737   1750     1
   1737   1751     1
   1737   1742     1
   1737   1748     1
   1738   1739     1
   1738   1757     1
   1738   1756     1
   1738   1752     1
   1738   1750     1
   1738   1751     1
   1738   1741     1
   1739   1758     1
   1739   1744     1
   1739   1749     1
   1740   1756     1
   1740   1748     1
   1740   1755     1
   1741   1743     1
   1741   1749     1
   1742   1746     1
   1742   1743     1
   1742   1745     1
   1742   1754     1
   1742   1744     1
   1742   1749     1
   1743   1757     1
   1743   1756     1
   1743   1759     1
   1743   1748     1
   1744   1759     1
   1744   1755     1
   1746   1756     1
   1747   1756     1
   1750   1754     1
   1750   1753     1
   1751   1754     1
   1751   1753     1
   1754   1756     1
   1754   1755     1
   1756   1758     1
   1760   1766     1
   1760   1767     1
   1761   1764     1
   1761   1763     1
   1761   1765     1
   1763   1768     1
   1763   1766     1
   1763   1767     1
   1764   1778     1
   1764   1779     1
   1764   1771     1
   1764   1773     1
   1765   1768     1
   1765   1766     1
   1765   1767     1
   1766   1769     1
   1766   1770     1
   1767   1769     1
   1767   1770     1
   1768   1781     1
   1768   1782     1
   1768   1774     1
   1768   1775     1
   1769   1771     1
   1769   1773     1
   1770   1778     1
   1770   1779     1
   1771   1776     1
   1771   1774     1
   1771   1775     1
   1772   1798     1
   1773   1776     1
   1773   1774     1
   1773   1775     1
   1774   1777     1
   1774   1808     1
   1775   1777     1
   1775   1808     1
   1776   1791     1
   1777   1798     1
   1778   1783     1
   1778   1781     1
   1778   1782     1
   1779   1783     1
   1779   1781     1
   1779   1782     1
   1780   1822     1
   1781   1784     1
   1781   1832     1
   1782   1784     1
   1782   1832     1
   1783   1815     1
   1784   1822     1
   1785   1792     1
   1785   1807     1
   1785   1802     1
   1785   1793     1
   1786   1791     1
   1786   1797     1
   1786   1799     1
   1786   1800     1
   1787   1788     1
   1787   1806     1
   1787   1805     1
   1787   1801     1
   1787   1799     1
   1787   1800     1
   1787   1790     1
   1788   1793     1
   1788   1798     1
   1788   1807     1
   1789   1804     1
   1789   1797     1
   1789   1805     1
   1790   1798     1
   1790   1792     1
   1791   1794     1
   1791   1803     1
   1791   1793     1
   1791   1798     1
   1791   1795     1
   1791   1792     1
   1792   1808     1
   1792   1797     1
   1792   1806     1
   1792   1805     1
   1793   1804     1
   1793   1808     1
   1795   1805     1
   1796   1805     1
   1799   1802     1
   1799   1803     1
   1800   1802     1
   1800   1803     1
   1803   1804     1
   1803   1805     1
   1805   1807     1
   1809   1816     1
   1809   1831     1
   1809   1826     1
   1809   1817     1
   1810   1815     1
   1810   1821     1
   1810   1823     1
   1810   1824     1
   1811   1812     1
   1811   1830     1
   1811   1829     1
   1811   1825     1
   1811   1823     1
   1811   1824     1
   1811   1814     1
   1812   1817     1
   1812   1822     1
   1812   1831     1
   1813   1828     1
   1813   1821     1
   1813   1829     1
   1814   1822     1
   1814   1816     1
   1815   1818     1
   1815   1827     1
   1815   1817     1
   1815   1822     1
   1815   1819     1
   1815   1816     1
   1816   1832     1
   1816   1821     1
   1816   1830     1
   1816   1829     1
   1817   1828     1
   1817   1832     1
   1819   1829     1
   1820   1829     1
   1823   1826     1
   1823   1827     1
   1824   1826     1
   1824   1827     1
   1827   1828     1
   1827   1829     1
   1829   1831     1
   1833   1839     1
   1833   1840     1
   1834   1837     1
   1834   1836     1
   1834   1838     1
   1836   1841     1
   1836   1839     1
   1836   1840     1
   1837   1851     1
   1837   1852     1
   1837   1844     1
   1837   1846     1
   1838   1841     1
   1838   1839     1
   1838   1840     1
   1839   1842     1
   1839   1843     1
   1840   1842     1
   1840   1843     1
   1841   1854     1
   1841   1855     1
   1841   1847     1
   1841   1848     1
   1842   1844     1
   1842   1846     1
   1843   1851     1
   1843   1852     1
   1844   1849     1
   1844   1847     1
   1844   1848     1
   1845   1871     1
   1846   1849     1
   1846   1847     1
   1846   1848     1
   1847   1850     1
   1847   1881     1
   1848   1850     1
   1848   1881     1
   1849   1864     1
   1850   1871     1
   1851   1856     1
   1851   1854     1
   1851   1855     1
   1852   1856     1
   1852   1854     1
   1852   1855     1
   1853   1895     1
   1854   1857     1
   1854   1905     1
   1855   1857     1
   1855   1905     1
   1856   1888     1
   1857   1895     1
   1858   1865     1
   1858   1880     1
   1858   1875     1
   1858   1866     1
   1859   1872     1
   1859   1873     1
   1859   1864     1
   1859   1870     1
   1860   1861     1
   1860   1879     1
   1860   1878     1
   1860   1874     1
   1860   1872     1
   1860   1873     1
   1860   1863     1
   1861   1880     1
   1861   1866     1
   1861   1871     1
   1862   1878     1
   1862   1870     1
   1862   1877     1
   1863   1865     1
   1863   1871     1
   1864   1868     1
   1864   1865     1
   1864   1867     1
   1864   1876     1
   1864   1866     1
   1864   1871     1
   1865   1879     1
   1865   1878     1
   1865   1881     1
   1865   1870     1
   1866   1881     1
   1866   1877     1
   1868   1878     1
   1869   1878     1
   1872   1876     1
   1872   1875     1
   1873   1876     1
   1873   1875     1
   1876   1878     1
   1876   1877     1
   1878   1880     1
   1882   1889     1
   1882   1904     1
   1882   1899     1
   1882   1890     1
   1883   1896     1
   1883   1897     1
   1883   1888     1
   1883   1894     1
   1884   1885     1
   1884   1903     1
   1884   1902     1
   1884   1898     1
   1884   1896     1
   1884   1897     1
   1884   1887     1
   1885   1904     1
   1885   1890     1
   1885   1895     1
   1886   1902     1
   1886   1894     1
   1886   1901     1
   1887   1889     1
   1887   1895     1
   1888   1892     1
   1888   1889     1
   1888   1891     1
   1888   1900     1
   1888   1890     1
   1888   1895     1
   1889   1903     1
   1889   1902     1
   1889   1905     1
   1889   1894     1
   1890   1905     1
   1890   1901     1
   1892   1902     1
   1893   1902     1
   1896   1900     1
   1896   1899     1
   1897   1900     1
   1897   1899     1
   1900   1902     1
   1900   1901     1
   1902   1904     1
   1906   1912     1
   1906   1913     1
   1907   1910     1
   1907   1909     1
   1907   1911     1
   1909   1914     1
   1909   1912     1
   1909   1913     1
   1910   1924     1
   1910   1925     1
   1910   1917     1
   1910   1919     1
   1911   1914     1
   1911   1912     1
   1911   1913     1
   1912   1915     1
   1912   1916     1
   1913   1915     1
   1913   1916     1
   1914   1927     1
   1914   1928     1
   1914   1920     1
   1914   1921     1
   1915   1917     1
   1915   1919     1
   1916   1924     1
   1916   1925     1
   1917   1922     1
   1917   1920     1
   1917   1921     1
   1918   1944     1
   1919   1922     1
   1919   1920     1
   1919   1921     1
   1920   1923     1
   1920   1954     1
   1921   1923     1
   1921   1954     1
   1922   1937     1
   1923   1944     1
   1924   1929     1
   1924   1927     1
   1924   1928     1
   1925   1929     1
   1925   1927     1
   1925   1928     1
   1926   1968     1
   1927   1930     1
   1927   1978     1
   1928   1930     1
   1928   1978     1
   1929   1961     1
   1930   1968     1
   1931   1938     1
   1931   1953     1
   1931   1948     1
   1931   1939     1
   1932   1937     1
   1932   1943     1
   1932   1945     1
   1932   1946     1
   1933   1934     1
   1933   1952     1
   1933   1951     1
   1933   1947     1
   1933   1945     1
   1933   1946     1
   1933   1936     1
   1934   1939     1
   1934   1944     1
   1934   1953     1
   1935   1950     1
   1935   1943     1
   1935   1951     1
   1936   1944     1
   1936   1938     1
   1937   1940     1
   1937   1949     1
   1937   1939     1
   1937   1944     1
   1937   1941     1
   1937   1938     1
   1938   1954     1
   1938   1943     1
   1938   1952     1
   1938   1951     1
   1939   1950     1
   1939   1954     1
   1941   1951     1
   1942   1951     1
   1945   1948     1
   1945   1949     1
   1946   1948     1
   1946   1949     1
   1949   1950     1
   1949   1951     1
   1951   1953     1
   1955   1962     1
   1955   1977     1
   1955   1972     1
   1955   1963     1
   1956   1961     1
   1956   1967     1
   1956   1969     1
   1956   1970     1
   1957   1958     1
   1957   1976     1
   1957   1975     1
   1957   1971     1
   1957   1969     1
   1957   1970     1
   1957   1960     1
   1958   1963     1
   1958   1968     1
   1958   1977     1
   1959   1974     1
   1959   1967     1
   1959   1975     1
   1960   1968     1
   1960   1962     1
   1961   1964     1
   1961   1973     1
   1961   1963     1
   1961   1968     1
   1961   1965     1
   1961   1962     1
   1962   1978     1
   1962   1967     1
   1962   1976     1
   1962   1975     1
   1963   1974     1
   1963   1978     1
   1965   1975     1
   1966   1975     1
   1969   1972     1
   1969   1973     1
   1970   1972     1
   1970   1973     1
   1973   1974     1
   1973   1975     1
   1975   1977     1
   1979   1985     1
   1979   1986     1
   1980   1983     1
   1980   1982     1
   1980   1984     1
   1982   1987     1
   1982   1985     1
   1982   1986     1
   1983   1997     1
   1983   1998     1
   1983   1990     1
   1983   1992     1
   1984   1987     1
   1984   1985     1
   1984   1986     1
   1985   1988     1
   1985   1989     1
   1986   1988     1
   1986   1989     1
   1987   2000     1
   1987   2001     1
   1987   1993     1
   1987   1994     1
   1988   1990     1
   1988   1992     1
   1989   1997     1
   1989   1998     1
   1990   1995     1
   1990   1993     1
   1990   1994     1
   1991   2017     1
   1992   1995     1
   1992   1993     1
   1992   1994     1
   1993   1996     1
   1993   2027     1
   1994   1996     1
   1994   2027     1
   1995   2010     1
   1996   2017     1
   1997   2002     1
   1997   2000     1
   1997   2001     1
   1998   2002     1
   1998   2000     1
   1998   2001     1
   1999   2041     1
   2000   2003     1
   2000   2051     1
   2001   2003     1
   2001   2051     1
   2002   2034     1
   2003   2041     1
   2004   2011     1
   2004   2026     1
   2004   2021     1
   2004   2012     1
   2005   2018     1
   2005   2019     1
   2005   2010     1
   2005   2016     1
   2006   2007     1
   2006   2025     1
   2006   2024     1
   2006   2020     1
   2006   2018     1
   2006   2019     1
   2006   2009     1
   2007   2026     1
   2007   2012     1
   2007   2017     1
   2008   2024     1
   2008   2016     1
   2008   2023     1
   2009   2011     1
   2009   2017     1
   2010   2014     1
   2010   2011     1
   2010   2013     1
   2010   2022     1
   2010   2012     1
   2010   2017     1
   2011   2025     1
   2011   2024     1
   2011   2027     1
   2011   2016     1
   2012   2027     1
   2012   2023     1
   2014   2024     1
   2015   2024     1
   2018   2022     1
   2018   2021     1
   2019   2022     1
   2019   2021     1
   2022   2024     1
   2022   2023     1
   2024   2026     1
   2028   2035     1
   2028   2050     1
   2028   2045     1
   2028   2036     1
   2029   2042     1
   2029   2043     1
   2029   2034     1
   2029   2040     1
   2030   2031     1
   2030   2049     1
   2030   2048     1
   2030   2044     1
   2030   2042     1
   2030   2043     1
   2030   2033     1
   2031   2050     1
   2031   2036     1
   2031   2041     1
   2032   2048     1
   2032   2040     1
   2032   2047     1
   2033   2035     1
   2033   2041     1
   2034   2038     1
   2034   2035     1
   2034   2037     1
   2034   2046     1
   2034   2036     1
   2034   2041     1
   2035   2049     1
   2035   2048     1
   2035   2051     1
   2035   2040     1
   2036   2051     1
   2036   2047     1
   2038   2048     1
   2039   2048     1
   2042   2046     1
   2042   2045     1
   2043   2046     1
   2043   2045     1
   2046   2048     1
   2046   2047     1
   2048   2050     1
   2052   2058     1
   2052   2059     1
   2053   2056     1
   2053   2055     1
   2053   2057     1
   2055   2060     1
   2055   2058     1
   2055   2059     1
   2056   2070     1
   2056   2071     1
   2056   2063     1
   2056   2065     1
   2057   2060     1
   2057   2058     1
   2057   2059     1
   2058   2061     1
   2058   2062     1
   2059   2061     1
   2059   2062     1
   2060   2073     1
   2060   2074     1
   2060   2066     1
   2060   2067     1
   2061   2063     1
   2061   2065     1
   2062   2070     1
   2062   2071     1
   2063   2068     1
   2063   2066     1
   2063   2067     1
   2064   2090     1
   2065   2068     1
   2065   2066     1
   2065   2067     1
   2066   2069     1
   2066   2100     1
   2067   2069     1
   2067   2100     1
   2068   2083     1
   2069   2090     1
   2070   2075     1
   2070   2073     1
   2070   2074     1
   2071   2075     1
   2071   2073     1
   2071   2074     1
   2072   2114     1
   2073   2076     1
   2073   2124     1
   2074   2076     1
   2074   2124     1
   2075   2107     1
   2076   2114     1
   2077   2084     1
   2077   2099     1
   2077   2094     1
   2077   2085     1
   2078   2083     1
   2078   2089     1
   2078   2091     1
   2078   2092     1
   2079   2080     1
   2079   2098     1
   2079   2097     1
   2079   2093     1
   2079   2091     1
   2079   2092     1
   2079   2082     1
   2080   2085     1
   2080   2090     1
   2080   2099     1
   2081   2096     1
   2081   2089     1
   2081   2097     1
   2082   2090     1
   2082   2084     1
   2083   2086     1
   2083   2095     1
   2083   2085     1
   2083   2090     1
   2083   2087     1
   2083   2084     1
   2084   2100     1
   2084   2089     1
   2084   2098     1
   2084   2097     1
   2085   2096     1
   2085   2100     1
   2087   2097     1
   2088   2097     1
   2091   2094     1
   2091   2095     1
   2092   2094     1
   2092   2095     1
   2095   2096     1
   2095   2097     1
   2097   2099     1
   2101   2108     1
   2101   2123     1
   2101   2118     1
   2101   2109     1
   2102   2107     1
   2102   2113     1
   2102   2115     1
   2102   2116     1
   2103   2104     1
   2103   2122     1
   2103   2121     1
   2103   2117     1
   2103   2115     1
   2103   2116     1
   2103   2106     1
   2104   2109     1
   2104   2114     1
   2104   2123     1
   2105   2120     1
   2105   2113     1
   2105   2121     1
   2106   2114     1
   2106   2108     1
   2107   2110     1
   2107   2119     1
   2107   2109     1
   2107   2114     1
   2107   2111     1
   2107   2108     1
   2108   2124     1
   2108   2113     1
   2108   2122     1
   2108   2121     1
   2109   2120     1
   2109   2124     1
   2111   2121     1
   2112   2121     1
   2115   2118     1
   2115   2119     1
   2116   2118     1
   2116   2119     1
   2119   2120     1
   2119   2121     1
   2121   2123     1
   2125   2131     1
   2125   2132     1
   2126   2129     1
   2126   2128     1
   2126   2130     1
   2128   2133     1
   2128   2131     1
   2128   2132     1
   2129   2143     1
   2129   2144     1
   2129   2136     1
   2129   2138     1
   2130   2133     1
   2130   2131     1
   2130   2132     1
   2131   2134     1
   2131   2135     1
   2132   2134     1
   2132   2135     1
   2133   2146     1
   2133   2147     1
   2133   2139     1
   2133   2140     1
   2134   2136     1
   2134   2138     1
   2135   2143     1
   2135   2144     1
   2136   2141     1
   2136   2139     1
   2136   2140     1
   2137   2163     1
   2138   2141     1
   2138   2139     1
   2138   2140     1
   2139   2142     1
   2139   2173     1
   2140   2142     1
   2140   2173     1
   2141   2156     1
   2142   2163     1
   2143   2148     1
   2143   2146     1
   2143   2147     1
   2144   2148     1
   2144   2146     1
   2144   2147     1
   2145   2187     1
   2146   2149     1
   2146   2197     1
   2147   2149     1
   2147   2197     1
   2148   2180     1
   2149   2187     1
   2150   2157     1
   2150   2172     1
   2150   2167     1
   2150   2158     1
   2151   2164     1
   2151   2165     1
   2151   2156     1
   2151   2162     1
   2152   2153     1
   2152   2171     1
   2152   2170     1
   2152   2166     1
   2152   2164     1
   2152   2165     1
   2152   2155     1
   2153   2172     1
   2153   2158     1
   2153   2163     1
   2154   2170     1
   2154   2162     1
   2154   2169     1
   2155   2157     1
   2155   2163     1
   2156   2160     1
   2156   2157     1
   2156   2159     1
   2156   2168     1
   2156   2158     1
   2156   2163     1
   2157   2171     1
   2157   2170     1
   2157   2173     1
   2157   2162     1
   2158   2173     1
   2158   2169     1
   2160   2170     1
   2161   2170     1
   2164   2168     1
   2164   2167     1
   2165   2168     1
   2165   2167     1
   2168   2170     1
   2168   2169     1
   2170   2172     1
   2174   2181     1
   2174   2196     1
   2174   2191     1
   2174   2182     1
   2175   2188     1
   2175   2189     1
   2175   2180     1
   2175   2186     1
   2176   2177     1
   2176   2195     1
   2176   2194     1
   2176   2190     1
   2176   2188     1
   2176   2189     1
   2176   2179     1
   2177   2196     1
   2177   2182     1
   2177   2187     1
   2178   2194     1
   2178   2186     1
   2178   2193     1
   2179   2181     1
   2179   2187     1
   2180   2184     1
   2180   2181     1
   2180   2183     1
   2180   2192     1
   2180   2182     1
   2180   2187     1
   2181   2195     1
   2181   2194     1
   2181   2197     1
   2181   2186     1
   2182   2197     1
   2182   2193     1
   2184   2194     1
   2185   2194     1
   2188   2192     1
   2188   2191     1
   2189   2192     1
   2189   2191     1
   2192   2194     1
   2192   2193     1
   2194   2196     1
   2198   2204     1
   2198   2205     1
   2199   2202     1
   2199   2201     1
   2199   2203     1
   2201   2206     1
   2201   2204     1
   2201   2205     1
   2202   2216     1
   2202   2217     1
   2202   2209     1
   2202   2211     1
   2203   2206     1
   2203   2204     1
   2203   2205     1
   2204   2207     1
   2204   2208     1
   2205   2207     1
   2205   2208     1
   2206   2219     1
   2206   2220     1
   2206   2212     1
   2206   2213     1
   2207   2209     1
   2207   2211     1
   2208   2216     1
   2208   2217     1
   2209   2214     1
   2209   2212     1
   2209   2213     1
   2210   2236     1
   2211   2214     1
   2211   2212     1
   2211   2213     1
   2212   2215     1
   2212   2246     1
   2213   2215     1
   2213   2246     1
   2214   2229     1
   2215   2236     1
   2216   2221     1
   2216   2219     1
   2216   2220     1
   2217   2221     1
   2217   2219     1
   2217   2220     1
   2218   2260     1
   2219   2222     1
   2219   2270     1
   2220   2222     1
   2220   2270     1
   2221   2253     1
   2222   2260     1
   2223   2230     1
   2223   2245     1
   2223   2240     1
   2223   2231     1
   2224   2229     1
   2224   2235     1
   2224   2237     1
   2224   2238     1
   2225   2226     1
   2225   2244     1
   2225   2243     1
   2225   2239     1
   2225   2237     1
   2225   2238     1
   2225   2228     1
   2226   2231     1
   2226   2236     1
   2226   2245     1
   2227   2242     1
   2227   2235     1
   2227   2243     1
   2228   2236     1
   2228   2230     1
   2229   2232     1
   2229   2241     1
   2229   2231     1
   2229   2236     1
   2229   2233     1
   2229   2230     1
   2230   2246     1
   2230   2235     1
   2230   2244     1
   2230   2243     1
   2231   2242     1
   2231   2246     1
   2233   2243     1
   2234   2243     1
   2237   2240     1
   2237   2241     1
   2238   2240     1
   2238   2241     1
   2241   2242     1
   2241   2243     1
   2243   2245     1
   2247   2254     1
   2247   2269     1
   2247   2264     1
   2247   2255     1
   2248   2253     1
   2248   2259     1
   2248   2261     1
   2248   2262     1
   2249   2250     1
   2249   2268     1
   2249   2267     1
   2249   2263     1
   2249   2261     1
   2249   2262     1
   2249   2252     1
   2250   2255     1
   2250   2260     1
   2250   2269     1
   2251   2266     1
   2251   2259     1
   2251   2267     1
   2252   2260     1
   2252   2254     1
   2253   2256     1
   2253   2265     1
   2253   2255     1
   2253   2260     1
   2253   2257     1
   2253   2254     1
   2254   2270     1
   2254   2259     1
   2254   2268     1
   2254   2267     1
   2255   2266     1
   2255   2270     1
   2257   2267     1
   2258   2267     1
   2261   2264     1
   2261   2265     1
   2262   2264     1
   2262   2265     1
   2265   2266     1
   2265   2267     1
   2267   2269     1
   2271   2277     1
   2271   2278     1
   2272   2275     1
   2272   2274     1
   2272   2276     1
   2274   2279     1
   2274   2277     1
   2274   2278     1
   2275   2289     1
   2275   2290     1
   2275   2282     1
   2275   2284     1
   2276   2279     1
   2276   2277     1
   2276   2278     1
   2277   2280     1
   2277   2281     1
   2278   2280     1
   2278   2281     1
   2279   2292     1
   2279   2293     1
   2279   2285     1
   2279   2286     1
   2280   2282     1
   2280   2284     1
   2281   2289     1
   2281   2290     1
   2282   2287     1
   2282   2285     1
   2282   2286     1
   2283   2309     1
   2284   2287     1
   2284   2285     1
   2284   2286     1
   2285   2288     1
   2285   2319     1
   2286   2288     1
   2286   2319     1
   2287   2302     1
   2288   2309     1
   2289   2294     1
   2289   2292     1
   2289   2293     1
   2290   2294     1
   2290   2292     1
   2290   2293     1
   2291   2333     1
   2292   2295     1
   2292   2343     1
   2293   2295     1
   2293   2343     1
   2294   2326     1
   2295   2333     1
   2296   2303     1
   2296   2318     1
   2296   2313     1
   2296   2304     1
   2297   2310     1
   2297   2311     1
   2297   2302     1
   2297   2308     1
   2298   2299     1
   2298   2317     1
   2298   2316     1
   2298   2312     1
   2298   2310     1
   2298   2311     1
   2298   2301     1
   2299   2318     1
   2299   2304     1
   2299   2309     1
   2300   2316     1
   2300   2308     1
   2300   2315     1
   2301   2303     1
   2301   2309     1
   2302   2306     1
   2302   2303     1
   2302   2305     1
   2302   2314     1
   2302   2304     1
   2302   2309     1
   2303   2317     1
   2303   2316     1
   2303   2319     1
   2303   2308     1
   2304   2319     1
   2304   2315     1
   2306   2316     1
   2307   2316     1
   2310   2314     1
   2310   2313     1
   2311   2314     1
   2311   2313     1
   2314   2316     1
   2314   2315     1
   2316   2318     1
   2320   2327     1
   2320   2342     1
   2320   2337     1
   2320   2328     1
   2321   2334     1
   2321   2335     1
   2321   2326     1
   2321   2332     1
   2322   2323     1
   2322   2341     1
   2322   2340     1
   2322   2336     1
   2322   2334     1
   2322   2335     1
   2322   2325     1
   2323   2342     1
   2323   2328     1
   2323   2333     1
   2324   2340     1
   2324   2332     1
   2324   2339     1
   2325   2327     1
   2325   2333     1
   2326   2330     1
   2326   2327     1
   2326   2329     1
   2326   2338     1
   2326   2328     1
   2326   2333     1
   2327   2341     1
   2327   2340     1
   2327   2343     1
   2327   2332     1
   2328   2343     1
   2328   2339     1
   2330   2340     1
   2331   2340     1
   2334   2338     1
   2334   2337     1
   2335   2338     1
   2335   2337     1
   2338   2340     1
   2338   2339     1
   2340   2342     1
   2344   2350     1
   2344   2351     1
   2345   2348     1
   2345   2347     1
   2345   2349     1
   2347   2352     1
   2347   2350     1
   2347   2351     1
   2348   2362     1
   2348   2363     1
   2348   2355     1
   2348   2357     1
   2349   2352     1
   2349   2350     1
   2349   2351     1
   2350   2353     1
   2350   2354     1
   2351   2353     1
   2351   2354     1
   2352   2365     1
   2352   2366     1
   2352   2358     1
   2352   2359     1
   2353   2355     1
   2353   2357     1
   2354   2362     1
   2354   2363     1
   2355   2360     1
   2355   2358     1
   2355   2359     1
   2356   2382     1
   2357   2360     1
   2357   2358     1
   2357   2359     1
   2358   2361     1
   2358   2392     1
   2359   2361     1
   2359   2392     1
   2360   2375     1
   2361   2382     1
   2362   2367     1
   2362   2365     1
   2362   2366     1
   2363   2367     1
   2363   2365     1
   2363   2366     1
   2364   2406     1
   2365   2368     1
   2365   2416     1
   2366   2368     1
   2366   2416     1
   2367   2399     1
   2368   2406     1
   2369   2376     1
   2369   2391     1
   2369   2386     1
   2369   2377     1
   2370   2375     1
   2370   2381     1
   2370   2383     1
   2370   2384     1
   2371   2372     1
   2371   2390     1
   2371   2389     1
   2371   2385     1
   2371   2383     1
   2371   2384     1
   2371   2374     1
   2372   2377     1
   2372   2382     1
   2372   2391     1
   2373   2388     1
   2373   2381     1
   2373   2389     1
   2374   2382     1
   2374   2376     1
   2375   2378     1
   2375   2387     1
   2375   2377     1
   2375   2382     1
   2375   2379     1
   2375   2376     1
   2376   2392     1
   2376   2381     1
   2376   2390     1
   2376   2389     1
   2377   2388     1
   2377   2392     1
   2379   2389     1
   2380   2389     1
   2383   2386     1
   2383   2387     1
   2384   2386     1
   2384   2387     1
   2387   2388     1
   2387   2389     1
   2389   2391     1
   2393   2400     1
   2393   2415     1
   2393   2410     1
   2393   2401     1
   2394   2399     1
   2394   2405     1
   2394   2407     1
   2394   2408     1
   2395   2396     1
   2395   2414     1
   2395   2413     1
   2395   2409     1
   2395   2407     1
   2395   2408     1
   2395   2398     1
   2396   2401     1
   2396   2406     1
   2396   2415     1
   2397   2412     1
   2397   2405     1
   2397   2413     1
   2398   2406     1
   2398   2400     1
   2399   2402     1
   2399   2411     1
   2399   2401     1
   2399   2406     1
   2399   2403     1
   2399   2400     1
   2400   2416     1
   2400   2405     1
   2400   2414     1
   2400   2413     1
   2401   2412     1
   2401   2416     1
   2403   2413     1
   2404   2413     1
   2407   2410     1
   2407   2411     1
   2408   2410     1
   2408   2411     1
   2411   2412     1
   2411   2413     1
   2413   2415     1
   2417   2423     1
   2417   2424     1
   2418   2421     1
   2418   2420     1
   2418   2422     1
   2420   2425     1
   2420   2423     1
   2420   2424     1
   2421   2435     1
   2421   2436     1
   2421   2428     1
   2421   2430     1
   2422   2425     1
   2422   2423     1
   2422   2424     1
   2423   2426     1
   2423   2427     1
   2424   2426     1
   2424   2427     1
   2425   2438     1
   2425   2439     1
   2425   2431     1
   2425   2432     1
   2426   2428     1
   2426   2430     1
   2427   2435     1
   2427   2436     1
   2428   2433     1
   2428   2431     1
   2428   2432     1
   2429   2455     1
   2430   2433     1
   2430   2431     1
   2430   2432     1
   2431   2434     1
   2431   2465     1
   2432   2434     1
   2432   2465     1
   2433   2448     1
   2434   2455     1
   2435   2440     1
   2435   2438     1
   2435   2439     1
   2436   2440     1
   2436   2438     1
   2436   2439     1
   2437   2479     1
   2438   2441     1
   2438   2489     1
   2439   2441     1
   2439   2489     1
   2440   2472     1
   2441   2479     1
   2442   2449     1
   2442   2464     1
   2442   2459     1
   2442   2450     1
   2443   2456     1
   2443   2457     1
   2443   2448     1
   2443   2454     1
   2444   2445     1
   2444   2463     1
   2444   2462     1
   2444   2458     1
   2444   2456     1
   2444   2457     1
   2444   2447     1
   2445   2464     1
   2445   2450     1
   2445   2455     1
   2446   2462     1
   2446   2454     1
   2446   2461     1
   2447   2449     1
   2447   2455     1
   2448   2452     1
   2448   2449     1
   2448   2451     1
   2448   2460     1
   2448   2450     1
   2448   2455     1
   2449   2463     1
   2449   2462     1
   2449   2465     1
   2449   2454     1
   2450   2465     1
   2450   2461     1
   2452   2462     1
   2453   2462     1
   2456   2460     1
   2456   2459     1
   2457   2460     1
   2457   2459     1
   2460   2462     1
   2460   2461     1
   2462   2464     1
   2466   2473     1
   2466   2488     1
   2466   2483     1
   2466   2474     1
   2467   2480     1
   2467   2481     1
   2467   2472     1
   2467   2478     1
   2468   2469     1
   2468   2487     1
   2468   2486     1
   2468   2482     1
   2468   2480     1
   2468   2481     1
   2468   2471     1
   2469   2488     1
   2469   2474     1
   2469   2479     1
   2470   2486     1
   2470   2478     1
   2470   2485     1
   2471   2473     1
   2471   2479     1
   2472   2476     1
   2472   2473     1
   2472   2475     1
   2472   2484     1
   2472   2474     1
   2472   2479     1
   2473   2487     1
   2473   2486     1
   2473   2489     1
   2473   2478     1
   2474   2489     1
   2474   2485     1
   2476   2486     1
   2477   2486     1
   2480   2484     1
   2480   2483     1
   2481   2484     1
   2481   2483     1
   2484   2486     1
   2484   2485     1
   2486   2488     1
   2490   2496     1
   2490   2497     1
   2491   2494     1
   2491   2493     1
   2491   2495     1
   2493   2498     1
   2493   2496     1
   2493   2497     1
   2494   2508     1
   2494   2509     1
   2494   2501     1
   2494   2503     1
   2495   2498     1
   2495   2496     1
   2495   2497     1
   2496   2499     1
   2496   2500     1
   2497   2499     1
   2497   2500     1
   2498   2511     1
   2498   2512     1
   2498   2504     1
   2498   2505     1
   2499   2501     1
   2499   2503     1
   2500   2508     1
   2500   2509     1
   2501   2506     1
   2501   2504     1
   2501   2505     1
   2502   2528     1
   2503   2506     1
   2503   2504     1
   2503   2505     1
   2504   2507     1
   2504   2538     1
   2505   2507     1
   2505   2538     1
   2506   2521     1
   2507   2528     1
   2508   2513     1
   2508   2511     1
   2508   2512     1
   2509   2513     1
   2509   2511     1
   2509   2512     1
   2510   2552     1
   2511   2514     1
   2511   2562     1
   2512   2514     1
   2512   2562     1
   2513   2545     1
   2514   2552     1
   2515   2522     1
   2515   2537     1
   2515   2532     1
   2515   2523     1
   2516   2521     1
   2516   2527     1
   2516   2529     1
   2516   2530     1
   2517   2518     1
   2517   2536     1
   2517   2535     1
   2517   2531     1
   2517   2529     1
   2517   2530     1
   2517   2520     1
   2518   2523     1
   2518   2528     1
   2518   2537     1
   2519   2534     1
   2519   2527     1
   2519   2535     1
   2520   2528     1
   2520   2522     1
   2521   2524     1
   2521   2533     1
   2521   2523     1
   2521   2528     1
   2521   2525     1
   2521   2522     1
   2522   2538     1
   2522   2527     1
   2522   2536     1
   2522   2535     1
   2523   2534     1
   2523   2538     1
   2525   2535     1
   2526   2535     1
   2529   2532     1
   2529   2533     1
   2530   2532     1
   2530   2533     1
   2533   2534     1
   2533   2535     1
   2535   2537     1
   2539   2546     1
   2539   2561     1
   2539   2556     1
   2539   2547     1
   2540   2545     1
   2540   2551     1
   2540   2553     1
   2540   2554     1
   2541   2542     1
   2541   2560     1
   2541   2559     1
   2541   2555     1
   2541   2553     1
   2541   2554     1
   2541   2544     1
   2542   2547     1
   2542   2552     1
   2542   2561     1
   2543   2558     1
   2543   2551     1
   2543   2559     1
   2544   2552     1
   2544   2546     1
   2545   2548     1
   2545   2557     1
   2545   2547     1
   2545   2552     1
   2545   2549     1
   2545   2546     1
   2546   2562     1
   2546   2551     1
   2546   2560     1
   2546   2559     1
   2547   2558     1
   2547   2562     1
   2549   2559     1
   2550   2559     1
   2553   2556     1
   2553   2557     1
   2554   2556     1
   2554   2557     1
   2557   2558     1
   2557   2559     1
   2559   2561     1
   2563   2569     1
   2563   2570     1
   2564   2567     1
   2564   2566     1
   2564   2568     1
   2566   2571     1
   2566   2569     1
   2566   2570     1
   2567   2581     1
   2567   2582     1
   2567   2574     1
   2567   2576     1
   2568   2571     1
   2568   2569     1
   2568   2570     1
   2569   2572     1
   2569   2573     1
   2570   2572     1
   2570   2573     1
   2571   2584     1
   2571   2585     1
   2571   2577     1
   2571   2578     1
   2572   2574     1
   2572   2576     1
   2573   2581     1
   2573   2582     1
   2574   2579     1
   2574   2577     1
   2574   2578     1
   2575   2601     1
   2576   2579     1
   2576   2577     1
   2576   2578     1
   2577   2580     1
   2577   2611     1
   2578   2580     1
   2578   2611     1
   2579   2594     1
   2580   2601     1
   2581   2586     1
   2581   2584     1
   2581   2585     1
   2582   2586     1
   2582   2584     1
   2582   2585     1
   2583   2625     1
   2584   2587     1
   2584   2635     1
   2585   2587     1
   2585   2635     1
   2586   2618     1
   2587   2625     1
   2588   2595     1
   2588   2610     1
   2588   2605     1
   2588   2596     1
   2589   2602     1
   2589   2603     1
   2589   2594     1
   2589   2600     1
   2590   2591     1
   2590   2609     1
   2590   2608     1
   2590   2604     1
   2590   2602     1
   2590   2603     1
   2590   2593     1
   2591   2610     1
   2591   2596     1
   2591   2601     1
   2592   2608     1
   2592   2600     1
   2592   2607     1
   2593   2595     1
   2593   2601     1
   2594   2598     1
   2594   2595     1
   2594   2597     1
   2594   2606     1
   2594   2596     1
   2594   2601     1
   2595   2609     1
   2595   2608     1
   2595   2611     1
   2595   2600     1
   2596   2611     1
   2596   2607     1
   2598   2608     1
   2599   2608     1
   2602   2606     1
   2602   2605     1
   2603   2606     1
   2603   2605     1
   2606   2608     1
   2606   2607     1
   2608   2610     1
   2612   2619     1
   2612   2634     1
   2612   2629     1
   2612   2620     1
   2613   2626     1
   2613   2627     1
   2613   2618     1
   2613   2624     1
   2614   2615     1
   2614   2633     1
   2614   2632     1
   2614   2628     1
   2614   2626     1
   2614   2627     1
   2614   2617     1
   2615   2634     1
   2615   2620     1
   2615   2625     1
   2616   2632     1
   2616   2624     1
   2616   2631     1
   2617   2619     1
   2617   2625     1
   2618   2622     1
   2618   2619     1
   2618   2621     1
   2618   2630     1
   2618   2620     1
   2618   2625     1
   2619   2633     1
   2619   2632     1
   2619   2635     1
   2619   2624     1
   2620   2635     1
   2620   2631     1
   2622   2632     1
   2623   2632     1
   2626   2630     1
   2626   2629     1
   2627   2630     1
   2627   2629     1
   2630   2632     1
   2630   2631     1
   2632   2634     1
   2636   2642     1
   2636   2643     1
   2637   2640     1
   2637   2639     1
   2637   2641     1
   2639   2644     1
   2639   2642     1
   2639   2643     1
   2640   2654     1
   2640   2655     1
   2640   2647     1
   2640   2649     1
   2641   2644     1
   2641   2642     1
   2641   2643     1
   2642   2645     1
   2642   2646     1
   2643   2645     1
   2643   2646     1
   2644   2657     1
   2644   2658     1
   2644   2650     1
   2644   2651     1
   2645   2647     1
   2645   2649     1
   2646   2654     1
   2646   2655     1
   2647   2652     1
   2647   2650     1
   2647   2651     1
   2648   2674     1
   2649   2652     1
   2649   2650     1
   2649   2651     1
   2650   2653     1
   2650   2684     1
   2651   2653     1
   2651   2684     1
   2652   2667     1
   2653   2674     1
   2654   2659     1
   2654   2657     1
   2654   2658     1
   2655   2659     1
   2655   2657     1
   2655   2658     1
   2656   2698     1
   2657   2660     1
   2657   2708     1
   2658   2660     1
   2658   2708     1
   2659   2691     1
   2660   2698     1
   2661   2668     1
   2661   2683     1
   2661   2678     1
   2661   2669     1
   2662   2667     1
   2662   2673     1
   2662   2675     1
   2662   2676     1
   2663   2664     1
   2663   2682     1
   2663   2681     1
   2663   2677     1
   2663   2675     1
   2663   2676     1
   2663   2666     1
   2664   2669     1
   2664   2674     1
   2664   2683     1
   2665   2680     1
   2665   2673     1
   2665   2681     1
   2666   2674     1
   2666   2668     1
   2667   2670     1
   2667   2679     1
   2667   2669     1
   2667   2674     1
   2667   2671     1
   2667   2668     1
   2668   2684     1
   2668   2673     1
   2668   2682     1
   2668   2681     1
   2669   2680     1
   2669   2684     1
   2671   2681     1
   2672   2681     1
   2675   2678     1
   2675   2679     1
   2676   2678     1
   2676   2679     1
   2679   2680     1
   2679   2681     1
   2681   2683     1
   2685   2692     1
   2685   2707     1
   2685   2702     1
   2685   2693     1
   2686   2691     1
   2686   2697     1
   2686   2699     1
   2686   2700     1
   2687   2688     1
   2687   2706     1
   2687   2705     1
   2687   2701     1
   2687   2699     1
   2687   2700     1
   2687   2690     1
   2688   2693     1
   2688   2698     1
   2688   2707     1
   2689   2704     1
   2689   2697     1
   2689   2705     1
   2690   2698     1
   2690   2692     1
   2691   2694     1
   2691   2703     1
   2691   2693     1
   2691   2698     1
   2691   2695     1
   2691   2692     1
   2692   2708     1
   2692   2697     1
   2692   2706     1
   2692   2705     1
   2693   2704     1
   2693   2708     1
   2695   2705     1
   2696   2705     1
   2699   2702     1
   2699   2703     1
   2700   2702     1
   2700   2703     1
   2703   2704     1
   2703   2705     1
   2705   2707     1
   2709   2715     1
   2709   2716     1
   2710   2713     1
   2710   2712     1
   2710   2714     1
   2712   2717     1
   2712   2715     1
   2712   2716     1
   2713   2727     1
   2713   2728     1
   2713   2720     1
   2713   2722     1
   2714   2717     1
   2714   2715     1
   2714   2716     1
   2715   2718     1
   2715   2719     1
   2716   2718     1
   2716   2719     1
   2717   2730     1
   2717   2731     1
   2717   2723     1
   2717   2724     1
   2718   2720     1
   2718   2722     1
   2719   2727     1
   2719   2728     1
   2720   2725     1
   2720   2723     1
   2720   2724     1
   2721   2747     1
   2722   2725     1
   2722   2723     1
   2722   2724     1
   2723   2726     1
   2723   2757     1
   2724   2726     1
   2724   2757     1
   2725   2740     1
   2726   2747     1
   2727   2732     1
   2727   2730     1
   2727   2731     1
   2728   2732     1
   2728   2730     1
   2728   2731     1
   2729   2771     1
   2730   2733     1
   2730   2781     1
   2731   2733     1
   2731   2781     1
   2732   2764     1
   2733   2771     1
   2734   2741     1
   2734   2756     1
   2734   2751     1
   2734   2742     1
   2735   2748     1
   2735   2749     1
   2735   2740     1
   2735   2746     1
   2736   2737     1
   2736   2755     1
   2736   2754     1
   2736   2750     1
   2736   2748     1
   2736   2749     1
   2736   2739     1
   2737   2756     1
   2737   2742     1
   2737   2747     1
   2738   2754     1
   2738   2746     1
   2738   2753     1
   2739   2741     1
   2739   2747     1
   2740   2744     1
   2740   2741     1
   2740   2743     1
   2740   2752     1
   2740   2742     1
   2740   2747     1
   2741   2755     1
   2741   2754     1
   2741   2757     1
   2741   2746     1
   2742   2757     1
   2742   2753     1
   2744   2754     1
   2745   2754     1
   2748   2752     1
   2748   2751     1
   2749   2752     1
   2749   2751     1
   2752   2754     1
   2752   2753     1
   2754   2756     1
   2758   2765     1
   2758   2780     1
   2758   2775     1
   2758   2766     1
   2759   2772     1
   2759   2773     1
   2759   2764     1
   2759   2770     1
   2760   2761     1
   2760   2779     1
   2760   2778     1
   2760   2774     1
   2760   2772     1
   2760   2773     1
   2760   2763     1
   2761   2780     1
   2761   2766     1
   2761   2771     1
   2762   2778     1
   2762   2770     1
   2762   2777     1
   2763   2765     1
   2763   2771     1
   2764   2768     1
   2764   2765     1
   2764   2767     1
   2764   2776     1
   2764   2766     1
   2764   2771     1
   2765   2779     1
   2765   2778     1
   2765   2781     1
   2765   2770     1
   2766   2781     1
   2766   2777     1
   2768   2778     1
   2769   2778     1
   2772   2776     1
   2772   2775     1
   2773   2776     1
   2773   2775     1
   2776   2778     1
   2776   2777     1
   2778   2780     1
   2782   2788     1
   2782   2789     1
   2783   2786     1
   2783   2785     1
   2783   2787     1
   2785   2790     1
   2785   2788     1
   2785   2789     1
   2786   2800     1
   2786   2801     1
   2786   2793     1
   2786   2795     1
   2787   2790     1
   2787   2788     1
   2787   2789     1
   2788   2791     1
   2788   2792     1
   2789   2791     1
   2789   2792     1
   2790   2803     1
   2790   2804     1
   2790   2796     1
   2790   2797     1
   2791   2793     1
   2791   2795     1
   2792   2800     1
   2792   2801     1
   2793   2798     1
   2793   2796     1
   2793   2797     1
   2794   2820     1
   2795   2798     1
   2795   2796     1
   2795   2797     1
   2796   2799     1
   2796   2830     1
   2797   2799     1
   2797   2830     1
   2798   2813     1
   2799   2820     1
   2800   2805     1
   2800   2803     1
   2800   2804     1
   2801   2805     1
   2801   2803     1
   2801   2804     1
   2802   2844     1
   2803   2806     1
   2803   2854     1
   2804   2806     1
   2804   2854     1
   2805   2837     1
   2806   2844     1
   2807   2814     1
   2807   2829     1
   2807   2824     1
   2807   2815     1
   2808   2813     1
   2808   2819     1
   2808   2821     1
   2808   2822     1
   2809   2810     1
   2809   2828     1
   2809   2827     1
   2809   2823     1
   2809   2821     1
   2809   2822     1
   2809   2812     1
   2810   2815     1
   2810   2820     1
   2810   2829     1
   2811   2826     1
   2811   2819     1
   2811   2827     1
   2812   2820     1
   2812   2814     1
   2813   2816     1
   2813   2825     1
   2813   2815     1
   2813   2820     1
   2813   2817     1
   2813   2814     1
   2814   2830     1
   2814   2819     1
   2814   2828     1
   2814   2827     1
   2815   2826     1
   2815   2830     1
   2817   2827     1
   2818   2827     1
   2821   2824     1
   2821   2825     1
   2822   2824     1
   2822   2825     1
   2825   2826     1
   2825   2827     1
   2827   2829     1
   2831   2838     1
   2831   2853     1
   2831   2848     1
   2831   2839     1
   2832   2837     1
   2832   2843     1
   2832   2845     1
   2832   2846     1
   2833   2834     1
   2833   2852     1
   2833   2851     1
   2833   2847     1
   2833   2845     1
   2833   2846     1
   2833   2836     1
   2834   2839     1
   2834   2844     1
   2834   2853     1
   2835   2850     1
   2835   2843     1
   2835   2851     1
   2836   2844     1
   2836   2838     1
   2837   2840     1
   2837   2849     1
   2837   2839     1
   2837   2844     1
   2837   2841     1
   2837   2838     1
   2838   2854     1
   2838   2843     1
   2838   2852     1
   2838   2851     1
   2839   2850     1
   2839   2854     1
   2841   2851     1
   2842   2851     1
   2845   2848     1
   2845   2849     1
   2846   2848     1
   2846   2849     1
   2849   2850     1
   2849   2851     1
   2851   2853     1
   2855   2861     1
   2855   2862     1
   2856   2859     1
   2856   2858     1
   2856   2860     1
   2858   2863     1
   2858   2861     1
   2858   2862     1
   2859   2873     1
   2859   2874     1
   2859   2866     1
   2859   2868     1
   2860   2863     1
   2860   2861     1
   2860   2862     1
   2861   2864     1
   2861   2865     1
   2862   2864     1
   2862   2865     1
   2863   2876     1
   2863   2877     1
   2863   2869     1
   2863   2870     1
   2864   2866     1
   2864   2868     1
   2865   2873     1
   2865   2874     1
   2866   2871     1
   2866   2869     1
   2866   2870     1
   2867   2893     1
   2868   2871     1
   2868   2869     1
   2868   2870     1
   2869   2872     1
   2869   2903     1
   2870   2872     1
   2870   2903     1
   2871   2886     1
   2872   2893     1
   2873   2878     1
   2873   2876     1
   2873   2877     1
   2874   2878     1
   2874   2876     1
   2874   2877     1
   2875   2917     1
   2876   2879     1
   2876   2927     1
   2877   2879     1
   2877   2927     1
   2878   2910     1
   2879   2917     1
   2880   2887     1
   2880   2902     1
   2880   2897     1
   2880   2888     1
   2881   2894     1
   2881   2895     1
   2881   2886     1
   2881   2892     1
   2882   2883     1
   2882   2901     1
   2882   2900     1
   2882   2896     1
   2882   2894     1
   2882   2895     1
   2882   2885     1
   2883   2902     1
   2883   2888     1
   2883   2893     1
   2884   2900     1
   2884   2892     1
   2884   2899     1
   2885   2887     1
   2885   2893     1
   2886   2890     1
   2886   2887     1
   2886   2889     1
   2886   2898     1
   2886   2888     1
   2886   2893     1
   2887   2901     1
   2887   2900     1
   2887   2903     1
   2887   2892     1
   2888   2903     1
   2888   2899     1
   2890   2900     1
   2891   2900     1
   2894   2898     1
   2894   2897     1
   2895   2898     1
   2895   2897     1
   2898   2900     1
   2898   2899     1
   2900   2902     1
   2904   2911     1
   2904   2926     1
   2904   2921     1
   2904   2912     1
   2905   2918     1
   2905   2919     1
   2905   2910     1
   2905   2916     1
   2906   2907     1
   2906   2925     1
   2906   2924     1
   2906   2920     1
   2906   2918     1
   2906   2919     1
   2906   2909     1
   2907   2926     1
   2907   2912     1
   2907   2917     1
   2908   2924     1
   2908   2916     1
   2908   2923     1
   2909   2911     1
   2909   2917     1
   2910   2914     1
   2910   2911     1
   2910   2913     1
   2910   2922     1
   2910   2912     1
   2910   2917     1
   2911   2925     1
   2911   2924     1
   2911   2927     1
   2911   2916     1
   2912   2927     1
   2912   2923     1
   2914   2924     1
   2915   2924     1
   2918   2922     1
   2918   2921     1
   2919   2922     1
   2919   2921     1
   2922   2924     1
   2922   2923     1
   2924   2926     1
   2928   2934     1
   2928   2935     1
   2929   2932     1
   2929   2931     1
   2929   2933     1
   2931   2936     1
   2931   2934     1
   2931   2935     1
   2932   2946     1
   2932   2947     1
   2932   2939     1
   2932   2941     1
   2933   2936     1
   2933   2934     1
   2933   2935     1
   2934   2937     1
   2934   2938     1
   2935   2937     1
   2935   2938     1
   2936   2949     1
   2936   2950     1
   2936   2942     1
   2936   2943     1
   2937   2939     1
   2937   2941     1
   2938   2946     1
   2938   2947     1
   2939   2944     1
   2939   2942     1
   2939   2943     1
   2940   2966     1
   2941   2944     1
   2941   2942     1
   2941   2943     1
   2942   2945     1
   2942   2976     1
   2943   2945     1
   2943   2976     1
   2944   2959     1
   2945   2966     1
   2946   2951     1
   2946   2949     1
   2946   2950     1
   2947   2951     1
   2947   2949     1
   2947   2950     1
   2948   2990     1
   2949   2952     1
   2949   3000     1
   2950   2952     1
   2950   3000     1
   2951   2983     1
   2952   2990     1
   2953   2960     1
   2953   2975     1
   2953   2970     1
   2953   2961     1
   2954   2959     1
   2954   2965     1
   2954   2967     1
   2954   2968     1
   2955   2956     1
   2955   2974     1
   2955   2973     1
   2955   2969     1
   2955   2967     1
   2955   2968     1
   2955   2958     1
   2956   2961     1
   2956   2966     1
   2956   2975     1
   2957   2972     1
   2957   2965     1
   2957   2973     1
   2958   2966     1
   2958   2960     1
   2959   2962     1
   2959   2971     1
   2959   2961     1
   2959   2966     1
   2959   2963     1
   2959   2960     1
   2960   2976     1
   2960   2965     1
   2960   2974     1
   2960   2973     1
   2961   2972     1
   2961   2976     1
   2963   2973     1
   2964   2973     1
   2967   2970     1
   2967   2971     1
   2968   2970     1
   2968   2971     1
   2971   2972     1
   2971   2973     1
   2973   2975     1
   2977   2984     1
   2977   2999     1
   2977   2994     1
   2977   2985     1
   2978   2983     1
   2978   2989     1
   2978   2991     1
   2978   2992     1
   2979   2980     1
   2979   2998     1
   2979   2997     1
   2979   2993     1
   2979   2991     1
   2979   2992     1
   2979   2982     1
   2980   2985     1
   2980   2990     1
   2980   2999     1
   2981   2996     1
   2981   2989     1
   2981   2997     1
   2982   2990     1
   2982   2984     1
   2983   2986     1
   2983   2995     1
   2983   2985     1
   2983   2990     1
   2983   2987     1
   2983   2984     1
   2984   3000     1
   2984   2989     1
   2984   2998     1
   2984   2997     1
   2985   2996     1
   2985   3000     1
   2987   2997     1
   2988   2997     1
   2991   2994     1
   2991   2995     1
   2992   2994     1
   2992   2995     1
   2995   2996     1
   2995   2997     1
   2997   2999     1
   3001   3007     1
   3001   3008     1
   3002   3005     1
   3002   3004     1
   3002   3006     1
   3004   3009     1
   3004   3007     1
   3004   3008     1
   3005   3019     1
   3005   3020     1
   3005   3012     1
   3005   3014     1
   3006   3009     1
   3006   3007     1
   3006   3008     1
   3007   3010     1
   3007   3011     1
   3008   3010     1
   3008   3011     1
   3009   3022     1
   3009   3023     1
   3009   3015     1
   3009   3016     1
   3010   3012     1
   3010   3014     1
   3011   3019     1
   3011   3020     1
   3012   3017     1
   3012   3015     1
   3012   3016     1
   3013   3039     1
   3014   3017     1
   3014   3015     1
   3014   3016     1
   3015   3018     1
   3015   3049     1
   3016   3018     1
   3016   3049     1
   3017   3032     1
   3018   3039     1
   3019   3024     1
   3019   3022     1
   3019   3023     1
   3020   3024     1
   3020   3022     1
   3020   3023     1
   3021   3063     1
   3022   3025     1
   3022   3073     1
   3023   3025     1
   3023   3073     1
   3024   3056     1
   3025   3063     1
   3026   3033     1
   3026   3048     1
   3026   3043     1
   3026   3034     1
   3027   3040     1
   3027   3041     1
   3027   3032     1
   3027   3038     1
   3028   3029     1
   3028   3047     1
   3028   3046     1
   3028   3042     1
   3028   3040     1
   3028   3041     1
   3028   3031     1
   3029   3048     1
   3029   3034     1
   3029   3039     1
   3030   3046     1
   3030   3038     1
   3030   3045     1
   3031   3033     1
   3031   3039     1
   3032   3036     1
   3032   3033     1
   3032   3035     1
   3032   3044     1
   3032   3034     1
   3032   3039     1
   3033   3047     1
   3033   3046     1
   3033   3049     1
   3033   3038     1
   3034   3049     1
   3034   3045     1
   3036   3046     1
   3037   3046     1
   3040   3044     1
   3040   3043     1
   3041   3044     1
   3041   3043     1
   3044   3046     1
   3044   3045     1
   3046   3048     1
   3050   3057     1
   3050   3072     1
   3050   3067     1
   3050   3058     1
   3051   3064     1
   3051   3065     1
   3051   3056     1
   3051   3062     1
   3052   3053     1
   3052   3071     1
   3052   3070     1
   3052   3066     1
   3052   3064     1
   3052   3065     1
   3052   3055     1
   3053   3072     1
   3053   3058     1
   3053   3063     1
   3054   3070     1
   3054   3062     1
   3054   3069     1
   3055   3057     1
   3055   3063     1
   3056   3060     1
   3056   3057     1
   3056   3059     1
   3056   3068     1
   3056   3058     1
   3056   3063     1
   3057   3071     1
   3057   3070     1
   3057   3073     1
   3057   3062     1
   3058   3073     1
   3058   3069     1
   3060   3070     1
   3061   3070     1
   3064   3068     1
   3064   3067     1
   3065   3068     1
   3065   3067     1
   3068   3070     1
   3068   3069     1
   3070   3072     1
   3074   3080     1
   3074   3081     1
   3075   3078     1
   3075   3077     1
   3075   3079     1
   3077   3082     1
   3077   3080     1
   3077   3081     1
   3078   3092     1
   3078   3093     1
   3078   3085     1
   3078   3087     1
   3079   3082     1
   3079   3080     1
   3079   3081     1
   3080   3083     1
   3080   3084     1
   3081   3083     1
   3081   3084     1
   3082   3095     1
   3082   3096     1
   3082   3088     1
   3082   3089     1
   3083   3085     1
   3083   3087     1
   3084   3092     1
   3084   3093     1
   3085   3090     1
   3085   3088     1
   3085   3089     1
   3086   3112     1
   3087   3090     1
   3087   3088     1
   3087   3089     1
   3088   3091     1
   3088   3122     1
   3089   3091     1
   3089   3122     1
   3090   3105     1
   3091   3112     1
   3092   3097     1
   3092   3095     1
   3092   3096     1
   3093   3097     1
   3093   3095     1
   3093   3096     1
   3094   3136     1
   3095   3098     1
   3095   3146     1
   3096   3098     1
   3096   3146     1
   3097   3129     1
   3098   3136     1
   3099   3106     1
   3099   3121     1
   3099   3116     1
   3099   3107     1
   3100   3105     1
   3100   3111     1
   3100   3113     1
   3100   3114     1
   3101   3102     1
   3101   3120     1
   3101   3119     1
   3101   3115     1
   3101   3113     1
   3101   3114     1
   3101   3104     1
   3102   3107     1
   3102   3112     1
   3102   3121     1
   3103   3118     1
   3103   3111     1
   3103   3119     1
   3104   3112     1
   3104   3106     1
   3105   3108     1
   3105   3117     1
   3105   3107     1
   3105   3112     1
   3105   3109     1
   3105   3106     1
   3106   3122     1
   3106   3111     1
   3106   3120     1
   3106   3119     1
   3107   3118     1
   3107   3122     1
   3109   3119     1
   3110   3119     1
   3113   3116     1
   3113   3117     1
   3114   3116     1
   3114   3117     1
   3117   3118     1
   3117   3119     1
   3119   3121     1
   3123   3130     1
   3123   3145     1
   3123   3140     1
   3123   3131     1
   3124   3129     1
   3124   3135     1
   3124   3137     1
   3124   3138     1
   3125   3126     1
   3125   3144     1
   3125   3143     1
   3125   3139     1
   3125   3137     1
   3125   3138     1
   3125   3128     1
   3126   3131     1
   3126   3136     1
   3126   3145     1
   3127   3142     1
   3127   3135     1
   3127   3143     1
   3128   3136     1
   3128   3130     1
   3129   3132     1
   3129   3141     1
   3129   3131     1
   3129   3136     1
   3129   3133     1
   3129   3130     1
   3130   3146     1
   3130   3135     1
   3130   3144     1
   3130   3143     1
   3131   3142     1
   3131   3146     1
   3133   3143     1
   3134   3143     1
   3137   3140     1
   3137   3141     1
   3138   3140     1
   3138   3141     1
   3141   3142     1
   3141   3143     1
   3143   3145     1
   3147   3153     1
   3147   3154     1
   3148   3151     1
   3148   3150     1
   3148   3152     1
   3150   3155     1
   3150   3153     1
   3150   3154     1
   3151   3165     1
   3151   3166     1
   3151   3158     1
   3151   3160     1
   3152   3155     1
   3152   3153     1
   3152   3154     1
   3153   3156     1
   3153   3157     1
   3154   3156     1
   3154   3157     1
   3155   3168     1
   3155   3169     1
   3155   3161     1
   3155   3162     1
   3156   3158     1
   3156   3160     1
   3157   3165     1
   3157   3166     1
   3158   3163     1
   3158   3161     1
   3158   3162     1
   3159   3185     1
   3160   3163     1
   3160   3161     1
   3160   3162     1
   3161   3164     1
   3161   3195     1
   3162   3164     1
   3162   3195     1
   3163   3178     1
   3164   3185     1
   3165   3170     1
   3165   3168     1
   3165   3169     1
   3166   3170     1
   3166   3168     1
   3166   3169     1
   3167   3209     1
   3168   3171     1
   3168   3219     1
   3169   3171     1
   3169   3219     1
   3170   3202     1
   3171   3209     1
   3172   3179     1
   3172   3194     1
   3172   3189     1
   3172   3180     1
   3173   3186     1
   3173   3187     1
   3173   3178     1
   3173   3184     1
   3174   3175     1
   3174   3193     1
   3174   3192     1
   3174   3188     1
   3174   3186     1
   3174   3187     1
   3174   3177     1
   3175   3194     1
   3175   3180     1
   3175   3185     1
   3176   3192     1
   3176   3184     1
   3176   3191     1
   3177   3179     1
   3177   3185     1
   3178   3182     1
   3178   3179     1
   3178   3181     1
   3178   3190     1
   3178   3180     1
   3178   3185     1
   3179   3193     1
   3179   3192     1
   3179   3195     1
   3179   3184     1
   3180   3195     1
   3180   3191     1
   3182   3192     1
   3183   3192     1
   3186   3190     1
   3186   3189     1
   3187   3190     1
   3187   3189     1
   3190   3192     1
   3190   3191     1
   3192   3194     1
   3196   3203     1
   3196   3218     1
   3196   3213     1
   3196   3204     1
   3197   3210     1
   3197   3211     1
   3197   3202     1
   3197   3208     1
   3198   3199     1
   3198   3217     1
   3198   3216     1
   3198   3212     1
   3198   3210     1
   3198   3211     1
   3198   3201     1
   3199   3218     1
   3199   3204     1
   3199   3209     1
   3200   3216     1
   3200   3208     1
   3200   3215     1
   3201   3203     1
   3201   3209     1
   3202   3206     1
   3202   3203     1
   3202   3205     1
   3202   3214     1
   3202   3204     1
   3202   3209     1
   3203   3217     1
   3203   3216     1
   3203   3219     1
   3203   3208     1
   3204   3219     1
   3204   3215     1
   3206   3216     1
   3207   3216     1
   3210   3214     1
   3210   3213     1
   3211   3214     1
   3211   3213     1
   3214   3216     1
   3214   3215     1
   3216   3218     1
   3220   3226     1
   3220   3227     1
   3221   3224     1
   3221   3223     1
   3221   3225     1
   3223   3228     1
   3223   3226     1
   3223   3227     1
   3224   3238     1
   3224   3239     1
   3224   3231     1
   3224   3233     1
   3225   3228     1
   3225   3226     1
   3225   3227     1
   3226   3229     1
   3226   3230     1
   3227   3229     1
   3227   3230     1
   3228   3241     1
   3228   3242     1
   3228   3234     1
   3228   3235     1
   3229   3231     1
   3229   3233     1
   3230   3238     1
   3230   3239     1
   3231   3236     1
   3231   3234     1
   3231   3235     1
   3232   3258     1
   3233   3236     1
   3233   3234     1
   3233   3235     1
   3234   3237     1
   3234   3268     1
   3235   3237     1
   3235   3268     1
   3236   3251     1
   3237   3258     1
   3238   3243     1
   3238   3241     1
   3238   3242     1
   3239   3243     1
   3239   3241     1
   3239   3242     1
   3240   3282     1
   3241   3244     1
   3241   3292     1
   3242   3244     1
   3242   3292     1
   3243   3275     1
   3244   3282     1
   3245   3252     1
   3245   3267     1
   3245   3262     1
   3245   3253     1
   3246   3251     1
   3246   3257     1
   3246   3259     1
   3246   3260     1
   3247   3248     1
   3247   3266     1
   3247   3265     1
   3247   3261     1
   3247   3259     1
   3247   3260     1
   3247   3250     1
   3248   3253     1
   3248   3258     1
   3248   3267     1
   3249   3264     1
   3249   3257     1
   3249   3265     1
   3250   3258     1
   3250   3252     1
   3251   3254     1
   3251   3263     1
   3251   3253     1
   3251   3258     1
   3251   3255     1
   3251   3252     1
   3252   3268     1
   3252   3257     1
   3252   3266     1
   3252   3265     1
   3253   3264     1
   3253   3268     1
   3255   3265     1
   3256   3265     1
   3259   3262     1
   3259   3263     1
   3260   3262     1
   3260   3263     1
   3263   3264     1
   3263   3265     1
   3265   3267     1
   3269   3276     1
   3269   3291     1
   3269   3286     1
   3269   3277     1
   3270   3275     1
   3270   3281     1
   3270   3283     1
   3270   3284     1
   3271   3272     1
   3271   3290     1
   3271   3289     1
   3271   3285     1
   3271   3283     1
   3271   3284     1
   3271   3274     1
   3272   3277     1
   3272   3282     1
   3272   3291     1
   3273   3288     1
   3273   3281     1
   3273   3289     1
   3274   3282     1
   3274   3276     1
   3275   3278     1
   3275   3287     1
   3275   3277     1
   3275   3282     1
   3275   3279     1
   3275   3276     1
   3276   3292     1
   3276   3281     1
   3276   3290     1
   3276   3289     1
   3277   3288     1
   3277   3292     1
   3279   3289     1
   3280   3289     1
   3283   3286     1
   3283   3287     1
   3284   3286     1
   3284   3287     1
   3287   3288     1
   3287   3289     1
   3289   3291     1
   3293   3299     1
   3293   3300     1
   3294   3297     1
   3294   3296     1
   3294   3298     1
   3296   3301     1
   3296   3299     1
   3296   3300     1
   3297   3311     1
   3297   3312     1
   3297   3304     1
   3297   3306     1
   3298   3301     1
   3298   3299     1
   3298   3300     1
   3299   3302     1
   3299   3303     1
   3300   3302     1
   3300   3303     1
   3301   3314     1
   3301   3315     1
   3301   3307     1
   3301   3308     1
   3302   3304     1
   3302   3306     1
   3303   3311     1
   3303   3312     1
   3304   3309     1
   3304   3307     1
   3304   3308     1
   3305   3331     1
   3306   3309     1
   3306   3307     1
   3306   3308     1
   3307   3310     1
   3307   3341     1
   3308   3310     1
   3308   3341     1
   3309   3324     1
   3310   3331     1
   3311   3316     1
   3311   3314     1
   3311   3315     1
   3312   3316     1
   3312   3314     1
   3312   3315     1
   3313   3355     1
   3314   3317     1
   3314   3365     1
   3315   3317     1
   3315   3365     1
   3316   3348     1
   3317   3355     1
   3318   3325     1
   3318   3340     1
   3318   3335     1
   3318   3326     1
   3319   3332     1
   3319   3333     1
   3319   3324     1
   3319   3330     1
   3320   3321     1
   3320   3339     1
   3320   3338     1
   3320   3334     1
   3320   3332     1
   3320   3333     1
   3320   3323     1
   3321   3340     1
   3321   3326     1
   3321   3331     1
   3322   3338     1
   3322   3330     1
   3322   3337     1
   3323   3325     1
   3323   3331     1
   3324   3328     1
   3324   3325     1
   3324   3327     1
   3324   3336     1
   3324   3326     1
   3324   3331     1
   3325   3339     1
   3325   3338     1
   3325   3341     1
   3325   3330     1
   3326   3341     1
   3326   3337     1
   3328   3338     1
   3329   3338     1
   3332   3336     1
   3332   3335     1
   3333   3336     1
   3333   3335     1
   3336   3338     1
   3336   3337     1
   3338   3340     1
   3342   3349     1
   3342   3364     1
   3342   3359     1
   3342   3350     1
   3343   3356     1
   3343   3357     1
   3343   3348     1
   3343   3354     1
   3344   3345     1
   3344   3363     1
   3344   3362     1
   3344   3358     1
   3344   3356     1
   3344   3357     1
   3344   3347     1
   3345   3364     1
   3345   3350     1
   3345   3355     1
   3346   3362     1
   3346   3354     1
   3346   3361     1
   3347   3349     1
   3347   3355     1
   3348   3352     1
   3348   3349     1
   3348   3351     1
   3348   3360     1
   3348   3350     1
   3348   3355     1
   3349   3363     1
   3349   3362     1
   3349   3365     1
   3349   3354     1
   3350   3365     1
   3350   3361     1
   3352   3362     1
   3353   3362     1
   3356   3360     1
   3356   3359     1
   3357   3360     1
   3357   3359     1
   3360   3362     1
   3360   3361     1
   3362   3364     1
   3366   3372     1
   3366   3373     1
   3367   3370     1
   3367   3369     1
   3367   3371     1
   3369   3374     1
   3369   3372     1
   3369   3373     1
   3370   3384     1
   3370   3385     1
   3370   3377     1
   3370   3379     1
   3371   3374     1
   3371   3372     1
   3371   3373     1
   3372   3375     1
   3372   3376     1
   3373   3375     1
   3373   3376     1
   3374   3387     1
   3374   3388     1
   3374   3380     1
   3374   3381     1
   3375   3377     1
   3375   3379     1
   3376   3384     1
   3376   3385     1
   3377   3382     1
   3377   3380     1
   3377   3381     1
   3378   3404     1
   3379   3382     1
   3379   3380     1
   3379   3381     1
   3380   3383     1
   3380   3414     1
   3381   3383     1
   3381   3414     1
   3382   3397     1
   3383   3404     1
   3384   3389     1
   3384   3387     1
   3384   3388     1
   3385   3389     1
   3385   3387     1
   3385   3388     1
   3386   3428     1
   3387   3390     1
   3387   3438     1
   3388   3390     1
   3388   3438     1
   3389   3421     1
   3390   3428     1
   3391   3398     1
   3391   3413     1
   3391   3408     1
   3391   3399     1
   3392   3397     1
   3392   3403     1
   3392   3405     1
   3392   3406     1
   3393   3394     1
   3393   3412     1
   3393   3411     1
   3393   3407     1
   3393   3405     1
   3393   3406     1
   3393   3396     1
   3394   3399     1
   3394   3404     1
   3394   3413     1
   3395   3410     1
   3395   3403     1
   3395   3411     1
   3396   3404     1
   3396   3398     1
   3397   3400     1
   3397   3409     1
   3397   3399     1
   3397   3404     1
   3397   3401     1
   3397   3398     1
   3398   3414     1
   3398   3403     1
   3398   3412     1
   3398   3411     1
   3399   3410     1
   3399   3414     1
   3401   3411     1
   3402   3411     1
   3405   3408     1
   3405   3409     1
   3406   3408     1
   3406   3409     1
   3409   3410     1
   3409   3411     1
   3411   3413     1
   3415   3422     1
   3415   3437     1
   3415   3432     1
   3415   3423     1
   3416   3421     1
   3416   3427     1
   3416   3429     1
   3416   3430     1
   3417   3418     1
   3417   3436     1
   3417   3435     1
   3417   3431     1
   3417   3429     1
   3417   3430     1
   3417   3420     1
   3418   3423     1
   3418   3428     1
   3418   3437     1
   3419   3434     1
   3419   3427     1
   3419   3435     1
   3420   3428     1
   3420   3422     1
   3421   3424     1
   3421   3433     1
   3421   3423     1
   3421   3428     1
   3421   3425     1
   3421   3422     1
   3422   3438     1
   3422   3427     1
   3422   3436     1
   3422   3435     1
   3423   3434     1
   3423   3438     1
   3425   3435     1
   3426   3435     1
   3429   3432     1
   3429   3433     1
   3430   3432     1
   3430   3433     1
   3433   3434     1
   3433   3435     1
   3435   3437     1
   3439   3445     1
   3439   3446     1
   3440   3443     1
   3440   3442     1
   3440   3444     1
   3442   3447     1
   3442   3445     1
   3442   3446     1
   3443   3457     1
   3443   3458     1
   3443   3450     1
   3443   3452     1
   3444   3447     1
   3444   3445     1
   3444   3446     1
   3445   3448     1
   3445   3449     1
   3446   3448     1
   3446   3449     1
   3447   3460     1
   3447   3461     1
   3447   3453     1
   3447   3454     1
   3448   3450     1
   3448   3452     1
   3449   3457     1
   3449   3458     1
   3450   3455     1
   3450   3453     1
   3450   3454     1
   3451   3477     1
   3452   3455     1
   3452   3453     1
   3452   3454     1
   3453   3456     1
   3453   3487     1
   3454   3456     1
   3454   3487     1
   3455   3470     1
   3456   3477     1
   3457   3462     1
   3457   3460     1
   3457   3461     1
   3458   3462     1
   3458   3460     1
   3458   3461     1
   3459   3501     1
   3460   3463     1
   3460   3511     1
   3461   3463     1
   3461   3511     1
   3462   3494     1
   3463   3501     1
   3464   3471     1
   3464   3486     1
   3464   3481     1
   3464   3472     1
   3465   3478     1
   3465   3479     1
   3465   3470     1
   3465   3476     1
   3466   3467     1
   3466   3485     1
   3466   3484     1
   3466   3480     1
   3466   3478     1
   3466   3479     1
   3466   3469     1
   3467   3486     1
   3467   3472     1
   3467   3477     1
   3468   3484     1
   3468   3476     1
   3468   3483     1
   3469   3471     1
   3469   3477     1
   3470   3474     1
   3470   3471     1
   3470   3473     1
   3470   3482     1
   3470   3472     1
   3470   3477     1
   3471   3485     1
   3471   3484     1
   3471   3487     1
   3471   3476     1
   3472   3487     1
   3472   3483     1
   3474   3484     1
   3475   3484     1
   3478   3482     1
   3478   3481     1
   3479   3482     1
   3479   3481     1
   3482   3484     1
   3482   3483     1
   3484   3486     1
   3488   3495     1
   3488   3510     1
   3488   3505     1
   3488   3496     1
   3489   3502     1
   3489   3503     1
   3489   3494     1
   3489   3500     1
   3490   3491     1
   3490   3509     1
   3490   3508     1
   3490   3504     1
   3490   3502     1
   3490   3503     1
   3490   3493     1
   3491   3510     1
   3491   3496     1
   3491   3501     1
   3492   3508     1
   3492   3500     1
   3492   3507     1
   3493   3495     1
   3493   3501     1
   3494   3498     1
   3494   3495     1
   3494   3497     1
   3494   3506     1
   3494   3496     1
   3494   3501     1
   3495   3509     1
   3495   3508     1
   3495   3511     1
   3495   3500     1
   3496   3511     1
   3496   3507     1
   3498   3508     1
   3499   3508     1
   3502   3506     1
   3502   3505     1
   3503   3506     1
   3503   3505     1
   3506   3508     1
   3506   3507     1
   3508   3510     1
   3512   3518     1
   3512   3519     1
   3513   3516     1
   3513   3515     1
   3513   3517     1
   3515   3520     1
   3515   3518     1
   3515   3519     1
   3516   3530     1
   3516   3531     1
   3516   3523     1
   3516   3525     1
   3517   3520     1
   3517   3518     1
   3517   3519     1
   3518   3521     1
   3518   3522     1
   3519   3521     1
   3519   3522     1
   3520   3533     1
   3520   3534     1
   3520   3526     1
   3520   3527     1
   3521   3523     1
   3521   3525     1
   3522   3530     1
   3522   3531     1
   3523   3528     1
   3523   3526     1
   3523   3527     1
   3524   3550     1
   3525   3528     1
   3525   3526     1
   3525   3527     1
   3526   3529     1
   3526   3560     1
   3527   3529     1
   3527   3560     1
   3528   3543     1
   3529   3550     1
   3530   3535     1
   3530   3533     1
   3530   3534     1
   3531   3535     1
   3531   3533     1
   3531   3534     1
   3532   3574     1
   3533   3536     1
   3533   3584     1
   3534   3536     1
   3534   3584     1
   3535   3567     1
   3536   3574     1
   3537   3544     1
   3537   3559     1
   3537   3554     1
   3537   3545     1
   3538   3543     1
   3538   3549     1
   3538   3551     1
   3538   3552     1
   3539   3540     1
   3539   3558     1
   3539   3557     1
   3539   3553     1
   3539   3551     1
   3539   3552     1
   3539   3542     1
   3540   3545     1
   3540   3550     1
   3540   3559     1
   3541   3556     1
   3541   3549     1
   3541   3557     1
   3542   3550     1
   3542   3544     1
   3543   3546     1
   3543   3555     1
   3543   3545     1
   3543   3550     1
   3543   3547     1
   3543   3544     1
   3544   3560     1
   3544   3549     1
   3544   3558     1
   3544   3557     1
   3545   3556     1
   3545   3560     1
   3547   3557     1
   3548   3557     1
   3551   3554     1
   3551   3555     1
   3552   3554     1
   3552   3555     1
   3555   3556     1
   3555   3557     1
   3557   3559     1
   3561   3568     1
   3561   3583     1
   3561   3578     1
   3561   3569     1
   3562   3567     1
   3562   3573     1
   3562   3575     1
   3562   3576     1
   3563   3564     1
   3563   3582     1
   3563   3581     1
   3563   3577     1
   3563   3575     1
   3563   3576     1
   3563   3566     1
   3564   3569     1
   3564   3574     1
   3564   3583     1
   3565   3580     1
   3565   3573     1
   3565   3581     1
   3566   3574     1
   3566   3568     1
   3567   3570     1
   3567   3579     1
   3567   3569     1
   3567   3574     1
   3567   3571     1
   3567   3568     1
   3568   3584     1
   3568   3573     1
   3568   3582     1
   3568   3581     1
   3569   3580     1
   3569   3584     1
   3571   3581     1
   3572   3581     1
   3575   3578     1
   3575   3579     1
   3576   3578     1
   3576   3579     1
   3579   3580     1
   3579   3581     1
   3581   3583     1
   3585   3591     1
   3585   3592     1
   3586   3589     1
   3586   3588     1
   3586   3590     1
   3588   3593     1
   3588   3591     1
   3588   3592     1
   3589   3603     1
   3589   3604     1
   3589   3596     1
   3589   3598     1
   3590   3593     1
   3590   3591     1
   3590   3592     1
   3591   3594     1
   3591   3595     1
   3592   3594     1
   3592   3595     1
   3593   3606     1
   3593   3607     1
   3593   3599     1
   3593   3600     1
   3594   3596     1
   3594   3598     1
   3595   3603     1
   3595   3604     1
   3596   3601     1
   3596   3599     1
   3596   3600     1
   3597   3623     1
   3598   3601     1
   3598   3599     1
   3598   3600     1
   3599   3602     1
   3599   3633     1
   3600   3602     1
   3600   3633     1
   3601   3616     1
   3602   3623     1
   3603   3608     1
   3603   3606     1
   3603   3607     1
   3604   3608     1
   3604   3606     1
   3604   3607     1
   3605   3647     1
   3606   3609     1
   3606   3657     1
   3607   3609     1
   3607   3657     1
   3608   3640     1
   3609   3647     1
   3610   3617     1
   3610   3632     1
   3610   3627     1
   3610   3618     1
   3611   3624     1
   3611   3625     1
   3611   3616     1
   3611   3622     1
   3612   3613     1
   3612   3631     1
   3612   3630     1
   3612   3626     1
   3612   3624     1
   3612   3625     1
   3612   3615     1
   3613   3632     1
   3613   3618     1
   3613   3623     1
   3614   3630     1
   3614   3622     1
   3614   3629     1
   3615   3617     1
   3615   3623     1
   3616   3620     1
   3616   3617     1
   3616   3619     1
   3616   3628     1
   3616   3618     1
   3616   3623     1
   3617   3631     1
   3617   3630     1
   3617   3633     1
   3617   3622     1
   3618   3633     1
   3618   3629     1
   3620   3630     1
   3621   3630     1
   3624   3628     1
   3624   3627     1
   3625   3628     1
   3625   3627     1
   3628   3630     1
   3628   3629     1
   3630   3632     1
   3634   3641     1
   3634   3656     1
   3634   3651     1
   3634   3642     1
   3635   3648     1
   3635   3649     1
   3635   3640     1
   3635   3646     1
   3636   3637     1
   3636   3655     1
   3636   3654     1
   3636   3650     1
   3636   3648     1
   3636   3649     1
   3636   3639     1
   3637   3656     1
   3637   3642     1
   3637   3647     1
   3638   3654     1
   3638   3646     1
   3638   3653     1
   3639   3641     1
   3639   3647     1
   3640   3644     1
   3640   3641     1
   3640   3643     1
   3640   3652     1
   3640   3642     1
   3640   3647     1
   3641   3655     1
   3641   3654     1
   3641   3657     1
   3641   3646     1
   3642   3657     1
   3642   3653     1
   3644   3654     1
   3645   3654     1
   3648   3652     1
   3648   3651     1
   3649   3652     1
   3649   3651     1
   3652   3654     1
   3652   3653     1
   3654   3656     1
   3658   3664     1
   3658   3665     1
   3659   3662     1
   3659   3661     1
   3659   3663     1
   3661   3666     1
   3661   3664     1
   3661   3665     1
   3662   3676     1
   3662   3677     1
   3662   3669     1
   3662   3671     1
   3663   3666     1
   3663   3664     1
   3663   3665     1
   3664   3667     1
   3664   3668     1
   3665   3667     1
   3665   3668     1
   3666   3679     1
   3666   3680     1
   3666   3672     1
   3666   3673     1
   3667   3669     1
   3667   3671     1
   3668   3676     1
   3668   3677     1
   3669   3674     1
   3669   3672     1
   3669   3673     1
   3670   3696     1
   3671   3674     1
   3671   3672     1
   3671   3673     1
   3672   3675     1
   3672   3706     1
   3673   3675     1
   3673   3706     1
   3674   3689     1
   3675   3696     1
   3676   3681     1
   3676   3679     1
   3676   3680     1
   3677   3681     1
   3677   3679     1
   3677   3680     1
   3678   3720     1
   3679   3682     1
   3679   3730     1
   3680   3682     1
   3680   3730     1
   3681   3713     1
   3682   3720     1
   3683   3690     1
   3683   3705     1
   3683   3700     1
   3683   3691     1
   3684   3689     1
   3684   3695     1
   3684   3697     1
   3684   3698     1
   3685   3686     1
   3685   3704     1
   3685   3703     1
   3685   3699     1
   3685   3697     1
   3685   3698     1
   3685   3688     1
   3686   3691     1
   3686   3696     1
   3686   3705     1
   3687   3702     1
   3687   3695     1
   3687   3703     1
   3688   3696     1
   3688   3690     1
   3689   3692     1
   3689   3701     1
   3689   3691     1
   3689   3696     1
   3689   3693     1
   3689   3690     1
   3690   3706     1
   3690   3695     1
   3690   3704     1
   3690   3703     1
   3691   3702     1
   3691   3706     1
   3693   3703     1
   3694   3703     1
   3697   3700     1
   3697   3701     1
   3698   3700     1
   3698   3701     1
   3701   3702     1
   3701   3703     1
   3703   3705     1
   3707   3714     1
   3707   3729     1
   3707   3724     1
   3707   3715     1
   3708   3713     1
   3708   3719     1
   3708   3721     1
   3708   3722     1
   3709   3710     1
   3709   3728     1
   3709   3727     1
   3709   3723     1
   3709   3721     1
   3709   3722     1
   3709   3712     1
   3710   3715     1
   3710   3720     1
   3710   3729     1
   3711   3726     1
   3711   3719     1
   3711   3727     1
   3712   3720     1
   3712   3714     1
   3713   3716     1
   3713   3725     1
   3713   3715     1
   3713   3720     1
   3713   3717     1
   3713   3714     1
   3714   3730     1
   3714   3719     1
   3714   3728     1
   3714   3727     1
   3715   3726     1
   3715   3730     1
   3717   3727     1
   3718   3727     1
   3721   3724     1
   3721   3725     1
   3722   3724     1
   3722   3725     1
   3725   3726     1
   3725   3727     1
   3727   3729     1
   3731   3737     1
   3731   3738     1
   3732   3735     1
   3732   3734     1
   3732   3736     1
   3734   3739     1
   3734   3737     1
   3734   3738     1
   3735   3749     1
   3735   3750     1
   3735   3742     1
   3735   3744     1
   3736   3739     1
   3736   3737     1
   3736   3738     1
   3737   3740     1
   3737   3741     1
   3738   3740     1
   3738   3741     1
   3739   3752     1
   3739   3753     1
   3739   3745     1
   3739   3746     1
   3740   3742     1
   3740   3744     1
   3741   3749     1
   3741   3750     1
   3742   3747     1
   3742   3745     1
   3742   3746     1
   3743   3769     1
   3744   3747     1
   3744   3745     1
   3744   3746     1
   3745   3748     1
   3745   3779     1
   3746   3748     1
   3746   3779     1
   3747   3762     1
   3748   3769     1
   3749   3754     1
   3749   3752     1
   3749   3753     1
   3750   3754     1
   3750   3752     1
   3750   3753     1
   3751   3793     1
   3752   3755     1
   3752   3803     1
   3753   3755     1
   3753   3803     1
   3754   3786     1
   3755   3793     1
   3756   3763     1
   3756   3778     1
   3756   3773     1
   3756   3764     1
   3757   3770     1
   3757   3771     1
   3757   3762     1
   3757   3768     1
   3758   3759     1
   3758   3777     1
   3758   3776     1
   3758   3772     1
   3758   3770     1
   3758   3771     1
   3758   3761     1
   3759   3778     1
   3759   3764     1
   3759   3769     1
   3760   3776     1
   3760   3768     1
   3760   3775     1
   3761   3763     1
   3761   3769     1
   3762   3766     1
   3762   3763     1
   3762   3765     1
   3762   3774     1
   3762   3764     1
   3762   3769     1
   3763   3777     1
   3763   3776     1
   3763   3779     1
   3763   3768     1
   3764   3779     1
   3764   3775     1
   3766   3776     1
   3767   3776     1
   3770   3774     1
   3770   3773     1
   3771   3774     1
   3771   3773     1
   3774   3776     1
   3774   3775     1
   3776   3778     1
   3780   3787     1
   3780   3802     1
   3780   3797     1
   3780   3788     1
   3781   3794     1
   3781   3795     1
   3781   3786     1
   3781   3792     1
   3782   3783     1
   3782   3801     1
   3782   3800     1
   3782   3796     1
   3782   3794     1
   3782   3795     1
   3782   3785     1
   3783   3802     1
   3783   3788     1
   3783   3793     1
   3784   3800     1
   3784   3792     1
   3784   3799     1
   3785   3787     1
   3785   3793     1
   3786   3790     1
   3786   3787     1
   3786   3789     1
   3786   3798     1
   3786   3788     1
   3786   3793     1
   3787   3801     1
   3787   3800     1
   3787   3803     1
   3787   3792     1
   3788   3803     1
   3788   3799     1
   3790   3800     1
   3791   3800     1
   3794   3798     1
   3794   3797     1
   3795   3798     1
   3795   3797     1
   3798   3800     1
   3798   3799     1
   3800   3802     1
   3804   3810     1
   3804   3811     1
   3805   3808     1
   3805   3807     1
   3805   3809     1
   3807   3812     1
   3807   3810     1
   3807   3811     1
   3808   3822     1
   3808   3823     1
   3808   3815     1
   3808   3817     1
   3809   3812     1
   3809   3810     1
   3809   3811     1
   3810   3813     1
   3810   3814     1
   3811   3813     1
   3811   3814     1
   3812   3825     1
   3812   3826     1
   3812   3818     1
   3812   3819     1
   3813   3815     1
   3813   3817     1
   3814   3822     1
   3814   3823     1
   3815   3820     1
   3815   3818     1
   3815   3819     1
   3816   3842     1
   3817   3820     1
   3817   3818     1
   3817   3819     1
   3818   3821     1
   3818   3852     1
   3819   3821     1
   3819   3852     1
   3820   3835     1
   3821   3842     1
   3822   3827     1
   3822   3825     1
   3822   3826     1
   3823   3827     1
   3823   3825     1
   3823   3826     1
   3824   3866     1
   3825   3828     1
   3825   3876     1
   3826   3828     1
   3826   3876     1
   3827   3859     1
   3828   3866     1
   3829   3836     1
   3829   3851     1
   3829   3846     1
   3829   3837     1
   3830   3835     1
   3830   3841     1
   3830   3843     1
   3830   3844     1
   3831   3832     1
   3831   3850     1
   3831   3849     1
   3831   3845     1
   3831   3843     1
   3831   3844     1
   3831   3834     1
   3832   3837     1
   3832   3842     1
   3832   3851     1
   3833   3848     1
   3833   3841     1
   3833   3849     1
   3834   3842     1
   3834   3836     1
   3835   3838     1
   3835   3847     1
   3835   3837     1
   3835   3842     1
   3835   3839     1
   3835   3836     1
   3836   3852     1
   3836   3841     1
   3836   3850     1
   3836   3849     1
   3837   3848     1
   3837   3852     1
   3839   3849     1
   3840   3849     1
   3843   3846     1
   3843   3847     1
   3844   3846     1
   3844   3847     1
   3847   3848     1
   3847   3849     1
   3849   3851     1
   3853   3860     1
   3853   3875     1
   3853   3870     1
   3853   3861     1
   3854   3859     1
   3854   3865     1
   3854   3867     1
   3854   3868     1
   3855   3856     1
   3855   3874     1
   3855   3873     1
   3855   3869     1
   3855   3867     1
   3855   3868     1
   3855   3858     1
   3856   3861     1
   3856   3866     1
   3856   3875     1
   3857   3872     1
   3857   3865     1
   3857   3873     1
   3858   3866     1
   3858   3860     1
   3859   3862     1
   3859   3871     1
   3859   3861     1
   3859   3866     1
   3859   3863     1
   3859   3860     1
   3860   3876     1
   3860   3865     1
   3860   3874     1
   3860   3873     1
   3861   3872     1
   3861   3876     1
   3863   3873     1
   3864   3873     1
   3867   3870     1
   3867   3871     1
   3868   3870     1
   3868   3871     1
   3871   3872     1
   3871   3873     1
   3873   3875     1
   3877   3883     1
   3877   3884     1
   3878   3881     1
   3878   3880     1
   3878   3882     1
   3880   3885     1
   3880   3883     1
   3880   3884     1
   3881   3895     1
   3881   3896     1
   3881   3888     1
   3881   3890     1
   3882   3885     1
   3882   3883     1
   3882   3884     1
   3883   3886     1
   3883   3887     1
   3884   3886     1
   3884   3887     1
   3885   3898     1
   3885   3899     1
   3885   3891     1
   3885   3892     1
   3886   3888     1
   3886   3890     1
   3887   3895     1
   3887   3896     1
   3888   3893     1
   3888   3891     1
   3888   3892     1
   3889   3915     1
   3890   3893     1
   3890   3891     1
   3890   3892     1
   3891   3894     1
   3891   3925     1
   3892   3894     1
   3892   3925     1
   3893   3908     1
   3894   3915     1
   3895   3900     1
   3895   3898     1
   3895   3899     1
   3896   3900     1
   3896   3898     1
   3896   3899     1
   3897   3939     1
   3898   3901     1
   3898   3949     1
   3899   3901     1
   3899   3949     1
   3900   3932     1
   3901   3939     1
   3902   3909     1
   3902   3924     1
   3902   3919     1
   3902   3910     1
   3903   3916     1
   3903   3917     1
   3903   3908     1
   3903   3914     1
   3904   3905     1
   3904   3923     1
   3904   3922     1
   3904   3918     1
   3904   3916     1
   3904   3917     1
   3904   3907     1
   3905   3924     1
   3905   3910     1
   3905   3915     1
   3906   3922     1
   3906   3914     1
   3906   3921     1
   3907   3909     1
   3907   3915     1
   3908   3912     1
   3908   3909     1
   3908   3911     1
   3908   3920     1
   3908   3910     1
   3908   3915     1
   3909   3923     1
   3909   3922     1
   3909   3925     1
   3909   3914     1
   3910   3925     1
   3910   3921     1
   3912   3922     1
   3913   3922     1
   3916   3920     1
   3916   3919     1
   3917   3920     1
   3917   3919     1
   3920   3922     1
   3920   3921     1
   3922   3924     1
   3926   3933     1
   3926   3948     1
   3926   3943     1
   3926   3934     1
   3927   3940     1
   3927   3941     1
   3927   3932     1
   3927   3938     1
   3928   3929     1
   3928   3947     1
   3928   3946     1
   3928   3942     1
   3928   3940     1
   3928   3941     1
   3928   3931     1
   3929   3948     1
   3929   3934     1
   3929   3939     1
   3930   3946     1
   3930   3938     1
   3930   3945     1
   3931   3933     1
   3931   3939     1
   3932   3936     1
   3932   3933     1
   3932   3935     1
   3932   3944     1
   3932   3934     1
   3932   3939     1
   3933   3947     1
   3933   3946     1
   3933   3949     1
   3933   3938     1
   3934   3949     1
   3934   3945     1
   3936   3946     1
   3937   3946     1
   3940   3944     1
   3940   3943     1
   3941   3944     1
   3941   3943     1
   3944   3946     1
   3944   3945     1
   3946   3948     1
   3950   3956     1
   3950   3957     1
   3951   3954     1
   3951   3953     1
   3951   3955     1
   3953   3958     1
   3953   3956     1
   3953   3957     1
   3954   3968     1
   3954   3969     1
   3954   3961     1
   3954   3963     1
   3955   3958     1
   3955   3956     1
   3955   3957     1
   3956   3959     1
   3956   3960     1
   3957   3959     1
   3957   3960     1
   3958   3971     1
   3958   3972     1
   3958   3964     1
   3958   3965     1
   3959   3961     1
   3959   3963     1
   3960   3968     1
   3960   3969     1
   3961   3966     1
   3961   3964     1
   3961   3965     1
   3962   3988     1
   3963   3966     1
   3963   3964     1
   3963   3965     1
   3964   3967     1
   3964   3998     1
   3965   3967     1
   3965   3998     1
   3966   3981     1
   3967   3988     1
   3968   3973     1
   3968   3971     1
   3968   3972     1
   3969   3973     1
   3969   3971     1
   3969   3972     1
   3970   4012     1
   3971   3974     1
   3971   4022     1
   3972   3974     1
   3972   4022     1
   3973   4005     1
   3974   4012     1
   3975   3982     1
   3975   3997     1
   3975   3992     1
   3975   3983     1
   3976   3981     1
   3976   3987     1
   3976   3989     1
   3976   3990     1
   3977   3978     1
   3977   3996     1
   3977   3995     1
   3977   3991     1
   3977   3989     1
   3977   3990     1
   3977   3980     1
   3978   3983     1
   3978   3988     1
   3978   3997     1
   3979   3994     1
   3979   3987     1
   3979   3995     1
   3980   3988     1
   3980   3982     1
   3981   3984     1
   3981   3993     1
   3981   3983     1
   3981   3988     1
   3981   3985     1
   3981   3982     1
   3982   3998     1
   3982   3987     1
   3982   3996     1
   3982   3995     1
   3983   3994     1
   3983   3998     1
   3985   3995     1
   3986   3995     1
   3989   3992     1
   3989   3993     1
   3990   3992     1
   3990   3993     1
   3993   3994     1
   3993   3995     1
   3995   3997     1
   3999   4006     1
   3999   4021     1
   3999   4016     1
   3999   4007     1
   4000   4005     1
   4000   4011     1
   4000   4013     1
   4000   4014     1
   4001   4002     1
   4001   4020     1
   4001   4019     1
   4001   4015     1
   4001   4013     1
   4001   4014     1
   4001   4004     1
   4002   4007     1
   4002   4012     1
   4002   4021     1
   4003   4018     1
   4003   4011     1
   4003   4019     1
   4004   4012     1
   4004   4006     1
   4005   4008     1
   4005   4017     1
   4005   4007     1
   4005   4012     1
   4005   4009     1
   4005   4006     1
   4006   4022     1
   4006   4011     1
   4006   4020     1
   4006   4019     1
   4007   4018     1
   4007   4022     1
   4009   4019     1
   4010   4019     1
   4013   4016     1
   4013   4017     1
   4014   4016     1
   4014   4017     1
   4017   4018     1
   4017   4019     1
   4019   4021     1
   4023   4029     1
   4023   4030     1
   4024   4027     1
   4024   4026     1
   4024   4028     1
   4026   4031     1
   4026   4029     1
   4026   4030     1
   4027   4041     1
   4027   4042     1
   4027   4034     1
   4027   4036     1
   4028   4031     1
   4028   4029     1
   4028   4030     1
   4029   4032     1
   4029   4033     1
   4030   4032     1
   4030   4033     1
   4031   4044     1
   4031   4045     1
   4031   4037     1
   4031   4038     1
   4032   4034     1
   4032   4036     1
   4033   4041     1
   4033   4042     1
   4034   4039     1
   4034   4037     1
   4034   4038     1
   4035   4061     1
   4036   4039     1
   4036   4037     1
   4036   4038     1
   4037   4040     1
   4037   4071     1
   4038   4040     1
   4038   4071     1
   4039   4054     1
   4040   4061     1
   4041   4046     1
   4041   4044     1
   4041   4045     1
   4042   4046     1
   4042   4044     1
   4042   4045     1
   4043   4085     1
   4044   4047     1
   4044   4095     1
   4045   4047     1
   4045   4095     1
   4046   4078     1
   4047   4085     1
   4048   4055     1
   4048   4070     1
   4048   4065     1
   4048   4056     1
   4049   4062     1
   4049   4063     1
   4049   4054     1
   4049   4060     1
   4050   4051     1
   4050   4069     1
   4050   4068     1
   4050   4064     1
   4050   4062     1
   4050   4063     1
   4050   4053     1
   4051   4070     1
   4051   4056     1
   4051   4061     1
   4052   4068     1
   4052   4060     1
   4052   4067     1
   4053   4055     1
   4053   4061     1
   4054   4058     1
   4054   4055     1
   4054   4057     1
   4054   4066     1
   4054   4056     1
   4054   4061     1
   4055   4069     1
   4055   4068     1
   4055   4071     1
   4055   4060     1
   4056   4071     1
   4056   4067     1
   4058   4068     1
   4059   4068     1
   4062   4066     1
   4062   4065     1
   4063   4066     1
   4063   4065     1
   4066   4068     1
   4066   4067     1
   4068   4070     1
   4072   4079     1
   4072   4094     1
   4072   4089     1
   4072   4080     1
   4073   4086     1
   4073   4087     1
   4073   4078     1
   4073   4084     1
   4074   4075     1
   4074   4093     1
   4074   4092     1
   4074   4088     1
   4074   4086     1
   4074   4087     1
   4074   4077     1
   4075   4094     1
   4075   4080     1
   4075   4085     1
   4076   4092     1
   4076   4084     1
   4076   4091     1
   4077   4079     1
   4077   4085     1
   4078   4082     1
   4078   4079     1
   4078   4081     1
   4078   4090     1
   4078   4080     1
   4078   4085     1
   4079   4093     1
   4079   4092     1
   4079   4095     1
   4079   4084     1
   4080   4095     1
   4080   4091     1
   4082   4092     1
   4083   4092     1
   4086   4090     1
   4086   4089     1
   4087   4090     1
   4087   4089     1
   4090   4092     1
   4090   4091     1
   4092   4094     1
   4096   4102     1
   4096   4103     1
   4097   4100     1
   4097   4099     1
   4097   4101     1
   4099   4104     1
   4099   4102     1
   4099   4103     1
   4100   4114     1
   4100   4115     1
   4100   4107     1
   4100   4109     1
   4101   4104     1
   4101   4102     1
   4101   4103     1
   4102   4105     1
   4102   4106     1
   4103   4105     1
   4103   4106     1
   4104   4117     1
   4104   4118     1
   4104   4110     1
   4104   4111     1
   4105   4107     1
   4105   4109     1
   4106   4114     1
   4106   4115     1
   4107   4112     1
   4107   4110     1
   4107   4111     1
   4108   4134     1
   4109   4112     1
   4109   4110     1
   4109   4111     1
   4110   4113     1
   4110   4144     1
   4111   4113     1
   4111   4144     1
   4112   4127     1
   4113   4134     1
   4114   4119     1
   4114   4117     1
   4114   4118     1
   4115   4119     1
   4115   4117     1
   4115   4118     1
   4116   4158     1
   4117   4120     1
   4117   4168     1
   4118   4120     1
   4118   4168     1
   4119   4151     1
   4120   4158     1
   4121   4128     1
   4121   4143     1
   4121   4138     1
   4121   4129     1
   4122   4127     1
   4122   4133     1
   4122   4135     1
   4122   4136     1
   4123   4124     1
   4123   4142     1
   4123   4141     1
   4123   4137     1
   4123   4135     1
   4123   4136     1
   4123   4126     1
   4124   4129     1
   4124   4134     1
   4124   4143     1
   4125   4140     1
   4125   4133     1
   4125   4141     1
   4126   4134     1
   4126   4128     1
   4127   4130     1
   4127   4139     1
   4127   4129     1
   4127   4134     1
   4127   4131     1
   4127   4128     1
   4128   4144     1
   4128   4133     1
   4128   4142     1
   4128   4141     1
   4129   4140     1
   4129   4144     1
   4131   4141     1
   4132   4141     1
   4135   4138     1
   4135   4139     1
   4136   4138     1
   4136   4139     1
   4139   4140     1
   4139   4141     1
   4141   4143     1
   4145   4152     1
   4145   4167     1
   4145   4162     1
   4145   4153     1
   4146   4151     1
   4146   4157     1
   4146   4159     1
   4146   4160     1
   4147   4148     1
   4147   4166     1
   4147   4165     1
   4147   4161     1
   4147   4159     1
   4147   4160     1
   4147   4150     1
   4148   4153     1
   4148   4158     1
   4148   4167     1
   4149   4164     1
   4149   4157     1
   4149   4165     1
   4150   4158     1
   4150   4152     1
   4151   4154     1
   4151   4163     1
   4151   4153     1
   4151   4158     1
   4151   4155     1
   4151   4152     1
   4152   4168     1
   4152   4157     1
   4152   4166     1
   4152   4165     1
   4153   4164     1
   4153   4168     1
   4155   4165     1
   4156   4165     1
   4159   4162     1
   4159   4163     1
   4160   4162     1
   4160   4163     1
   4163   4164     1
   4163   4165     1
   4165   4167     1
   4169   4175     1
   4169   4176     1
   4170   4173     1
   4170   4172     1
   4170   4174     1
   4172   4177     1
   4172   4175     1
   4172   4176     1
   4173   4187     1
   4173   4188     1
   4173   4180     1
   4173   4182     1
   4174   4177     1
   4174   4175     1
   4174   4176     1
   4175   4178     1
   4175   4179     1
   4176   4178     1
   4176   4179     1
   4177   4190     1
   4177   4191     1
   4177   4183     1
   4177   4184     1
   4178   4180     1
   4178   4182     1
   4179   4187     1
   4179   4188     1
   4180   4185     1
   4180   4183     1
   4180   4184     1
   4181   4207     1
   4182   4185     1
   4182   4183     1
   4182   4184     1
   4183   4186     1
   4183   4217     1
   4184   4186     1
   4184   4217     1
   4185   4200     1
   4186   4207     1
   4187   4192     1
   4187   4190     1
   4187   4191     1
   4188   4192     1
   4188   4190     1
   4188   4191     1
   4189   4231     1
   4190   4193     1
   4190   4241     1
   4191   4193     1
   4191   4241     1
   4192   4224     1
   4193   4231     1
   4194   4201     1
   4194   4216     1
   4194   4211     1
   4194   4202     1
   4195   4208     1
   4195   4209     1
   4195   4200     1
   4195   4206     1
   4196   4197     1
   4196   4215     1
   4196   4214     1
   4196   4210     1
   4196   4208     1
   4196   4209     1
   4196   4199     1
   4197   4216     1
   4197   4202     1
   4197   4207     1
   4198   4214     1
   4198   4206     1
   4198   4213     1
   4199   4201     1
   4199   4207     1
   4200   4204     1
   4200   4201     1
   4200   4203     1
   4200   4212     1
   4200   4202     1
   4200   4207     1
   4201   4215     1
   4201   4214     1
   4201   4217     1
   4201   4206     1
   4202   4217     1
   4202   4213     1
   4204   4214     1
   4205   4214     1
   4208   4212     1
   4208   4211     1
   4209   4212     1
   4209   4211     1
   4212   4214     1
   4212   4213     1
   4214   4216     1
   4218   4225     1
   4218   4240     1
   4218   4235     1
   4218   4226     1
   4219   4232     1
   4219   4233     1
   4219   4224     1
   4219   4230     1
   4220   4221     1
   4220   4239     1
   4220   4238     1
   4220   4234     1
   4220   4232     1
   4220   4233     1
   4220   4223     1
   4221   4240     1
   4221   4226     1
   4221   4231     1
   4222   4238     1
   4222   4230     1
   4222   4237     1
   4223   4225     1
   4223   4231     1
   4224   4228     1
   4224   4225     1
   4224   4227     1
   4224   4236     1
   4224   4226     1
   4224   4231     1
   4225   4239     1
   4225   4238     1
   4225   4241     1
   4225   4230     1
   4226   4241     1
   4226   4237     1
   4228   4238     1
   4229   4238     1
   4232   4236     1
   4232   4235     1
   4233   4236     1
   4233   4235     1
   4236   4238     1
   4236   4237     1
   4238   4240     1
   4242   4248     1
   4242   4249     1
   4243   4246     1
   4243   4245     1
   4243   4247     1
   4245   4250     1
   4245   4248     1
   4245   4249     1
   4246   4260     1
   4246   4261     1
   4246   4253     1
   4246   4255     1
   4247   4250     1
   4247   4248     1
   4247   4249     1
   4248   4251     1
   4248   4252     1
   4249   4251     1
   4249   4252     1
   4250   4263     1
   4250   4264     1
   4250   4256     1
   4250   4257     1
   4251   4253     1
   4251   4255     1
   4252   4260     1
   4252   4261     1
   4253   4258     1
   4253   4256     1
   4253   4257     1
   4254   4280     1
   4255   4258     1
   4255   4256     1
   4255   4257     1
   4256   4259     1
   4256   4290     1
   4257   4259     1
   4257   4290     1
   4258   4273     1
   4259   4280     1
   4260   4265     1
   4260   4263     1
   4260   4264     1
   4261   4265     1
   4261   4263     1
   4261   4264     1
   4262   4304     1
   4263   4266     1
   4263   4314     1
   4264   4266     1
   4264   4314     1
   4265   4297     1
   4266   4304     1
   4267   4274     1
   4267   4289     1
   4267   4284     1
   4267   4275     1
   4268   4273     1
   4268   4279     1
   4268   4281     1
   4268   4282     1
   4269   4270     1
   4269   4288     1
   4269   4287     1
   4269   4283     1
   4269   4281     1
   4269   4282     1
   4269   4272     1
   4270   4275     1
   4270   4280     1
   4270   4289     1
   4271   4286     1
   4271   4279     1
   4271   4287     1
   4272   4280     1
   4272   4274     1
   4273   4276     1
   4273   4285     1
   4273   4275     1
   4273   4280     1
   4273   4277     1
   4273   4274     1
   4274   4290     1
   4274   4279     1
   4274   4288     1
   4274   4287     1
   4275   4286     1
   4275   4290     1
   4277   4287     1
   4278   4287     1
   4281   4284     1
   4281   4285     1
   4282   4284     1
   4282   4285     1
   4285   4286     1
   4285   4287     1
   4287   4289     1
   4291   4298     1
   4291   4313     1
   4291   4308     1
   4291   4299     1
   4292   4297     1
   4292   4303     1
   4292   4305     1
   4292   4306     1
   4293   4294     1
   4293   4312     1
   4293   4311     1
   4293   4307     1
   4293   4305     1
   4293   4306     1
   4293   4296     1
   4294   4299     1
   4294   4304     1
   4294   4313     1
   4295   4310     1
   4295   4303     1
   4295   4311     1
   4296   4304     1
   4296   4298     1
   4297   4300     1
   4297   4309     1
   4297   4299     1
   4297   4304     1
   4297   4301     1
   4297   4298     1
   4298   4314     1
   4298   4303     1
   4298   4312     1
   4298   4311     1
   4299   4310     1
   4299   4314     1
   4301   4311     1
   4302   4311     1
   4305   4308     1
   4305   4309     1
   4306   4308     1
   4306   4309     1
   4309   4310     1
   4309   4311     1
   4311   4313     1
   4315   4321     1
   4315   4322     1
   4316   4319     1
   4316   4318     1
   4316   4320     1
   4318   4323     1
   4318   4321     1
   4318   4322     1
   4319   4333     1
   4319   4334     1
   4319   4326     1
   4319   4328     1
   4320   4323     1
   4320   4321     1
   4320   4322     1
   4321   4324     1
   4321   4325     1
   4322   4324     1
   4322   4325     1
   4323   4336     1
   4323   4337     1
   4323   4329     1
   4323   4330     1
   4324   4326     1
   4324   4328     1
   4325   4333     1
   4325   4334     1
   4326   4331     1
   4326   4329     1
   4326   4330     1
   4327   4353     1
   4328   4331     1
   4328   4329     1
   4328   4330     1
   4329   4332     1
   4329   4363     1
   4330   4332     1
   4330   4363     1
   4331   4346     1
   4332   4353     1
   4333   4338     1
   4333   4336     1
   4333   4337     1
   4334   4338     1
   4334   4336     1
   4334   4337     1
   4335   4377     1
   4336   4339     1
   4336   4387     1
   4337   4339     1
   4337   4387     1
   4338   4370     1
   4339   4377     1
   4340   4347     1
   4340   4362     1
   4340   4357     1
   4340   4348     1
   4341   4354     1
   4341   4355     1
   4341   4346     1
   4341   4352     1
   4342   4343     1
   4342   4361     1
   4342   4360     1
   4342   4356     1
   4342   4354     1
   4342   4355     1
   4342   4345     1
   4343   4362     1
   4343   4348     1
   4343   4353     1
   4344   4360     1
   4344   4352     1
   4344   4359     1
   4345   4347     1
   4345   4353     1
   4346   4350     1
   4346   4347     1
   4346   4349     1
   4346   4358     1
   4346   4348     1
   4346   4353     1
   4347   4361     1
   4347   4360     1
   4347   4363     1
   4347   4352     1
   4348   4363     1
   4348   4359     1
   4350   4360     1
   4351   4360     1
   4354   4358     1
   4354   4357     1
   4355   4358     1
   4355   4357     1
   4358   4360     1
   4358   4359     1
   4360   4362     1
   4364   4371     1
   4364   4386     1
   4364   4381     1
   4364   4372     1
   4365   4378     1
   4365   4379     1
   4365   4370     1
   4365   4376     1
   4366   4367     1
   4366   4385     1
   4366   4384     1
   4366   4380     1
   4366   4378     1
   4366   4379     1
   4366   4369     1
   4367   4386     1
   4367   4372     1
   4367   4377     1
   4368   4384     1
   4368   4376     1
   4368   4383     1
   4369   4371     1
   4369   4377     1
   4370   4374     1
   4370   4371     1
   4370   4373     1
   4370   4382     1
   4370   4372     1
   4370   4377     1
   4371   4385     1
   4371   4384     1
   4371   4387     1
   4371   4376     1
   4372   4387     1
   4372   4383     1
   4374   4384     1
   4375   4384     1
   4378   4382     1
   4378   4381     1
   4379   4382     1
   4379   4381     1
   4382   4384     1
   4382   4383     1
   4384   4386     1
   4388   4394     1
   4388   4395     1
   4389   4392     1
   4389   4391     1
   4389   4393     1
   4391   4396     1
   4391   4394     1
   4391   4395     1
   4392   4406     1
   4392   4407     1
   4392   4399     1
   4392   4401     1
   4393   4396     1
   4393   4394     1
   4393   4395     1
   4394   4397     1
   4394   4398     1
   4395   4397     1
   4395   4398     1
   4396   4409     1
   4396   4410     1
   4396   4402     1
   4396   4403     1
   4397   4399     1
   4397   4401     1
   4398   4406     1
   4398   4407     1
   4399   4404     1
   4399   4402     1
   4399   4403     1
   4400   4426     1
   4401   4404     1
   4401   4402     1
   4401   4403     1
   4402   4405     1
   4402   4436     1
   4403   4405     1
   4403   4436     1
   4404   4419     1
   4405   4426     1
   4406   4411     1
   4406   4409     1
   4406   4410     1
   4407   4411     1
   4407   4409     1
   4407   4410     1
   4408   4450     1
   4409   4412     1
   4409   4460     1
   4410   4412     1
   4410   4460     1
   4411   4443     1
   4412   4450     1
   4413   4420     1
   4413   4435     1
   4413   4430     1
   4413   4421     1
   4414   4419     1
   4414   4425     1
   4414   4427     1
   4414   4428     1
   4415   4416     1
   4415   4434     1
   4415   4433     1
   4415   4429     1
   4415   4427     1
   4415   4428     1
   4415   4418     1
   4416   4421     1
   4416   4426     1
   4416   4435     1
   4417   4432     1
   4417   4425     1
   4417   4433     1
   4418   4426     1
   4418   4420     1
   4419   4422     1
   4419   4431     1
   4419   4421     1
   4419   4426     1
   4419   4423     1
   4419   4420     1
   4420   4436     1
   4420   4425     1
   4420   4434     1
   4420   4433     1
   4421   4432     1
   4421   4436     1
   4423   4433     1
   4424   4433     1
   4427   4430     1
   4427   4431     1
   4428   4430     1
   4428   4431     1
   4431   4432     1
   4431   4433     1
   4433   4435     1
   4437   4444     1
   4437   4459     1
   4437   4454     1
   4437   4445     1
   4438   4443     1
   4438   4449     1
   4438   4451     1
   4438   4452     1
   4439   4440     1
   4439   4458     1
   4439   4457     1
   4439   4453     1
   4439   4451     1
   4439   4452     1
   4439   4442     1
   4440   4445     1
   4440   4450     1
   4440   4459     1
   4441   4456     1
   4441   4449     1
   4441   4457     1
   4442   4450     1
   4442   4444     1
   4443   4446     1
   4443   4455     1
   4443   4445     1
   4443   4450     1
   4443   4447     1
   4443   4444     1
   4444   4460     1
   4444   4449     1
   4444   4458     1
   4444   4457     1
   4445   4456     1
   4445   4460     1
   4447   4457     1
   4448   4457     1
   4451   4454     1
   4451   4455     1
   4452   4454     1
   4452   4455     1
   4455   4456     1
   4455   4457     1
   4457   4459     1
   4461   4467     1
   4461   4468     1
   4462   4465     1
   4462   4464     1
   4462   4466     1
   4464   4469     1
   4464   4467     1
   4464   4468     1
   4465   4479     1
   4465   4480     1
   4465   4472     1
   4465   4474     1
   4466   4469     1
   4466   4467     1
   4466   4468     1
   4467   4470     1
   4467   4471     1
   4468   4470     1
   4468   4471     1
   4469   4482     1
   4469   4483     1
   4469   4475     1
   4469   4476     1
   4470   4472     1
   4470   4474     1
   4471   4479     1
   4471   4480     1
   4472   4477     1
   4472   4475     1
   4472   4476     1
   4473   4499     1
   4474   4477     1
   4474   4475     1
   4474   4476     1
   4475   4478     1
   4475   4509     1
   4476   4478     1
   4476   4509     1
   4477   4492     1
   4478   4499     1
   4479   4484     1
   4479   4482     1
   4479   4483     1
   4480   4484     1
   4480   4482     1
   4480   4483     1
   4481   4523     1
   4482   4485     1
   4482   4533     1
   4483   4485     1
   4483   4533     1
   4484   4516     1
   4485   4523     1
   4486   4493     1
   4486   4508     1
   4486   4503     1
   4486   4494     1
   4487   4500     1
   4487   4501     1
   4487   4492     1
   4487   4498     1
   4488   4489     1
   4488   4507     1
   4488   4506     1
   4488   4502     1
   4488   4500     1
   4488   4501     1
   4488   4491     1
   4489   4508     1
   4489   4494     1
   4489   4499     1
   4490   4506     1
   4490   4498     1
   4490   4505     1
   4491   4493     1
   4491   4499     1
   4492   4496     1
   4492   4493     1
   4492   4495     1
   4492   4504     1
   4492   4494     1
   4492   4499     1
   4493   4507     1
   4493   4506     1
   4493   4509     1
   4493   4498     1
   4494   4509     1
   4494   4505     1
   4496   4506     1
   4497   4506     1
   4500   4504     1
   4500   4503     1
   4501   4504     1
   4501   4503     1
   4504   4506     1
   4504   4505     1
   4506   4508     1
   4510   4517     1
   4510   4532     1
   4510   4527     1
   4510   4518     1
   4511   4524     1
   4511   4525     1
   4511   4516     1
   4511   4522     1
   4512   4513     1
   4512   4531     1
   4512   4530     1
   4512   4526     1
   4512   4524     1
   4512   4525     1
   4512   4515     1
   4513   4532     1
   4513   4518     1
   4513   4523     1
   4514   4530     1
   4514   4522     1
   4514   4529     1
   4515   4517     1
   4515   4523     1
   4516   4520     1
   4516   4517     1
   4516   4519     1
   4516   4528     1
   4516   4518     1
   4516   4523     1
   4517   4531     1
   4517   4530     1
   4517   4533     1
   4517   4522     1
   4518   4533     1
   4518   4529     1
   4520   4530     1
   4521   4530     1
   4524   4528     1
   4524   4527     1
   4525   4528     1
   4525   4527     1
   4528   4530     1
   4528   4529     1
   4530   4532     1
   4534   4540     1
   4534   4541     1
   4535   4538     1
   4535   4537     1
   4535   4539     1
   4537   4542     1
   4537   4540     1
   4537   4541     1
   4538   4552     1
   4538   4553     1
   4538   4545     1
   4538   4547     1
   4539   4542     1
   4539   4540     1
   4539   4541     1
   4540   4543     1
   4540   4544     1
   4541   4543     1
   4541   4544     1
   4542   4555     1
   4542   4556     1
   4542   4548     1
   4542   4549     1
   4543   4545     1
   4543   4547     1
   4544   4552     1
   4544   4553     1
   4545   4550     1
   4545   4548     1
   4545   4549     1
   4546   4572     1
   4547   4550     1
   4547   4548     1
   4547   4549     1
   4548   4551     1
   4548   4582     1
   4549   4551     1
   4549   4582     1
   4550   4565     1
   4551   4572     1
   4552   4557     1
   4552   4555     1
   4552   4556     1
   4553   4557     1
   4553   4555     1
   4553   4556     1
   4554   4596     1
   4555   4558     1
   4555   4606     1
   4556   4558     1
   4556   4606     1
   4557   4589     1
   4558   4596     1
   4559   4566     1
   4559   4581     1
   4559   4576     1
   4559   4567     1
   4560   4565     1
   4560   4571     1
   4560   4573     1
   4560   4574     1
   4561   4562     1
   4561   4580     1
   4561   4579     1
   4561   4575     1
   4561   4573     1
   4561   4574     1
   4561   4564     1
   4562   4567     1
   4562   4572     1
   4562   4581     1
   4563   4578     1
   4563   4571     1
   4563   4579     1
   4564   4572     1
   4564   4566     1
   4565   4568     1
   4565   4577     1
   4565   4567     1
   4565   4572     1
   4565   4569     1
   4565   4566     1
   4566   4582     1
   4566   4571     1
   4566   4580     1
   4566   4579     1
   4567   4578     1
   4567   4582     1
   4569   4579     1
   4570   4579     1
   4573   4576     1
   4573   4577     1
   4574   4576     1
   4574   4577     1
   4577   4578     1
   4577   4579     1
   4579   4581     1
   4583   4590     1
   4583   4605     1
   4583   4600     1
   4583   4591     1
   4584   4589     1
   4584   4595     1
   4584   4597     1
   4584   4598     1
   4585   4586     1
   4585   4604     1
   4585   4603     1
   4585   4599     1
   4585   4597     1
   4585   4598     1
   4585   4588     1
   4586   4591     1
   4586   4596     1
   4586   4605     1
   4587   4602     1
   4587   4595     1
   4587   4603     1
   4588   4596     1
   4588   4590     1
   4589   4592     1
   4589   4601     1
   4589   4591     1
   4589   4596     1
   4589   4593     1
   4589   4590     1
   4590   4606     1
   4590   4595     1
   4590   4604     1
   4590   4603     1
   4591   4602     1
   4591   4606     1
   4593   4603     1
   4594   4603     1
   4597   4600     1
   4597   4601     1
   4598   4600     1
   4598   4601     1
   4601   4602     1
   4601   4603     1
   4603   4605     1
   4607   4613     1
   4607   4614     1
   4608   4611     1
   4608   4610     1
   4608   4612     1
   4610   4615     1
   4610   4613     1
   4610   4614     1
   4611   4625     1
   4611   4626     1
   4611   4618     1
   4611   4620     1
   4612   4615     1
   4612   4613     1
   4612   4614     1
   4613   4616     1
   4613   4617     1
   4614   4616     1
   4614   4617     1
   4615   4628     1
   4615   4629     1
   4615   4621     1
   4615   4622     1
   4616   4618     1
   4616   4620     1
   4617   4625     1
   4617   4626     1
   4618   4623     1
   4618   4621     1
   4618   4622     1
   4619   4645     1
   4620   4623     1
   4620   4621     1
   4620   4622     1
   4621   4624     1
   4621   4655     1
   4622   4624     1
   4622   4655     1
   4623   4638     1
   4624   4645     1
   4625   4630     1
   4625   4628     1
   4625   4629     1
   4626   4630     1
   4626   4628     1
   4626   4629     1
   4627   4669     1
   4628   4631     1
   4628   4679     1
   4629   4631     1
   4629   4679     1
   4630   4662     1
   4631   4669     1
   4632   4639     1
   4632   4654     1
   4632   4649     1
   4632   4640     1
   4633   4646     1
   4633   4647     1
   4633   4638     1
   4633   4644     1
   4634   4635     1
   4634   4653     1
   4634   4652     1
   4634   4648     1
   4634   4646     1
   4634   4647     1
   4634   4637     1
   4635   4654     1
   4635   4640     1
   4635   4645     1
   4636   4652     1
   4636   4644     1
   4636   4651     1
   4637   4639     1
   4637   4645     1
   4638   4642     1
   4638   4639     1
   4638   4641     1
   4638   4650     1
   4638   4640     1
   4638   4645     1
   4639   4653     1
   4639   4652     1
   4639   4655     1
   4639   4644     1
   4640   4655     1
   4640   4651     1
   4642   4652     1
   4643   4652     1
   4646   4650     1
   4646   4649     1
   4647   4650     1
   4647   4649     1
   4650   4652     1
   4650   4651     1
   4652   4654     1
   4656   4663     1
   4656   4678     1
   4656   4673     1
   4656   4664     1
   4657   4670     1
   4657   4671     1
   4657   4662     1
   4657   4668     1
   4658   4659     1
   4658   4677     1
   4658   4676     1
   4658   4672     1
   4658   4670     1
   4658   4671     1
   4658   4661     1
   4659   4678     1
   4659   4664     1
   4659   4669     1
   4660   4676     1
   4660   4668     1
   4660   4675     1
   4661   4663     1
   4661   4669     1
   4662   4666     1
   4662   4663     1
   4662   4665     1
   4662   4674     1
   4662   4664     1
   4662   4669     1
   4663   4677     1
   4663   4676     1
   4663   4679     1
   4663   4668     1
   4664   4679     1
   4664   4675     1
   4666   4676     1
   4667   4676     1
   4670   4674     1
   4670   4673     1
   4671   4674     1
   4671   4673     1
   4674   4676     1
   4674   4675     1
   4676   4678     1
   4680   4686     1
   4680   4687     1
   4681   4684     1
   4681   4683     1
   4681   4685     1
   4683   4688     1
   4683   4686     1
   4683   4687     1
   4684   4698     1
   4684   4699     1
   4684   4691     1
   4684   4693     1
   4685   4688     1
   4685   4686     1
   4685   4687     1
   4686   4689     1
   4686   4690     1
   4687   4689     1
   4687   4690     1
   4688   4701     1
   4688   4702     1
   4688   4694     1
   4688   4695     1
   4689   4691     1
   4689   4693     1
   4690   4698     1
   4690   4699     1
   4691   4696     1
   4691   4694     1
   4691   4695     1
   4692   4718     1
   4693   4696     1
   4693   4694     1
   4693   4695     1
   4694   4697     1
   4694   4728     1
   4695   4697     1
   4695   4728     1
   4696   4711     1
   4697   4718     1
   4698   4703     1
   4698   4701     1
   4698   4702     1
   4699   4703     1
   4699   4701     1
   4699   4702     1
   4700   4742     1
   4701   4704     1
   4701   4752     1
   4702   4704     1
   4702   4752     1
   4703   4735     1
   4704   4742     1
   4705   4712     1
   4705   4727     1
   4705   4722     1
   4705   4713     1
   4706   4711     1
   4706   4717     1
   4706   4719     1
   4706   4720     1
   4707   4708     1
   4707   4726     1
   4707   4725     1
   4707   4721     1
   4707   4719     1
   4707   4720     1
   4707   4710     1
   4708   4713     1
   4708   4718     1
   4708   4727     1
   4709   4724     1
   4709   4717     1
   4709   4725     1
   4710   4718     1
   4710   4712     1
   4711   4714     1
   4711   4723     1
   4711   4713     1
   4711   4718     1
   4711   4715     1
   4711   4712     1
   4712   4728     1
   4712   4717     1
   4712   4726     1
   4712   4725     1
   4713   4724     1
   4713   4728     1
   4715   4725     1
   4716   4725     1
   4719   4722     1
   4719   4723     1
   4720   4722     1
   4720   4723     1
   4723   4724     1
   4723   4725     1
   4725   4727     1
   4729   4736     1
   4729   4751     1
   4729   4746     1
   4729   4737     1
   4730   4735     1
   4730   4741     1
   4730   4743     1
   4730   4744     1
   4731   4732     1
   4731   4750     1
   4731   4749     1
   4731   4745     1
   4731   4743     1
   4731   4744     1
   4731   4734     1
   4732   4737     1
   4732   4742     1
   4732   4751     1
   4733   4748     1
   4733   4741     1
   4733   4749     1
   4734   4742     1
   4734   4736     1
   4735   4738     1
   4735   4747     1
   4735   4737     1
   4735   4742     1
   4735   4739     1
   4735   4736     1
   4736   4752     1
   4736   4741     1
   4736   4750     1
   4736   4749     1
   4737   4748     1
   4737   4752     1
   4739   4749     1
   4740   4749     1
   4743   4746     1
   4743   4747     1
   4744   4746     1
   4744   4747     1
   4747   4748     1
   4747   4749     1
   4749   4751     1
   4753   4759     1
   4753   4760     1
   4754   4757     1
   4754   4756     1
   4754   4758     1
   4756   4761     1
   4756   4759     1
   4756   4760     1
   4757   4771     1
   4757   4772     1
   4757   4764     1
   4757   4766     1
   4758   4761     1
   4758   4759     1
   4758   4760     1
   4759   4762     1
   4759   4763     1
   4760   4762     1
   4760   4763     1
   4761   4774     1
   4761   4775     1
   4761   4767     1
   4761   4768     1
   4762   4764     1
   4762   4766     1
   4763   4771     1
   4763   4772     1
   4764   4769     1
   4764   4767     1
   4764   4768     1
   4765   4791     1
   4766   4769     1
   4766   4767     1
   4766   4768     1
   4767   4770     1
   4767   4801     1
   4768   4770     1
   4768   4801     1
   4769   4784     1
   4770   4791     1
   4771   4776     1
   4771   4774     1
   4771   4775     1
   4772   4776     1
   4772   4774     1
   4772   4775     1
   4773   4815     1
   4774   4777     1
   4774   4825     1
   4775   4777     1
   4775   4825     1
   4776   4808     1
   4777   4815     1
   4778   4785     1
   4778   4800     1
   4778   4795     1
   4778   4786     1
   4779   4792     1
   4779   4793     1
   4779   4784     1
   4779   4790     1
   4780   4781     1
   4780   4799     1
   4780   4798     1
   4780   4794     1
   4780   4792     1
   4780   4793     1
   4780   4783     1
   4781   4800     1
   4781   4786     1
   4781   4791     1
   4782   4798     1
   4782   4790     1
   4782   4797     1
   4783   4785     1
   4783   4791     1
   4784   4788     1
   4784   4785     1
   4784   4787     1
   4784   4796     1
   4784   4786     1
   4784   4791     1
   4785   4799     1
   4785   4798     1
   4785   4801     1
   4785   4790     1
   4786   4801     1
   4786   4797     1
   4788   4798     1
   4789   4798     1
   4792   4796     1
   4792   4795     1
   4793   4796     1
   4793   4795     1
   4796   4798     1
   4796   4797     1
   4798   4800     1
   4802   4809     1
   4802   4824     1
   4802   4819     1
   4802   4810     1
   4803   4816     1
   4803   4817     1
   4803   4808     1
   4803   4814     1
   4804   4805     1
   4804   4823     1
   4804   4822     1
   4804   4818     1
   4804   4816     1
   4804   4817     1
   4804   4807     1
   4805   4824     1
   4805   4810     1
   4805   4815     1
   4806   4822     1
   4806   4814     1
   4806   4821     1
   4807   4809     1
   4807   4815     1
   4808   4812     1
   4808   4809     1
   4808   4811     1
   4808   4820     1
   4808   4810     1
   4808   4815     1
   4809   4823     1
   4809   4822     1
   4809   4825     1
   4809   4814     1
   4810   4825     1
   4810   4821     1
   4812   4822     1
   4813   4822     1
   4816   4820     1
   4816   4819     1
   4817   4820     1
   4817   4819     1
   4820   4822     1
   4820   4821     1
   4822   4824     1
   4826   4832     1
   4826   4833     1
   4827   4830     1
   4827   4829     1
   4827   4831     1
   4829   4834     1
   4829   4832     1
   4829   4833     1
   4830   4844     1
   4830   4845     1
   4830   4837     1
   4830   4839     1
   4831   4834     1
   4831   4832     1
   4831   4833     1
   4832   4835     1
   4832   4836     1
   4833   4835     1
   4833   4836     1
   4834   4847     1
   4834   4848     1
   4834   4840     1
   4834   4841     1
   4835   4837     1
   4835   4839     1
   4836   4844     1
   4836   4845     1
   4837   4842     1
   4837   4840     1
   4837   4841     1
   4838   4864     1
   4839   4842     1
   4839   4840     1
   4839   4841     1
   4840   4843     1
   4840   4874     1
   4841   4843     1
   4841   4874     1
   4842   4857     1
   4843   4864     1
   4844   4849     1
   4844   4847     1
   4844   4848     1
   4845   4849     1
   4845   4847     1
   4845   4848     1
   4846   4888     1
   4847   4850     1
   4847   4898     1
   4848   4850     1
   4848   4898     1
   4849   4881     1
   4850   4888     1
   4851   4858     1
   4851   4873     1
   4851   4868     1
   4851   4859     1
   4852   4857     1
   4852   4863     1
   4852   4865     1
   4852   4866     1
   4853   4854     1
   4853   4872     1
   4853   4871     1
   4853   4867     1
   4853   4865     1
   4853   4866     1
   4853   4856     1
   4854   4859     1
   4854   4864     1
   4854   4873     1
   4855   4870     1
   4855   4863     1
   4855   4871     1
   4856   4864     1
   4856   4858     1
   4857   4860     1
   4857   4869     1
   4857   4859     1
   4857   4864     1
   4857   4861     1
   4857   4858     1
   4858   4874     1
   4858   4863     1
   4858   4872     1
   4858   4871     1
   4859   4870     1
   4859   4874     1
   4861   4871     1
   4862   4871     1
   4865   4868     1
   4865   4869     1
   4866   4868     1
   4866   4869     1
   4869   4870     1
   4869   4871     1
   4871   4873     1
   4875   4882     1
   4875   4897     1
   4875   4892     1
   4875   4883     1
   4876   4881     1
   4876   4887     1
   4876   4889     1
   4876   4890     1
   4877   4878     1
   4877   4896     1
   4877   4895     1
   4877   4891     1
   4877   4889     1
   4877   4890     1
   4877   4880     1
   4878   4883     1
   4878   4888     1
   4878   4897     1
   4879   4894     1
   4879   4887     1
   4879   4895     1
   4880   4888     1
   4880   4882     1
   4881   4884     1
   4881   4893     1
   4881   4883     1
   4881   4888     1
   4881   4885     1
   4881   4882     1
   4882   4898     1
   4882   4887     1
   4882   4896     1
   4882   4895     1
   4883   4894     1
   4883   4898     1
   4885   4895     1
   4886   4895     1
   4889   4892     1
   4889   4893     1
   4890   4892     1
   4890   4893     1
   4893   4894     1
   4893   4895     1
   4895   4897     1
   4899   4905     1
   4899   4906     1
   4900   4903     1
   4900   4902     1
   4900   4904     1
   4902   4907     1
   4902   4905     1
   4902   4906     1
   4903   4917     1
   4903   4918     1
   4903   4910     1
   4903   4912     1
   4904   4907     1
   4904   4905     1
   4904   4906     1
   4905   4908     1
   4905   4909     1
   4906   4908     1
   4906   4909     1
   4907   4920     1
   4907   4921     1
   4907   4913     1
   4907   4914     1
   4908   4910     1
   4908   4912     1
   4909   4917     1
   4909   4918     1
   4910   4915     1
   4910   4913     1
   4910   4914     1
   4911   4937     1
   4912   4915     1
   4912   4913     1
   4912   4914     1
   4913   4916     1
   4913   4947     1
   4914   4916     1
   4914   4947     1
   4915   4930     1
   4916   4937     1
   4917   4922     1
   4917   4920     1
   4917   4921     1
   4918   4922     1
   4918   4920     1
   4918   4921     1
   4919   4961     1
   4920   4923     1
   4920   4971     1
   4921   4923     1
   4921   4971     1
   4922   4954     1
   4923   4961     1
   4924   4931     1
   4924   4946     1
   4924   4941     1
   4924   4932     1
   4925   4938     1
   4925   4939     1
   4925   4930     1
   4925   4936     1
   4926   4927     1
   4926   4945     1
   4926   4944     1
   4926   4940     1
   4926   4938     1
   4926   4939     1
   4926   4929     1
   4927   4946     1
   4927   4932     1
   4927   4937     1
   4928   4944     1
   4928   4936     1
   4928   4943     1
   4929   4931     1
   4929   4937     1
   4930   4934     1
   4930   4931     1
   4930   4933     1
   4930   4942     1
   4930   4932     1
   4930   4937     1
   4931   4945     1
   4931   4944     1
   4931   4947     1
   4931   4936     1
   4932   4947     1
   4932   4943     1
   4934   4944     1
   4935   4944     1
   4938   4942     1
   4938   4941     1
   4939   4942     1
   4939   4941     1
   4942   4944     1
   4942   4943     1
   4944   4946     1
   4948   4955     1
   4948   4970     1
   4948   4965     1
   4948   4956     1
   4949   4962     1
   4949   4963     1
   4949   4954     1
   4949   4960     1
   4950   4951     1
   4950   4969     1
   4950   4968     1
   4950   4964     1
   4950   4962     1
   4950   4963     1
   4950   4953     1
   4951   4970     1
   4951   4956     1
   4951   4961     1
   4952   4968     1
   4952   4960     1
   4952   4967     1
   4953   4955     1
   4953   4961     1
   4954   4958     1
   4954   4955     1
   4954   4957     1
   4954   4966     1
   4954   4956     1
   4954   4961     1
   4955   4969     1
   4955   4968     1
   4955   4971     1
   4955   4960     1
   4956   4971     1
   4956   4967     1
   4958   4968     1
   4959   4968     1
   4962   4966     1
   4962   4965     1
   4963   4966     1
   4963   4965     1
   4966   4968     1
   4966   4967     1
   4968   4970     1
   4972   4978     1
   4972   4979     1
   4973   4976     1
   4973   4975     1
   4973   4977     1
   4975   4980     1
   4975   4978     1
   4975   4979     1
   4976   4990     1
   4976   4991     1
   4976   4983     1
   4976   4985     1
   4977   4980     1
   4977   4978     1
   4977   4979     1
   4978   4981     1
   4978   4982     1
   4979   4981     1
   4979   4982     1
   4980   4993     1
   4980   4994     1
   4980   4986     1
   4980   4987     1
   4981   4983     1
   4981   4985     1
   4982   4990     1
   4982   4991     1
   4983   4988     1
   4983   4986     1
   4983   4987     1
   4984   5010     1
   4985   4988     1
   4985   4986     1
   4985   4987     1
   4986   4989     1
   4986   5020     1
   4987   4989     1
   4987   5020     1
   4988   5003     1
   4989   5010     1
   4990   4995     1
   4990   4993     1
   4990   4994     1
   4991   4995     1
   4991   4993     1
   4991   4994     1
   4992   5034     1
   4993   4996     1
   4993   5044     1
   4994   4996     1
   4994   5044     1
   4995   5027     1
   4996   5034     1
   4997   5004     1
   4997   5019     1
   4997   5014     1
   4997   5005     1
   4998   5003     1
   4998   5009     1
   4998   5011     1
   4998   5012     1
   4999   5000     1
   4999   5018     1
   4999   5017     1
   4999   5013     1
   4999   5011     1
   4999   5012     1
   4999   5002     1
   5000   5005     1
   5000   5010     1
   5000   5019     1
   5001   5016     1
   5001   5009     1
   5001   5017     1
   5002   5010     1
   5002   5004     1
   5003   5006     1
   5003   5015     1
   5003   5005     1
   5003   5010     1
   5003   5007     1
   5003   5004     1
   5004   5020     1
   5004   5009     1
   5004   5018     1
   5004   5017     1
   5005   5016     1
   5005   5020     1
   5007   5017     1
   5008   5017     1
   5011   5014     1
   5011   5015     1
   5012   5014     1
   5012   5015     1
   5015   5016     1
   5015   5017     1
   5017   5019     1
   5021   5028     1
   5021   5043     1
   5021   5038     1
   5021   5029     1
   5022   5027     1
   5022   5033     1
   5022   5035     1
   5022   5036     1
   5023   5024     1
   5023   5042     1
   5023   5041     1
   5023   5037     1
   5023   5035     1
   5023   5036     1
   5023   5026     1
   5024   5029     1
   5024   5034     1
   5024   5043     1
   5025   5040     1
   5025   5033     1
   5025   5041     1
   5026   5034     1
   5026   5028     1
   5027   5030     1
   5027   5039     1
   5027   5029     1
   5027   5034     1
   5027   5031     1
   5027   5028     1
   5028   5044     1
   5028   5033     1
   5028   5042     1
   5028   5041     1
   5029   5040     1
   5029   5044     1
   5031   5041     1
   5032   5041     1
   5035   5038     1
   5035   5039     1
   5036   5038     1
   5036   5039     1
   5039   5040     1
   5039   5041     1
   5041   5043     1
   5045   5051     1
   5045   5052     1
   5046   5049     1
   5046   5048     1
   5046   5050     1
   5048   5053     1
   5048   5051     1
   5048   5052     1
   5049   5063     1
   5049   5064     1
   5049   5056     1
   5049   5058     1
   5050   5053     1
   5050   5051     1
   5050   5052     1
   5051   5054     1
   5051   5055     1
   5052   5054     1
   5052   5055     1
   5053   5066     1
   5053   5067     1
   5053   5059     1
   5053   5060     1
   5054   5056     1
   5054   5058     1
   5055   5063     1
   5055   5064     1
   5056   5061     1
   5056   5059     1
   5056   5060     1
   5057   5083     1
   5058   5061     1
   5058   5059     1
   5058   5060     1
   5059   5062     1
   5059   5093     1
   5060   5062     1
   5060   5093     1
   5061   5076     1
   5062   5083     1
   5063   5068     1
   5063   5066     1
   5063   5067     1
   5064   5068     1
   5064   5066     1
   5064   5067     1
   5065   5107     1
   5066   5069     1
   5066   5117     1
   5067   5069     1
   5067   5117     1
   5068   5100     1
   5069   5107     1
   5070   5077     1
   5070   5092     1
   5070   5087     1
   5070   5078     1
   5071   5084     1
   5071   5085     1
   5071   5076     1
   5071   5082     1
   5072   5073     1
   5072   5091     1
   5072   5090     1
   5072   5086     1
   5072   5084     1
   5072   5085     1
   5072   5075     1
   5073   5092     1
   5073   5078     1
   5073   5083     1
   5074   5090     1
   5074   5082     1
   5074   5089     1
   5075   5077     1
   5075   5083     1
   5076   5080     1
   5076   5077     1
   5076   5079     1
   5076   5088     1
   5076   5078     1
   5076   5083     1
   5077   5091     1
   5077   5090     1
   5077   5093     1
   5077   5082     1
   5078   5093     1
   5078   5089     1
   5080   5090     1
   5081   5090     1
   5084   5088     1
   5084   5087     1
   5085   5088     1
   5085   5087     1
   5088   5090     1
   5088   5089     1
   5090   5092     1
   5094   5101     1
   5094   5116     1
   5094   5111     1
   5094   5102     1
   5095   5108     1
   5095   5109     1
   5095   5100     1
   5095   5106     1
   5096   5097     1
   5096   5115     1
   5096   5114     1
   5096   5110     1
   5096   5108     1
   5096   5109     1
   5096   5099     1
   5097   5116     1
   5097   5102     1
   5097   5107     1
   5098   5114     1
   5098   5106     1
   5098   5113     1
   5099   5101     1
   5099   5107     1
   5100   5104     1
   5100   5101     1
   5100   5103     1
   5100   5112     1
   5100   5102     1
   5100   5107     1
   5101   5115     1
   5101   5114     1
   5101   5117     1
   5101   5106     1
   5102   5117     1
   5102   5113     1
   5104   5114     1
   5105   5114     1
   5108   5112     1
   5108   5111     1
   5109   5112     1
   5109   5111     1
   5112   5114     1
   5112   5113     1
   5114   5116     1
   5118   5124     1
   5118   5125     1
   5119   5122     1
   5119   5121     1
   5119   5123     1
   5121   5126     1
   5121   5124     1
   5121   5125     1
   5122   5136     1
   5122   5137     1
   5122   5129     1
   5122   5131     1
   5123   5126     1
   5123   5124     1
   5123   5125     1
   5124   5127     1
   5124   5128     1
   5125   5127     1
   5125   5128     1
   5126   5139     1
   5126   5140     1
   5126   5132     1
   5126   5133     1
   5127   5129     1
   5127   5131     1
   5128   5136     1
   5128   5137     1
   5129   5134     1
   5129   5132     1
   5129   5133     1
   5130   5156     1
   5131   5134     1
   5131   5132     1
   5131   5133     1
   5132   5135     1
   5132   5166     1
   5133   5135     1
   5133   5166     1
   5134   5149     1
   5135   5156     1
   5136   5141     1
   5136   5139     1
   5136   5140     1
   5137   5141     1
   5137   5139     1
   5137   5140     1
   5138   5180     1
   5139   5142     1
   5139   5190     1
   5140   5142     1
   5140   5190     1
   5141   5173     1
   5142   5180     1
   5143   5150     1
   5143   5165     1
   5143   5160     1
   5143   5151     1
   5144   5149     1
   5144   5155     1
   5144   5157     1
   5144   5158     1
   5145   5146     1
   5145   5164     1
   5145   5163     1
   5145   5159     1
   5145   5157     1
   5145   5158     1
   5145   5148     1
   5146   5151     1
   5146   5156     1
   5146   5165     1
   5147   5162     1
   5147   5155     1
   5147   5163     1
   5148   5156     1
   5148   5150     1
   5149   5152     1
   5149   5161     1
   5149   5151     1
   5149   5156     1
   5149   5153     1
   5149   5150     1
   5150   5166     1
   5150   5155     1
   5150   5164     1
   5150   5163     1
   5151   5162     1
   5151   5166     1
   5153   5163     1
   5154   5163     1
   5157   5160     1
   5157   5161     1
   5158   5160     1
   5158   5161     1
   5161   5162     1
   5161   5163     1
   5163   5165     1
   5167   5174     1
   5167   5189     1
   5167   5184     1
   5167   5175     1
   5168   5173     1
   5168   5179     1
   5168   5181     1
   5168   5182     1
   5169   5170     1
   5169   5188     1
   5169   5187     1
   5169   5183     1
   5169   5181     1
   5169   5182     1
   5169   5172     1
   5170   5175     1
   5170   5180     1
   5170   5189     1
   5171   5186     1
   5171   5179     1
   5171   5187     1
   5172   5180     1
   5172   5174     1
   5173   5176     1
   5173   5185     1
   5173   5175     1
   5173   5180     1
   5173   5177     1
   5173   5174     1
   5174   5190     1
   5174   5179     1
   5174   5188     1
   5174   5187     1
   5175   5186     1
   5175   5190     1
   5177   5187     1
   5178   5187     1
   5181   5184     1
   5181   5185     1
   5182   5184     1
   5182   5185     1
   5185   5186     1
   5185   5187     1
   5187   5189     1
   5191   5197     1
   5191   5198     1
   5192   5195     1
   5192   5194     1
   5192   5196     1
   5194   5199     1
   5194   5197     1
   5194   5198     1
   5195   5209     1
   5195   5210     1
   5195   5202     1
   5195   5204     1
   5196   5199     1
   5196   5197     1
   5196   5198     1
   5197   5200     1
   5197   5201     1
   5198   5200     1
   5198   5201     1
   5199   5212     1
   5199   5213     1
   5199   5205     1
   5199   5206     1
   5200   5202     1
   5200   5204     1
   5201   5209     1
   5201   5210     1
   5202   5207     1
   5202   5205     1
   5202   5206     1
   5203   5229     1
   5204   5207     1
   5204   5205     1
   5204   5206     1
   5205   5208     1
   5205   5239     1
   5206   5208     1
   5206   5239     1
   5207   5222     1
   5208   5229     1
   5209   5214     1
   5209   5212     1
   5209   5213     1
   5210   5214     1
   5210   5212     1
   5210   5213     1
   5211   5253     1
   5212   5215     1
   5212   5263     1
   5213   5215     1
   5213   5263     1
   5214   5246     1
   5215   5253     1
   5216   5223     1
   5216   5238     1
   5216   5233     1
   5216   5224     1
   5217   5230     1
   5217   5231     1
   5217   5222     1
   5217   5228     1
   5218   5219     1
   5218   5237     1
   5218   5236     1
   5218   5232     1
   5218   5230     1
   5218   5231     1
   5218   5221     1
   5219   5238     1
   5219   5224     1
   5219   5229     1
   5220   5236     1
   5220   5228     1
   5220   5235     1
   5221   5223     1
   5221   5229     1
   5222   5226     1
   5222   5223     1
   5222   5225     1
   5222   5234     1
   5222   5224     1
   5222   5229     1
   5223   5237     1
   5223   5236     1
   5223   5239     1
   5223   5228     1
   5224   5239     1
   5224   5235     1
   5226   5236     1
   5227   5236     1
   5230   5234     1
   5230   5233     1
   5231   5234     1
   5231   5233     1
   5234   5236     1
   5234   5235     1
   5236   5238     1
   5240   5247     1
   5240   5262     1
   5240   5257     1
   5240   5248     1
   5241   5254     1
   5241   5255     1
   5241   5246     1
   5241   5252     1
   5242   5243     1
   5242   5261     1
   5242   5260     1
   5242   5256     1
   5242   5254     1
   5242   5255     1
   5242   5245     1
   5243   5262     1
   5243   5248     1
   5243   5253     1
   5244   5260     1
   5244   5252     1
   5244   5259     1
   5245   5247     1
   5245   5253     1
   5246   5250     1
   5246   5247     1
   5246   5249     1
   5246   5258     1
   5246   5248     1
   5246   5253     1
   5247   5261     1
   5247   5260     1
   5247   5263     1
   5247   5252     1
   5248   5263     1
   5248   5259     1
   5250   5260     1
   5251   5260     1
   5254   5258     1
   5254   5257     1
   5255   5258     1
   5255   5257     1
   5258   5260     1
   5258   5259     1
   5260   5262     1
   5264   5270     1
   5264   5271     1
   5265   5268     1
   5265   5267     1
   5265   5269     1
   5267   5272     1
   5267   5270     1
   5267   5271     1
   5268   5282     1
   5268   5283     1
   5268   5275     1
   5268   5277     1
   5269   5272     1
   5269   5270     1
   5269   5271     1
   5270   5273     1
   5270   5274     1
   5271   5273     1
   5271   5274     1
   5272   5285     1
   5272   5286     1
   5272   5278     1
   5272   5279     1
   5273   5275     1
   5273   5277     1
   5274   5282     1
   5274   5283     1
   5275   5280     1
   5275   5278     1
   5275   5279     1
   5276   5302     1
   5277   5280     1
   5277   5278     1
   5277   5279     1
   5278   5281     1
   5278   5312     1
   5279   5281     1
   5279   5312     1
   5280   5295     1
   5281   5302     1
   5282   5287     1
   5282   5285     1
   5282   5286     1
   5283   5287     1
   5283   5285     1
   5283   5286     1
   5284   5326     1
   5285   5288     1
   5285   5336     1
   5286   5288     1
   5286   5336     1
   5287   5319     1
   5288   5326     1
   5289   5296     1
   5289   5311     1
   5289   5306     1
   5289   5297     1
   5290   5295     1
   5290   5301     1
   5290   5303     1
   5290   5304     1
   5291   5292     1
   5291   5310     1
   5291   5309     1
   5291   5305     1
   5291   5303     1
   5291   5304     1
   5291   5294     1
   5292   5297     1
   5292   5302     1
   5292   5311     1
   5293   5308     1
   5293   5301     1
   5293   5309     1
   5294   5302     1
   5294   5296     1
   5295   5298     1
   5295   5307     1
   5295   5297     1
   5295   5302     1
   5295   5299     1
   5295   5296     1
   5296   5312     1
   5296   5301     1
   5296   5310     1
   5296   5309     1
   5297   5308     1
   5297   5312     1
   5299   5309     1
   5300   5309     1
   5303   5306     1
   5303   5307     1
   5304   5306     1
   5304   5307     1
   5307   5308     1
   5307   5309     1
   5309   5311     1
   5313   5320     1
   5313   5335     1
   5313   5330     1
   5313   5321     1
   5314   5319     1
   5314   5325     1
   5314   5327     1
   5314   5328     1
   5315   5316     1
   5315   5334     1
   5315   5333     1
   5315   5329     1
   5315   5327     1
   5315   5328     1
   5315   5318     1
   5316   5321     1
   5316   5326     1
   5316   5335     1
   5317   5332     1
   5317   5325     1
   5317   5333     1
   5318   5326     1
   5318   5320     1
   5319   5322     1
   5319   5331     1
   5319   5321     1
   5319   5326     1
   5319   5323     1
   5319   5320     1
   5320   5336     1
   5320   5325     1
   5320   5334     1
   5320   5333     1
   5321   5332     1
   5321   5336     1
   5323   5333     1
   5324   5333     1
   5327   5330     1
   5327   5331     1
   5328   5330     1
   5328   5331     1
   5331   5332     1
   5331   5333     1
   5333   5335     1
   5337   5343     1
   5337   5344     1
   5338   5341     1
   5338   5340     1
   5338   5342     1
   5340   5345     1
   5340   5343     1
   5340   5344     1
   5341   5355     1
   5341   5356     1
   5341   5348     1
   5341   5350     1
   5342   5345     1
   5342   5343     1
   5342   5344     1
   5343   5346     1
   5343   5347     1
   5344   5346     1
   5344   5347     1
   5345   5358     1
   5345   5359     1
   5345   5351     1
   5345   5352     1
   5346   5348     1
   5346   5350     1
   5347   5355     1
   5347   5356     1
   5348   5353     1
   5348   5351     1
   5348   5352     1
   5349   5375     1
   5350   5353     1
   5350   5351     1
   5350   5352     1
   5351   5354     1
   5351   5385     1
   5352   5354     1
   5352   5385     1
   5353   5368     1
   5354   5375     1
   5355   5360     1
   5355   5358     1
   5355   5359     1
   5356   5360     1
   5356   5358     1
   5356   5359     1
   5357   5399     1
   5358   5361     1
   5358   5409     1
   5359   5361     1
   5359   5409     1
   5360   5392     1
   5361   5399     1
   5362   5369     1
   5362   5384     1
   5362   5379     1
   5362   5370     1
   5363   5376     1
   5363   5377     1
   5363   5368     1
   5363   5374     1
   5364   5365     1
   5364   5383     1
   5364   5382     1
   5364   5378     1
   5364   5376     1
   5364   5377     1
   5364   5367     1
   5365   5384     1
   5365   5370     1
   5365   5375     1
   5366   5382     1
   5366   5374     1
   5366   5381     1
   5367   5369     1
   5367   5375     1
   5368   5372     1
   5368   5369     1
   5368   5371     1
   5368   5380     1
   5368   5370     1
   5368   5375     1
   5369   5383     1
   5369   5382     1
   5369   5385     1
   5369   5374     1
   5370   5385     1
   5370   5381     1
   5372   5382     1
   5373   5382     1
   5376   5380     1
   5376   5379     1
   5377   5380     1
   5377   5379     1
   5380   5382     1
   5380   5381     1
   5382   5384     1
   5386   5393     1
   5386   5408     1
   5386   5403     1
   5386   5394     1
   5387   5400     1
   5387   5401     1
   5387   5392     1
   5387   5398     1
   5388   5389     1
   5388   5407     1
   5388   5406     1
   5388   5402     1
   5388   5400     1
   5388   5401     1
   5388   5391     1
   5389   5408     1
   5389   5394     1
   5389   5399     1
   5390   5406     1
   5390   5398     1
   5390   5405     1
   5391   5393     1
   5391   5399     1
   5392   5396     1
   5392   5393     1
   5392   5395     1
   5392   5404     1
   5392   5394     1
   5392   5399     1
   5393   5407     1
   5393   5406     1
   5393   5409     1
   5393   5398     1
   5394   5409     1
   5394   5405     1
   5396   5406     1
   5397   5406     1
   5400   5404     1
   5400   5403     1
   5401   5404     1
   5401   5403     1
   5404   5406     1
   5404   5405     1
   5406   5408     1
   5410   5416     1
   5410   5417     1
   5411   5414     1
   5411   5413     1
   5411   5415     1
   5413   5418     1
   5413   5416     1
   5413   5417     1
   5414   5428     1
   5414   5429     1
   5414   5421     1
   5414   5423     1
   5415   5418     1
   5415   5416     1
   5415   5417     1
   5416   5419     1
   5416   5420     1
   5417   5419     1
   5417   5420     1
   5418   5431     1
   5418   5432     1
   5418   5424     1
   5418   5425     1
   5419   5421     1
   5419   5423     1
   5420   5428     1
   5420   5429     1
   5421   5426     1
   5421   5424     1
   5421   5425     1
   5422   5448     1
   5423   5426     1
   5423   5424     1
   5423   5425     1
   5424   5427     1
   5424   5458     1
   5425   5427     1
   5425   5458     1
   5426   5441     1
   5427   5448     1
   5428   5433     1
   5428   5431     1
   5428   5432     1
   5429   5433     1
   5429   5431     1
   5429   5432     1
   5430   5472     1
   5431   5434     1
   5431   5482     1
   5432   5434     1
   5432   5482     1
   5433   5465     1
   5434   5472     1
   5435   5442     1
   5435   5457     1
   5435   5452     1
   5435   5443     1
   5436   5441     1
   5436   5447     1
   5436   5449     1
   5436   5450     1
   5437   5438     1
   5437   5456     1
   5437   5455     1
   5437   5451     1
   5437   5449     1
   5437   5450     1
   5437   5440     1
   5438   5443     1
   5438   5448     1
   5438   5457     1
   5439   5454     1
   5439   5447     1
   5439   5455     1
   5440   5448     1
   5440   5442     1
   5441   5444     1
   5441   5453     1
   5441   5443     1
   5441   5448     1
   5441   5445     1
   5441   5442     1
   5442   5458     1
   5442   5447     1
   5442   5456     1
   5442   5455     1
   5443   5454     1
   5443   5458     1
   5445   5455     1
   5446   5455     1
   5449   5452     1
   5449   5453     1
   5450   5452     1
   5450   5453     1
   5453   5454     1
   5453   5455     1
   5455   5457     1
   5459   5466     1
   5459   5481     1
   5459   5476     1
   5459   5467     1
   5460   5465     1
   5460   5471     1
   5460   5473     1
   5460   5474     1
   5461   5462     1
   5461   5480     1
   5461   5479     1
   5461   5475     1
   5461   5473     1
   5461   5474     1
   5461   5464     1
   5462   5467     1
   5462   5472     1
   5462   5481     1
   5463   5478     1
   5463   5471     1
   5463   5479     1
   5464   5472     1
   5464   5466     1
   5465   5468     1
   5465   5477     1
   5465   5467     1
   5465   5472     1
   5465   5469     1
   5465   5466     1
   5466   5482     1
   5466   5471     1
   5466   5480     1
   5466   5479     1
   5467   5478     1
   5467   5482     1
   5469   5479     1
   5470   5479     1
   5473   5476     1
   5473   5477     1
   5474   5476     1
   5474   5477     1
   5477   5478     1
   5477   5479     1
   5479   5481     1
   5483   5489     1
   5483   5490     1
   5484   5487     1
   5484   5486     1
   5484   5488     1
   5486   5491     1
   5486   5489     1
   5486   5490     1
   5487   5501     1
   5487   5502     1
   5487   5494     1
   5487   5496     1
   5488   5491     1
   5488   5489     1
   5488   5490     1
   5489   5492     1
   5489   5493     1
   5490   5492     1
   5490   5493     1
   5491   5504     1
   5491   5505     1
   5491   5497     1
   5491   5498     1
   5492   5494     1
   5492   5496     1
   5493   5501     1
   5493   5502     1
   5494   5499     1
   5494   5497     1
   5494   5498     1
   5495   5521     1
   5496   5499     1
   5496   5497     1
   5496   5498     1
   5497   5500     1
   5497   5531     1
   5498   5500     1
   5498   5531     1
   5499   5514     1
   5500   5521     1
   5501   5506     1
   5501   5504     1
   5501   5505     1
   5502   5506     1
   5502   5504     1
   5502   5505     1
   5503   5545     1
   5504   5507     1
   5504   5555     1
   5505   5507     1
   5505   5555     1
   5506   5538     1
   5507   5545     1
   5508   5515     1
   5508   5530     1
   5508   5525     1
   5508   5516     1
   5509   5522     1
   5509   5523     1
   5509   5514     1
   5509   5520     1
   5510   5511     1
   5510   5529     1
   5510   5528     1
   5510   5524     1
   5510   5522     1
   5510   5523     1
   5510   5513     1
   5511   5530     1
   5511   5516     1
   5511   5521     1
   5512   5528     1
   5512   5520     1
   5512   5527     1
   5513   5515     1
   5513   5521     1
   5514   5518     1
   5514   5515     1
   5514   5517     1
   5514   5526     1
   5514   5516     1
   5514   5521     1
   5515   5529     1
   5515   5528     1
   5515   5531     1
   5515   5520     1
   5516   5531     1
   5516   5527     1
   5518   5528     1
   5519   5528     1
   5522   5526     1
   5522   5525     1
   5523   5526     1
   5523   5525     1
   5526   5528     1
   5526   5527     1
   5528   5530     1
   5532   5539     1
   5532   5554     1
   5532   5549     1
   5532   5540     1
   5533   5546     1
   5533   5547     1
   5533   5538     1
   5533   5544     1
   5534   5535     1
   5534   5553     1
   5534   5552     1
   5534   5548     1
   5534   5546     1
   5534   5547     1
   5534   5537     1
   5535   5554     1
   5535   5540     1
   5535   5545     1
   5536   5552     1
   5536   5544     1
   5536   5551     1
   5537   5539     1
   5537   5545     1
   5538   5542     1
   5538   5539     1
   5538   5541     1
   5538   5550     1
   5538   5540     1
   5538   5545     1
   5539   5553     1
   5539   5552     1
   5539   5555     1
   5539   5544     1
   5540   5555     1
   5540   5551     1
   5542   5552     1
   5543   5552     1
   5546   5550     1
   5546   5549     1
   5547   5550     1
   5547   5549     1
   5550   5552     1
   5550   5551     1
   5552   5554     1
   5556   5562     1
   5556   5563     1
   5557   5560     1
   5557   5559     1
   5557   5561     1
   5559   5564     1
   5559   5562     1
   5559   5563     1
   5560   5574     1
   5560   5575     1
   5560   5567     1
   5560   5569     1
   5561   5564     1
   5561   5562     1
   5561   5563     1
   5562   5565     1
   5562   5566     1
   5563   5565     1
   5563   5566     1
   5564   5577     1
   5564   5578     1
   5564   5570     1
   5564   5571     1
   5565   5567     1
   5565   5569     1
   5566   5574     1
   5566   5575     1
   5567   5572     1
   5567   5570     1
   5567   5571     1
   5568   5594     1
   5569   5572     1
   5569   5570     1
   5569   5571     1
   5570   5573     1
   5570   5604     1
   5571   5573     1
   5571   5604     1
   5572   5587     1
   5573   5594     1
   5574   5579     1
   5574   5577     1
   5574   5578     1
   5575   5579     1
   5575   5577     1
   5575   5578     1
   5576   5618     1
   5577   5580     1
   5577   5628     1
   5578   5580     1
   5578   5628     1
   5579   5611     1
   5580   5618     1
   5581   5588     1
   5581   5603     1
   5581   5598     1
   5581   5589     1
   5582   5587     1
   5582   5593     1
   5582   5595     1
   5582   5596     1
   5583   5584     1
   5583   5602     1
   5583   5601     1
   5583   5597     1
   5583   5595     1
   5583   5596     1
   5583   5586     1
   5584   5589     1
   5584   5594     1
   5584   5603     1
   5585   5600     1
   5585   5593     1
   5585   5601     1
   5586   5594     1
   5586   5588     1
   5587   5590     1
   5587   5599     1
   5587   5589     1
   5587   5594     1
   5587   5591     1
   5587   5588     1
   5588   5604     1
   5588   5593     1
   5588   5602     1
   5588   5601     1
   5589   5600     1
   5589   5604     1
   5591   5601     1
   5592   5601     1
   5595   5598     1
   5595   5599     1
   5596   5598     1
   5596   5599     1
   5599   5600     1
   5599   5601     1
   5601   5603     1
   5605   5612     1
   5605   5627     1
   5605   5622     1
   5605   5613     1
   5606   5611     1
   5606   5617     1
   5606   5619     1
   5606   5620     1
   5607   5608     1
   5607   5626     1
   5607   5625     1
   5607   5621     1
   5607   5619     1
   5607   5620     1
   5607   5610     1
   5608   5613     1
   5608   5618     1
   5608   5627     1
   5609   5624     1
   5609   5617     1
   5609   5625     1
   5610   5618     1
   5610   5612     1
   5611   5614     1
   5611   5623     1
   5611   5613     1
   5611   5618     1
   5611   5615     1
   5611   5612     1
   5612   5628     1
   5612   5617     1
   5612   5626     1
   5612   5625     1
   5613   5624     1
   5613   5628     1
   5615   5625     1
   5616   5625     1
   5619   5622     1
   5619   5623     1
   5620   5622     1
   5620   5623     1
   5623   5624     1
   5623   5625     1
   5625   5627     1
   5629   5635     1
   5629   5636     1
   5630   5633     1
   5630   5632     1
   5630   5634     1
   5632   5637     1
   5632   5635     1
   5632   5636     1
   5633   5647     1
   5633   5648     1
   5633   5640     1
   5633   5642     1
   5634   5637     1
   5634   5635     1
   5634   5636     1
   5635   5638     1
   5635   5639     1
   5636   5638     1
   5636   5639     1
   5637   5650     1
   5637   5651     1
   5637   5643     1
   5637   5644     1
   5638   5640     1
   5638   5642     1
   5639   5647     1
   5639   5648     1
   5640   5645     1
   5640   5643     1
   5640   5644     1
   5641   5667     1
   5642   5645     1
   5642   5643     1
   5642   5644     1
   5643   5646     1
   5643   5677     1
   5644   5646     1
   5644   5677     1
   5645   5660     1
   5646   5667     1
   5647   5652     1
   5647   5650     1
   5647   5651     1
   5648   5652     1
   5648   5650     1
   5648   5651     1
   5649   5691     1
   5650   5653     1
   5650   5701     1
   5651   5653     1
   5651   5701     1
   5652   5684     1
   5653   5691     1
   5654   5661     1
   5654   5676     1
   5654   5671     1
   5654   5662     1
   5655   5668     1
   5655   5669     1
   5655   5660     1
   5655   5666     1
   5656   5657     1
   5656   5675     1
   5656   5674     1
   5656   5670     1
   5656   5668     1
   5656   5669     1
   5656   5659     1
   5657   5676     1
   5657   5662     1
   5657   5667     1
   5658   5674     1
   5658   5666     1
   5658   5673     1
   5659   5661     1
   5659   5667     1
   5660   5664     1
   5660   5661     1
   5660   5663     1
   5660   5672     1
   5660   5662     1
   5660   5667     1
   5661   5675     1
   5661   5674     1
   5661   5677     1
   5661   5666     1
   5662   5677     1
   5662   5673     1
   5664   5674     1
   5665   5674     1
   5668   5672     1
   5668   5671     1
   5669   5672     1
   5669   5671     1
   5672   5674     1
   5672   5673     1
   5674   5676     1
   5678   5685     1
   5678   5700     1
   5678   5695     1
   5678   5686     1
   5679   5692     1
   5679   5693     1
   5679   5684     1
   5679   5690     1
   5680   5681     1
   5680   5699     1
   5680   5698     1
   5680   5694     1
   5680   5692     1
   5680   5693     1
   5680   5683     1
   5681   5700     1
   5681   5686     1
   5681   5691     1
   5682   5698     1
   5682   5690     1
   5682   5697     1
   5683   5685     1
   5683   5691     1
   5684   5688     1
   5684   5685     1
   5684   5687     1
   5684   5696     1
   5684   5686     1
   5684   5691     1
   5685   5699     1
   5685   5698     1
   5685   5701     1
   5685   5690     1
   5686   5701     1
   5686   5697     1
   5688   5698     1
   5689   5698     1
   5692   5696     1
   5692   5695     1
   5693   5696     1
   5693   5695     1
   5696   5698     1
   5696   5697     1
   5698   5700     1
   5702   5708     1
   5702   5709     1
   5703   5706     1
   5703   5705     1
   5703   5707     1
   5705   5710     1
   5705   5708     1
   5705   5709     1
   5706   5720     1
   5706   5721     1
   5706   5713     1
   5706   5715     1
   5707   5710     1
   5707   5708     1
   5707   5709     1
   5708   5711     1
   5708   5712     1
   5709   5711     1
   5709   5712     1
   5710   5723     1
   5710   5724     1
   5710   5716     1
   5710   5717     1
   5711   5713     1
   5711   5715     1
   5712   5720     1
   5712   5721     1
   5713   5718     1
   5713   5716     1
   5713   5717     1
   5714   5740     1
   5715   5718     1
   5715   5716     1
   5715   5717     1
   5716   5719     1
   5716   5750     1
   5717   5719     1
   5717   5750     1
   5718   5733     1
   5719   5740     1
   5720   5725     1
   5720   5723     1
   5720   5724     1
   5721   5725     1
   5721   5723     1
   5721   5724     1
   5722   5764     1
   5723   5726     1
   5723   5774     1
   5724   5726     1
   5724   5774     1
   5725   5757     1
   5726   5764     1
   5727   5734     1
   5727   5749     1
   5727   5744     1
   5727   5735     1
   5728   5733     1
   5728   5739     1
   5728   5741     1
   5728   5742     1
   5729   5730     1
   5729   5748     1
   5729   5747     1
   5729   5743     1
   5729   5741     1
   5729   5742     1
   5729   5732     1
   5730   5735     1
   5730   5740     1
   5730   5749     1
   5731   5746     1
   5731   5739     1
   5731   5747     1
   5732   5740     1
   5732   5734     1
   5733   5736     1
   5733   5745     1
   5733   5735     1
   5733   5740     1
   5733   5737     1
   5733   5734     1
   5734   5750     1
   5734   5739     1
   5734   5748     1
   5734   5747     1
   5735   5746     1
   5735   5750     1
   5737   5747     1
   5738   5747     1
   5741   5744     1
   5741   5745     1
   5742   5744     1
   5742   5745     1
   5745   5746     1
   5745   5747     1
   5747   5749     1
   5751   5758     1
   5751   5773     1
   5751   5768     1
   5751   5759     1
   5752   5757     1
   5752   5763     1
   5752   5765     1
   5752   5766     1
   5753   5754     1
   5753   5772     1
   5753   5771     1
   5753   5767     1
   5753   5765     1
   5753   5766     1
   5753   5756     1
   5754   5759     1
   5754   5764     1
   5754   5773     1
   5755   5770     1
   5755   5763     1
   5755   5771     1
   5756   5764     1
   5756   5758     1
   5757   5760     1
   5757   5769     1
   5757   5759     1
   5757   5764     1
   5757   5761     1
   5757   5758     1
   5758   5774     1
   5758   5763     1
   5758   5772     1
   5758   5771     1
   5759   5770     1
   5759   5774     1
   5761   5771     1
   5762   5771     1
   5765   5768     1
   5765   5769     1
   5766   5768     1
   5766   5769     1
   5769   5770     1
   5769   5771     1
   5771   5773     1
   5775   5781     1
   5775   5782     1
   5776   5779     1
   5776   5778     1
   5776   5780     1
   5778   5783     1
   5778   5781     1
   5778   5782     1
   5779   5793     1
   5779   5794     1
   5779   5786     1
   5779   5788     1
   5780   5783     1
   5780   5781     1
   5780   5782     1
   5781   5784     1
   5781   5785     1
   5782   5784     1
   5782   5785     1
   5783   5796     1
   5783   5797     1
   5783   5789     1
   5783   5790     1
   5784   5786     1
   5784   5788     1
   5785   5793     1
   5785   5794     1
   5786   5791     1
   5786   5789     1
   5786   5790     1
   5787   5813     1
   5788   5791     1
   5788   5789     1
   5788   5790     1
   5789   5792     1
   5789   5823     1
   5790   5792     1
   5790   5823     1
   5791   5806     1
   5792   5813     1
   5793   5798     1
   5793   5796     1
   5793   5797     1
   5794   5798     1
   5794   5796     1
   5794   5797     1
   5795   5837     1
   5796   5799     1
   5796   5847     1
   5797   5799     1
   5797   5847     1
   5798   5830     1
   5799   5837     1
   5800   5807     1
   5800   5822     1
   5800   5817     1
   5800   5808     1
   5801   5814     1
   5801   5815     1
   5801   5806     1
   5801   5812     1
   5802   5803     1
   5802   5821     1
   5802   5820     1
   5802   5816     1
   5802   5814     1
   5802   5815     1
   5802   5805     1
   5803   5822     1
   5803   5808     1
   5803   5813     1
   5804   5820     1
   5804   5812     1
   5804   5819     1
   5805   5807     1
   5805   5813     1
   5806   5810     1
   5806   5807     1
   5806   5809     1
   5806   5818     1
   5806   5808     1
   5806   5813     1
   5807   5821     1
   5807   5820     1
   5807   5823     1
   5807   5812     1
   5808   5823     1
   5808   5819     1
   5810   5820     1
   5811   5820     1
   5814   5818     1
   5814   5817     1
   5815   5818     1
   5815   5817     1
   5818   5820     1
   5818   5819     1
   5820   5822     1
   5824   5831     1
   5824   5846     1
   5824   5841     1
   5824   5832     1
   5825   5838     1
   5825   5839     1
   5825   5830     1
   5825   5836     1
   5826   5827     1
   5826   5845     1
   5826   5844     1
   5826   5840     1
   5826   5838     1
   5826   5839     1
   5826   5829     1
   5827   5846     1
   5827   5832     1
   5827   5837     1
   5828   5844     1
   5828   5836     1
   5828   5843     1
   5829   5831     1
   5829   5837     1
   5830   5834     1
   5830   5831     1
   5830   5833     1
   5830   5842     1
   5830   5832     1
   5830   5837     1
   5831   5845     1
   5831   5844     1
   5831   5847     1
   5831   5836     1
   5832   5847     1
   5832   5843     1
   5834   5844     1
   5835   5844     1
   5838   5842     1
   5838   5841     1
   5839   5842     1
   5839   5841     1
   5842   5844     1
   5842   5843     1
   5844   5846     1
   5848   5854     1
   5848   5855     1
   5849   5852     1
   5849   5851     1
   5849   5853     1
   5851   5856     1
   5851   5854     1
   5851   5855     1
   5852   5866     1
   5852   5867     1
   5852   5859     1
   5852   5861     1
   5853   5856     1
   5853   5854     1
   5853   5855     1
   5854   5857     1
   5854   5858     1
   5855   5857     1
   5855   5858     1
   5856   5869     1
   5856   5870     1
   5856   5862     1
   5856   5863     1
   5857   5859     1
   5857   5861     1
   5858   5866     1
   5858   5867     1
   5859   5864     1
   5859   5862     1
   5859   5863     1
   5860   5886     1
   5861   5864     1
   5861   5862     1
   5861   5863     1
   5862   5865     1
   5862   5896     1
   5863   5865     1
   5863   5896     1
   5864   5879     1
   5865   5886     1
   5866   5871     1
   5866   5869     1
   5866   5870     1
   5867   5871     1
   5867   5869     1
   5867   5870     1
   5868   5910     1
   5869   5872     1
   5869   5920     1
   5870   5872     1
   5870   5920     1
   5871   5903     1
   5872   5910     1
   5873   5880     1
   5873   5895     1
   5873   5890     1
   5873   5881     1
   5874   5879     1
   5874   5885     1
   5874   5887     1
   5874   5888     1
   5875   5876     1
   5875   5894     1
   5875   5893     1
   5875   5889     1
   5875   5887     1
   5875   5888     1
   5875   5878     1
   5876   5881     1
   5876   5886     1
   5876   5895     1
   5877   5892     1
   5877   5885     1
   5877   5893     1
   5878   5886     1
   5878   5880     1
   5879   5882     1
   5879   5891     1
   5879   5881     1
   5879   5886     1
   5879   5883     1
   5879   5880     1
   5880   5896     1
   5880   5885     1
   5880   5894     1
   5880   5893     1
   5881   5892     1
   5881   5896     1
   5883   5893     1
   5884   5893     1
   5887   5890     1
   5887   5891     1
   5888   5890     1
   5888   5891     1
   5891   5892     1
   5891   5893     1
   5893   5895     1
   5897   5904     1
   5897   5919     1
   5897   5914     1
   5897   5905     1
   5898   5903     1
   5898   5909     1
   5898   5911     1
   5898   5912     1
   5899   5900     1
   5899   5918     1
   5899   5917     1
   5899   5913     1
   5899   5911     1
   5899   5912     1
   5899   5902     1
   5900   5905     1
   5900   5910     1
   5900   5919     1
   5901   5916     1
   5901   5909     1
   5901   5917     1
   5902   5910     1
   5902   5904     1
   5903   5906     1
   5903   5915     1
   5903   5905     1
   5903   5910     1
   5903   5907     1
   5903   5904     1
   5904   5920     1
   5904   5909     1
   5904   5918     1
   5904   5917     1
   5905   5916     1
   5905   5920     1
   5907   5917     1
   5908   5917     1
   5911   5914     1
   5911   5915     1
   5912   5914     1
   5912   5915     1
   5915   5916     1
   5915   5917     1
   5917   5919     1
   5921   5927     1
   5921   5928     1
   5922   5925     1
   5922   5924     1
   5922   5926     1
   5924   5929     1
   5924   5927     1
   5924   5928     1
   5925   5939     1
   5925   5940     1
   5925   5932     1
   5925   5934     1
   5926   5929     1
   5926   5927     1
   5926   5928     1
   5927   5930     1
   5927   5931     1
   5928   5930     1
   5928   5931     1
   5929   5942     1
   5929   5943     1
   5929   5935     1
   5929   5936     1
   5930   5932     1
   5930   5934     1
   5931   5939     1
   5931   5940     1
   5932   5937     1
   5932   5935     1
   5932   5936     1
   5933   5959     1
   5934   5937     1
   5934   5935     1
   5934   5936     1
   5935   5938     1
   5935   5969     1
   5936   5938     1
   5936   5969     1
   5937   5952     1
   5938   5959     1
   5939   5944     1
   5939   5942     1
   5939   5943     1
   5940   5944     1
   5940   5942     1
   5940   5943     1
   5941   5983     1
   5942   5945     1
   5942   5993     1
   5943   5945     1
   5943   5993     1
   5944   5976     1
   5945   5983     1
   5946   5953     1
   5946   5968     1
   5946   5963     1
   5946   5954     1
   5947   5960     1
   5947   5961     1
   5947   5952     1
   5947   5958     1
   5948   5949     1
   5948   5967     1
   5948   5966     1
   5948   5962     1
   5948   5960     1
   5948   5961     1
   5948   5951     1
   5949   5968     1
   5949   5954     1
   5949   5959     1
   5950   5966     1
   5950   5958     1
   5950   5965     1
   5951   5953     1
   5951   5959     1
   5952   5956     1
   5952   5953     1
   5952   5955     1
   5952   5964     1
   5952   5954     1
   5952   5959     1
   5953   5967     1
   5953   5966     1
   5953   5969     1
   5953   5958     1
   5954   5969     1
   5954   5965     1
   5956   5966     1
   5957   5966     1
   5960   5964     1
   5960   5963     1
   5961   5964     1
   5961   5963     1
   5964   5966     1
   5964   5965     1
   5966   5968     1
   5970   5977     1
   5970   5992     1
   5970   5987     1
   5970   5978     1
   5971   5984     1
   5971   5985     1
   5971   5976     1
   5971   5982     1
   5972   5973     1
   5972   5991     1
   5972   5990     1
   5972   5986     1
   5972   5984     1
   5972   5985     1
   5972   5975     1
   5973   5992     1
   5973   5978     1
   5973   5983     1
   5974   5990     1
   5974   5982     1
   5974   5989     1
   5975   5977     1
   5975   5983     1
   5976   5980     1
   5976   5977     1
   5976   5979     1
   5976   5988     1
   5976   5978     1
   5976   5983     1
   5977   5991     1
   5977   5990     1
   5977   5993     1
   5977   5982     1
   5978   5993     1
   5978   5989     1
   5980   5990     1
   5981   5990     1
   5984   5988     1
   5984   5987     1
   5985   5988     1
   5985   5987     1
   5988   5990     1
   5988   5989     1
   5990   5992     1
   5994   6000     1
   5994   6001     1
   5995   5998     1
   5995   5997     1
   5995   5999     1
   5997   6002     1
   5997   6000     1
   5997   6001     1
   5998   6012     1
   5998   6013     1
   5998   6005     1
   5998   6007     1
   5999   6002     1
   5999   6000     1
   5999   6001     1
   6000   6003     1
   6000   6004     1
   6001   6003     1
   6001   6004     1
   6002   6015     1
   6002   6016     1
   6002   6008     1
   6002   6009     1
   6003   6005     1
   6003   6007     1
   6004   6012     1
   6004   6013     1
   6005   6010     1
   6005   6008     1
   6005   6009     1
   6006   6032     1
   6007   6010     1
   6007   6008     1
   6007   6009     1
   6008   6011     1
   6008   6042     1
   6009   6011     1
   6009   6042     1
   6010   6025     1
   6011   6032     1
   6012   6017     1
   6012   6015     1
   6012   6016     1
   6013   6017     1
   6013   6015     1
   6013   6016     1
   6014   6056     1
   6015   6018     1
   6015   6066     1
   6016   6018     1
   6016   6066     1
   6017   6049     1
   6018   6056     1
   6019   6026     1
   6019   6041     1
   6019   6036     1
   6019   6027     1
   6020   6025     1
   6020   6031     1
   6020   6033     1
   6020   6034     1
   6021   6022     1
   6021   6040     1
   6021   6039     1
   6021   6035     1
   6021   6033     1
   6021   6034     1
   6021   6024     1
   6022   6027     1
   6022   6032     1
   6022   6041     1
   6023   6038     1
   6023   6031     1
   6023   6039     1
   6024   6032     1
   6024   6026     1
   6025   6028     1
   6025   6037     1
   6025   6027     1
   6025   6032     1
   6025   6029     1
   6025   6026     1
   6026   6042     1
   6026   6031     1
   6026   6040     1
   6026   6039     1
   6027   6038     1
   6027   6042     1
   6029   6039     1
   6030   6039     1
   6033   6036     1
   6033   6037     1
   6034   6036     1
   6034   6037     1
   6037   6038     1
   6037   6039     1
   6039   6041     1
   6043   6050     1
   6043   6065     1
   6043   6060     1
   6043   6051     1
   6044   6049     1
   6044   6055     1
   6044   6057     1
   6044   6058     1
   6045   6046     1
   6045   6064     1
   6045   6063     1
   6045   6059     1
   6045   6057     1
   6045   6058     1
   6045   6048     1
   6046   6051     1
   6046   6056     1
   6046   6065     1
   6047   6062     1
   6047   6055     1
   6047   6063     1
   6048   6056     1
   6048   6050     1
   6049   6052     1
   6049   6061     1
   6049   6051     1
   6049   6056     1
   6049   6053     1
   6049   6050     1
   6050   6066     1
   6050   6055     1
   6050   6064     1
   6050   6063     1
   6051   6062     1
   6051   6066     1
   6053   6063     1
   6054   6063     1
   6057   6060     1
   6057   6061     1
   6058   6060     1
   6058   6061     1
   6061   6062     1
   6061   6063     1
   6063   6065     1
   6067   6073     1
   6067   6074     1
   6068   6071     1
   6068   6070     1
   6068   6072     1
   6070   6075     1
   6070   6073     1
   6070   6074     1
   6071   6085     1
   6071   6086     1
   6071   6078     1
   6071   6080     1
   6072   6075     1
   6072   6073     1
   6072   6074     1
   6073   6076     1
   6073   6077     1
   6074   6076     1
   6074   6077     1
   6075   6088     1
   6075   6089     1
   6075   6081     1
   6075   6082     1
   6076   6078     1
   6076   6080     1
   6077   6085     1
   6077   6086     1
   6078   6083     1
   6078   6081     1
   6078   6082     1
   6079   6105     1
   6080   6083     1
   6080   6081     1
   6080   6082     1
   6081   6084     1
   6081   6115     1
   6082   6084     1
   6082   6115     1
   6083   6098     1
   6084   6105     1
   6085   6090     1
   6085   6088     1
   6085   6089     1
   6086   6090     1
   6086   6088     1
   6086   6089     1
   6087   6129     1
   6088   6091     1
   6088   6139     1
   6089   6091     1
   6089   6139     1
   6090   6122     1
   6091   6129     1
   6092   6099     1
   6092   6114     1
   6092   6109     1
   6092   6100     1
   6093   6106     1
   6093   6107     1
   6093   6098     1
   6093   6104     1
   6094   6095     1
   6094   6113     1
   6094   6112     1
   6094   6108     1
   6094   6106     1
   6094   6107     1
   6094   6097     1
   6095   6114     1
   6095   6100     1
   6095   6105     1
   6096   6112     1
   6096   6104     1
   6096   6111     1
   6097   6099     1
   6097   6105     1
   6098   6102     1
   6098   6099     1
   6098   6101     1
   6098   6110     1
   6098   6100     1
   6098   6105     1
   6099   6113     1
   6099   6112     1
   6099   6115     1
   6099   6104     1
   6100   6115     1
   6100   6111     1
   6102   6112     1
   6103   6112     1
   6106   6110     1
   6106   6109     1
   6107   6110     1
   6107   6109     1
   6110   6112     1
   6110   6111     1
   6112   6114     1
   6116   6123     1
   6116   6138     1
   6116   6133     1
   6116   6124     1
   6117   6130     1
   6117   6131     1
   6117   6122     1
   6117   6128     1
   6118   6119     1
   6118   6137     1
   6118   6136     1
   6118   6132     1
   6118   6130     1
   6118   6131     1
   6118   6121     1
   6119   6138     1
   6119   6124     1
   6119   6129     1
   6120   6136     1
   6120   6128     1
   6120   6135     1
   6121   6123     1
   6121   6129     1
   6122   6126     1
   6122   6123     1
   6122   6125     1
   6122   6134     1
   6122   6124     1
   6122   6129     1
   6123   6137     1
   6123   6136     1
   6123   6139     1
   6123   6128     1
   6124   6139     1
   6124   6135     1
   6126   6136     1
   6127   6136     1
   6130   6134     1
   6130   6133     1
   6131   6134     1
   6131   6133     1
   6134   6136     1
   6134   6135     1
   6136   6138     1
   6140   6146     1
   6140   6147     1
   6141   6144     1
   6141   6143     1
   6141   6145     1
   6143   6148     1
   6143   6146     1
   6143   6147     1
   6144   6158     1
   6144   6159     1
   6144   6151     1
   6144   6153     1
   6145   6148     1
   6145   6146     1
   6145   6147     1
   6146   6149     1
   6146   6150     1
   6147   6149     1
   6147   6150     1
   6148   6161     1
   6148   6162     1
   6148   6154     1
   6148   6155     1
   6149   6151     1
   6149   6153     1
   6150   6158     1
   6150   6159     1
   6151   6156     1
   6151   6154     1
   6151   6155     1
   6152   6178     1
   6153   6156     1
   6153   6154     1
   6153   6155     1
   6154   6157     1
   6154   6188     1
   6155   6157     1
   6155   6188     1
   6156   6171     1
   6157   6178     1
   6158   6163     1
   6158   6161     1
   6158   6162     1
   6159   6163     1
   6159   6161     1
   6159   6162     1
   6160   6202     1
   6161   6164     1
   6161   6212     1
   6162   6164     1
   6162   6212     1
   6163   6195     1
   6164   6202     1
   6165   6172     1
   6165   6187     1
   6165   6182     1
   6165   6173     1
   6166   6171     1
   6166   6177     1
   6166   6179     1
   6166   6180     1
   6167   6168     1
   6167   6186     1
   6167   6185     1
   6167   6181     1
   6167   6179     1
   6167   6180     1
   6167   6170     1
   6168   6173     1
   6168   6178     1
   6168   6187     1
   6169   6184     1
   6169   6177     1
   6169   6185     1
   6170   6178     1
   6170   6172     1
   6171   6174     1
   6171   6183     1
   6171   6173     1
   6171   6178     1
   6171   6175     1
   6171   6172     1
   6172   6188     1
   6172   6177     1
   6172   6186     1
   6172   6185     1
   6173   6184     1
   6173   6188     1
   6175   6185     1
   6176   6185     1
   6179   6182     1
   6179   6183     1
   6180   6182     1
   6180   6183     1
   6183   6184     1
   6183   6185     1
   6185   6187     1
   6189   6196     1
   6189   6211     1
   6189   6206     1
   6189   6197     1
   6190   6195     1
   6190   6201     1
   6190   6203     1
   6190   6204     1
   6191   6192     1
   6191   6210     1
   6191   6209     1
   6191   6205     1
   6191   6203     1
   6191   6204     1
   6191   6194     1
   6192   6197     1
   6192   6202     1
   6192   6211     1
   6193   6208     1
   6193   6201     1
   6193   6209     1
   6194   6202     1
   6194   6196     1
   6195   6198     1
   6195   6207     1
   6195   6197     1
   6195   6202     1
   6195   6199     1
   6195   6196     1
   6196   6212     1
   6196   6201     1
   6196   6210     1
   6196   6209     1
   6197   6208     1
   6197   6212     1
   6199   6209     1
   6200   6209     1
   6203   6206     1
   6203   6207     1
   6204   6206     1
   6204   6207     1
   6207   6208     1
   6207   6209     1
   6209   6211     1

[ angles ]
;    ai     aj     ak funct         c0         c1         c2         c3
      1      4      7     1   111.0400475 552.288000
      1      8      9     1   112.3500484 533.878400
      1      8     12     1   112.3500484 533.878400
      4      1      8     1   111.0400475 552.288000
      4      7     15     1   112.3500484 533.878400
      4      7     18     1   112.3500484 533.878400
      7     15     21     1   111.0400475 552.288000
      7     18     24     1   111.0400475 552.288000
      8      9     30     1   111.0400475 552.288000
      8     12     27     1   111.0400475 552.288000
      9      8     12     1   112.3500484 533.878400
      9     30     34     1   111.0400475 529.694400
     12     27     33     1   111.0400475 529.694400
     15      7     18     1   112.3500484 533.878400
     15     21     35     1   111.0400475 529.694400
     18     24     36     1   111.0400475 529.694400
     21     35     38     1   123.2000528 564.003200
     21     35    114     1   115.1800491 558.982400
     24     36     39     1   123.2000528 564.003200
     24     36    139     1   115.1800491 558.982400
     27     33     37     1   123.2000528 564.003200
     27     33     64     1   115.1800491 558.982400
     30     34     40     1   123.2000528 564.003200
     30     34     89     1   115.1800491 558.982400
     33     64     44     1   120.6900519 530.531200
     34     89     69     1   120.6900519 530.531200
     35    114     94     1   120.6900519 530.531200
     36    139    119     1   120.6900519 530.531200
     37     33     64     1   123.0500530 620.905600
     38     35    114     1   123.0500530 620.905600
     39     36    139     1   123.0500530 620.905600
     40     34     89     1   123.0500530 620.905600
     41     44     64     1   111.6100477 551.451200
     41     47     48     1   112.3500484 533.878400
     41     47     51     1   112.3500484 533.878400
     44     41     47     1   111.0400475 552.288000
     47     48     57     1   111.0400475 552.288000
     47     51     54     1   111.0400475 552.288000
     48     47     51     1   112.3500484 533.878400
     48     57     61     1   111.0400475 529.694400
     51     54     60     1   111.0400475 529.694400
     54     60     62     1   123.2000528 564.003200
     54     60    164     1   115.1800491 558.982400
     57     61     63     1   123.2000528 564.003200
     57     61    189     1   115.1800491 558.982400
     60    164    144     1   120.6900519 530.531200
     61    189    169     1   120.6900519 530.531200
     62     60    164     1   123.0500530 620.905600
     63     61    189     1   123.0500530 620.905600
     66     69     89     1   111.6100477 551.451200
     66     72     73     1   112.3500484 533.878400
     66     72     76     1   112.3500484 533.878400
     69     66     72     1   111.0400475 552.288000
     72     73     82     1   111.0400475 552.288000
     72     76     79     1   111.0400475 552.288000
     73     72     76     1   112.3500484 533.878400
     73     82     86     1   111.0400475 529.694400
     76     79     85     1   111.0400475 529.694400
     79     85     87     1   123.2000528 564.003200
     79     85    214     1   115.1800491 558.982400
     82     86     88     1   123.2000528 564.003200
     82     86    239     1   115.1800491 558.982400
     85    214    194     1   120.6900519 530.531200
     86    239    219     1   120.6900519 530.531200
     87     85    214     1   123.0500530 620.905600
     88     86    239     1   123.0500530 620.905600
     91     94    114     1   111.6100477 551.451200
     91     97     98     1   112.3500484 533.878400
     91     97    101     1   112.3500484 533.878400
     94     91     97     1   111.0400475 552.288000
     97     98    107     1   111.0400475 552.288000
     97    101    104     1   111.0400475 552.288000
     98     97    101     1   112.3500484 533.878400
     98    107    111     1   111.0400475 529.694400
    101    104    110     1   111.0400475 529.694400
    104    110    112     1   123.2000528 564.003200
    104    110    264     1   115.1800491 558.982400
    107    111    113     1   123.2000528 564.003200
    107    111    289     1   115.1800491 558.982400
    110    264    244     1   120.6900519 530.531200
    111    289    269     1   120.6900519 530.531200
    112    110    264     1   123.0500530 620.905600
    113    111    289     1   123.0500530 620.905600
    116    119    139     1   111.6100477 551.451200
    116    122    123     1   112.3500484 533.878400
    116    122    126     1   112.3500484 533.878400
    119    116    122     1   111.0400475 552.288000
    122    123    132     1   111.0400475 552.288000
    122    126    129     1   111.0400475 552.288000
    123    122    126     1   112.3500484 533.878400
    123    132    136     1   111.0400475 529.694400
    126    129    135     1   111.0400475 529.694400
    129    135    137     1   123.2000528 564.003200
    129    135    314     1   115.1800491 558.982400
    132    136    138     1   123.2000528 564.003200
    132    136    339     1   115.1800491 558.982400
    135    314    294     1   120.6900519 530.531200
    136    339    319     1   120.6900519 530.531200
    137    135    314     1   123.0500530 620.905600
    138    136    339     1   123.0500530 620.905600
    141    144    164     1   111.6100477 551.451200
    141    147    148     1   112.3500484 533.878400
    141    147    151     1   112.3500484 533.878400
    144    141    147     1   111.0400475 552.288000
    147    148    157     1   111.0400475 552.288000
    147    151    154     1   111.0400475 552.288000
    148    147    151     1   112.3500484 533.878400
    148    157    161     1   111.0400475 529.694400
    151    154    160     1   111.0400475 529.694400
    154    160    162     1   123.2000528 564.003200
    154    160    364     1   115.1800491 558.982400
    157    161    163     1   123.2000528 564.003200
    157    161    389     1   115.1800491 558.982400
    160    364    344     1   120.6900519 530.531200
    161    389    369     1   120.6900519 530.531200
    162    160    364     1   123.0500530 620.905600
    163    161    389     1   123.0500530 620.905600
    166    169    189     1   111.6100477 551.451200
    166    172    173     1   112.3500484 533.878400
    166    172    176     1   112.3500484 533.878400
    169    166    172     1   111.0400475 552.288000
    172    173    182     1   111.0400475 552.288000
    172    176    179     1   111.0400475 552.288000
    173    172    176     1   112.3500484 533.878400
    173    182    186     1   111.0400475 529.694400
    176    179    185     1   111.0400475 529.694400
    179    185    187     1   123.2000528 564.003200
    179    185    414     1   115.1800491 558.982400
    182    186    188     1   123.2000528 564.003200
    182    186    439     1   115.1800491 558.982400
    185    414    394     1   120.6900519 530.531200
    186    439    419     1   120.6900519 530.531200
    187    185    414     1   123.0500530 620.905600
    188    186    439     1   123.0500530 620.905600
    191    194    214     1   111.6100477 551.451200
    191    197    198     1   112.3500484 533.878400
    191    197    201     1   112.3500484 533.878400
    194    191    197     1   111.0400475 552.288000
    197    198    207     1   111.0400475 552.288000
    197    201    204     1   111.0400475 552.288000
    198    197    201     1   112.3500484 533.878400
    198    207    211     1   111.0400475 529.694400
    201    204    210     1   111.0400475 529.694400
    204    210    212     1   123.2000528 564.003200
    204    210    464     1   115.1800491 558.982400
    207    211    213     1   123.2000528 564.003200
    207    211    489     1   115.1800491 558.982400
    210    464    444     1   120.6900519 530.531200
    211    489    469     1   120.6900519 530.531200
    212    210    464     1   123.0500530 620.905600
    213    211    489     1   123.0500530 620.905600
    216    219    239     1   111.6100477 551.451200
    216    222    223     1   112.3500484 533.878400
    216    222    226     1   112.3500484 533.878400
    219    216    222     1   111.0400475 552.288000
    222    223    232     1   111.0400475 552.288000
    222    226    229     1   111.0400475 552.288000
    223    222    226     1   112.3500484 533.878400
    223    232    236     1   111.0400475 529.694400
    226    229    235     1   111.0400475 529.694400
    229    235    237     1   123.2000528 564.003200
    229    235    514     1   115.1800491 558.982400
    232    236    238     1   123.2000528 564.003200
    232    236    539     1   115.1800491 558.982400
    235    514    494     1   120.6900519 530.531200
    236    539    519     1   120.6900519 530.531200
    237    235    514     1   123.0500530 620.905600
    238    236    539     1   123.0500530 620.905600
    241    244    264     1   111.6100477 551.451200
    241    247    248     1   112.3500484 533.878400
    241    247    251     1   112.3500484 533.878400
    244    241    247     1   111.0400475 552.288000
    247    248    257     1   111.0400475 552.288000
    247    251    254     1   111.0400475 552.288000
    248    247    251     1   112.3500484 533.878400
    248    257    261     1   111.0400475 529.694400
    251    254    260     1   111.0400475 529.694400
    254    260    262     1   123.2000528 564.003200
    254    260    564     1   115.1800491 558.982400
    257    261    263     1   123.2000528 564.003200
    257    261    589     1   115.1800491 558.982400
    260    564    544     1   120.6900519 530.531200
    261    589    569     1   120.6900519 530.531200
    262    260    564     1   123.0500530 620.905600
    263    261    589     1   123.0500530 620.905600
    266    269    289     1   111.6100477 551.451200
    266    272    273     1   112.3500484 533.878400
    266    272    276     1   112.3500484 533.878400
    269    266    272     1   111.0400475 552.288000
    272    273    282     1   111.0400475 552.288000
    272    276    279     1   111.0400475 552.288000
    273    272    276     1   112.3500484 533.878400
    273    282    286     1   111.0400475 529.694400
    276    279    285     1   111.0400475 529.694400
    279    285    287     1   123.2000528 564.003200
    279    285    614     1   115.1800491 558.982400
    282    286    288     1   123.2000528 564.003200
    282    286    639     1   115.1800491 558.982400
    285    614    594     1   120.6900519 530.531200
    286    639    619     1   120.6900519 530.531200
    287    285    614     1   123.0500530 620.905600
    288    286    639     1   123.0500530 620.905600
    291    294    314     1   111.6100477 551.451200
    291    297    298     1   112.3500484 533.878400
    291    297    301     1   112.3500484 533.878400
    294    291    297     1   111.0400475 552.288000
    297    298    307     1   111.0400475 552.288000
    297    301    304     1   111.0400475 552.288000
    298    297    301     1   112.3500484 533.878400
    298    307    311     1   111.0400475 529.694400
    301    304    310     1   111.0400475 529.694400
    304    310    312     1   123.2000528 564.003200
    304    310    664     1   115.1800491 558.982400
    307    311    313     1   123.2000528 564.003200
    307    311    689     1   115.1800491 558.982400
    310    664    644     1   120.6900519 530.531200
    311    689    669     1   120.6900519 530.531200
    312    310    664     1   123.0500530 620.905600
    313    311    689     1   123.0500530 620.905600
    316    319    339     1   111.6100477 551.451200
    316    322    323     1   112.3500484 533.878400
    316    322    326     1   112.3500484 533.878400
    319    316    322     1   111.0400475 552.288000
    322    323    332     1   111.0400475 552.288000
    322    326    329     1   111.0400475 552.288000
    323    322    326     1   112.3500484 533.878400
    323    332    336     1   111.0400475 529.694400
    326    329    335     1   111.0400475 529.694400
    329    335    337     1   123.2000528 564.003200
    329    335    714     1   115.1800491 558.982400
    332    336    338     1   123.2000528 564.003200
    332    336    739     1   115.1800491 558.982400
    335    714    694     1   120.6900519 530.531200
    336    739    719     1   120.6900519 530.531200
    337    335    714     1   123.0500530 620.905600
    338    336    739     1   123.0500530 620.905600
    341    344    364     1   111.6100477 551.451200
    341    347    348     1   112.3500484 533.878400
    341    347    351     1   112.3500484 533.878400
    344    341    347     1   111.0400475 552.288000
    347    348    357     1   111.0400475 552.288000
    347    351    354     1   111.0400475 552.288000
    348    347    351     1   112.3500484 533.878400
    348    357    361     1   111.0400475 529.694400
    351    354    360     1   111.0400475 529.694400
    354    360    362     1   123.2000528 564.003200
    354    360    764     1   115.1800491 558.982400
    357    361    363     1   123.2000528 564.003200
    357    361    789     1   115.1800491 558.982400
    360    764    744     1   120.6900519 530.531200
    361    789    769     1   120.6900519 530.531200
    362    360    764     1   123.0500530 620.905600
    363    361    789     1   123.0500530 620.905600
    366    369    389     1   111.6100477 551.451200
    366    372    373     1   112.3500484 533.878400
    366    372    376     1   112.3500484 533.878400
    369    366    372     1   111.0400475 552.288000
    372    373    382     1   111.0400475 552.288000
    372    376    379     1   111.0400475 552.288000
    373    372    376     1   112.3500484 533.878400
    373    382    386     1   111.0400475 529.694400
    376    379    385     1   111.0400475 529.694400
    379    385    387     1   123.2000528 564.003200
    379    385    814     1   115.1800491 558.982400
    382    386    388     1   123.2000528 564.003200
    382    386    839     1   115.1800491 558.982400
    385    814    794     1   120.6900519 530.531200
    386    839    819     1   120.6900519 530.531200
    387    385    814     1   123.0500530 620.905600
    388    386    839     1   123.0500530 620.905600
    391    394    414     1   111.6100477 551.451200
    391    397    398     1   112.3500484 533.878400
    391    397    401     1   112.3500484 533.878400
    394    391    397     1   111.0400475 552.288000
    397    398    407     1   111.0400475 552.288000
    397    401    404     1   111.0400475 552.288000
    398    397    401     1   112.3500484 533.878400
    398    407    411     1   111.0400475 529.694400
    401    404    410     1   111.0400475 529.694400
    404    410    412     1   123.2000528 564.003200
    404    410    864     1   115.1800491 558.982400
    407    411    413     1   123.2000528 564.003200
    407    411    889     1   115.1800491 558.982400
    410    864    844     1   120.6900519 530.531200
    411    889    869     1   120.6900519 530.531200
    412    410    864     1   123.0500530 620.905600
    413    411    889     1   123.0500530 620.905600
    416    419    439     1   111.6100477 551.451200
    416    422    423     1   112.3500484 533.878400
    416    422    426     1   112.3500484 533.878400
    419    416    422     1   111.0400475 552.288000
    422    423    432     1   111.0400475 552.288000
    422    426    429     1   111.0400475 552.288000
    423    422    426     1   112.3500484 533.878400
    423    432    436     1   111.0400475 529.694400
    426    429    435     1   111.0400475 529.694400
    429    435    437     1   123.2000528 564.003200
    429    435    914     1   115.1800491 558.982400
    432    436    438     1   123.2000528 564.003200
    432    436    939     1   115.1800491 558.982400
    435    914    894     1   120.6900519 530.531200
    436    939    919     1   120.6900519 530.531200
    437    435    914     1   123.0500530 620.905600
    438    436    939     1   123.0500530 620.905600
    441    444    464     1   111.6100477 551.451200
    441    447    448     1   112.3500484 533.878400
    441    447    451     1   112.3500484 533.878400
    444    441    447     1   111.0400475 552.288000
    447    448    457     1   111.0400475 552.288000
    447    451    454     1   111.0400475 552.288000
    448    447    451     1   112.3500484 533.878400
    448    457    461     1   111.0400475 529.694400
    451    454    460     1   111.0400475 529.694400
    454    460    462     1   123.2000528 564.003200
    454    460    964     1   115.1800491 558.982400
    457    461    463     1   123.2000528 564.003200
    457    461    989     1   115.1800491 558.982400
    460    964    944     1   120.6900519 530.531200
    461    989    969     1   120.6900519 530.531200
    462    460    964     1   123.0500530 620.905600
    463    461    989     1   123.0500530 620.905600
    466    469    489     1   111.6100477 551.451200
    466    472    473     1   112.3500484 533.878400
    466    472    476     1   112.3500484 533.878400
    469    466    472     1   111.0400475 552.288000
    472    473    482     1   111.0400475 552.288000
    472    476    479     1   111.0400475 552.288000
    473    472    476     1   112.3500484 533.878400
    473    482    486     1   111.0400475 529.694400
    476    479    485     1   111.0400475 529.694400
    479    485    487     1   123.2000528 564.003200
    479    485   1014     1   115.1800491 558.982400
    482    486    488     1   123.2000528 564.003200
    482    486   1039     1   115.1800491 558.982400
    485   1014    994     1   120.6900519 530.531200
    486   1039   1019     1   120.6900519 530.531200
    487    485   1014     1   123.0500530 620.905600
    488    486   1039     1   123.0500530 620.905600
    491    494    514     1   111.6100477 551.451200
    491    497    498     1   112.3500484 533.878400
    491    497    501     1   112.3500484 533.878400
    494    491    497     1   111.0400475 552.288000
    497    498    507     1   111.0400475 552.288000
    497    501    504     1   111.0400475 552.288000
    498    497    501     1   112.3500484 533.878400
    498    507    511     1   111.0400475 529.694400
    501    504    510     1   111.0400475 529.694400
    504    510    512     1   123.2000528 564.003200
    504    510   1064     1   115.1800491 558.982400
    507    511    513     1   123.2000528 564.003200
    507    511   1089     1   115.1800491 558.982400
    510   1064   1044     1   120.6900519 530.531200
    511   1089   1069     1   120.6900519 530.531200
    512    510   1064     1   123.0500530 620.905600
    513    511   1089     1   123.0500530 620.905600
    516    519    539     1   111.6100477 551.451200
    516    522    523     1   112.3500484 533.878400
    516    522    526     1   112.3500484 533.878400
    519    516    522     1   111.0400475 552.288000
    522    523    532     1   111.0400475 552.288000
    522    526    529     1   111.0400475 552.288000
    523    522    526     1   112.3500484 533.878400
    523    532    536     1   111.0400475 529.694400
    526    529    535     1   111.0400475 529.694400
    529    535    537     1   123.2000528 564.003200
    529    535   1114     1   115.1800491 558.982400
    532    536    538     1   123.2000528 564.003200
    532    536   1139     1   115.1800491 558.982400
    535   1114   1094     1   120.6900519 530.531200
    536   1139   1119     1   120.6900519 530.531200
    537    535   1114     1   123.0500530 620.905600
    538    536   1139     1   123.0500530 620.905600
    541    544    564     1   111.6100477 551.451200
    541    547    548     1   112.3500484 533.878400
    541    547    551     1   112.3500484 533.878400
    544    541    547     1   111.0400475 552.288000
    547    548    557     1   111.0400475 552.288000
    547    551    554     1   111.0400475 552.288000
    548    547    551     1   112.3500484 533.878400
    548    557    561     1   111.0400475 529.694400
    551    554    560     1   111.0400475 529.694400
    554    560    562     1   123.2000528 564.003200
    554    560   1164     1   115.1800491 558.982400
    557    561    563     1   123.2000528 564.003200
    557    561   1189     1   115.1800491 558.982400
    560   1164   1144     1   120.6900519 530.531200
    561   1189   1169     1   120.6900519 530.531200
    562    560   1164     1   123.0500530 620.905600
    563    561   1189     1   123.0500530 620.905600
    566    569    589     1   111.6100477 551.451200
    566    572    573     1   112.3500484 533.878400
    566    572    576     1   112.3500484 533.878400
    569    566    572     1   111.0400475 552.288000
    572    573    582     1   111.0400475 552.288000
    572    576    579     1   111.0400475 552.288000
    573    572    576     1   112.3500484 533.878400
    573    582    586     1   111.0400475 529.694400
    576    579    585     1   111.0400475 529.694400
    579    585    587     1   123.2000528 564.003200
    579    585   1214     1   115.1800491 558.982400
    582    586    588     1   123.2000528 564.003200
    582    586   1239     1   115.1800491 558.982400
    585   1214   1194     1   120.6900519 530.531200
    586   1239   1219     1   120.6900519 530.531200
    587    585   1214     1   123.0500530 620.905600
    588    586   1239     1   123.0500530 620.905600
    591    594    614     1   111.6100477 551.451200
    591    597    598     1   112.3500484 533.878400
    591    597    601     1   112.3500484 533.878400
    594    591    597     1   111.0400475 552.288000
    597    598    607     1   111.0400475 552.288000
    597    601    604     1   111.0400475 552.288000
    598    597    601     1   112.3500484 533.878400
    598    607    611     1   111.0400475 529.694400
    601    604    610     1   111.0400475 529.694400
    604    610    612     1   123.2000528 564.003200
    604    610   1264     1   115.1800491 558.982400
    607    611    613     1   123.2000528 564.003200
    607    611   1289     1   115.1800491 558.982400
    610   1264   1244     1   120.6900519 530.531200
    611   1289   1269     1   120.6900519 530.531200
    612    610   1264     1   123.0500530 620.905600
    613    611   1289     1   123.0500530 620.905600
    616    619    639     1   111.6100477 551.451200
    616    622    623     1   112.3500484 533.878400
    616    622    626     1   112.3500484 533.878400
    619    616    622     1   111.0400475 552.288000
    622    623    632     1   111.0400475 552.288000
    622    626    629     1   111.0400475 552.288000
    623    622    626     1   112.3500484 533.878400
    623    632    636     1   111.0400475 529.694400
    626    629    635     1   111.0400475 529.694400
    629    635    637     1   123.2000528 564.003200
    629    635   1314     1   115.1800491 558.982400
    632    636    638     1   123.2000528 564.003200
    632    636   1339     1   115.1800491 558.982400
    635   1314   1294     1   120.6900519 530.531200
    636   1339   1319     1   120.6900519 530.531200
    637    635   1314     1   123.0500530 620.905600
    638    636   1339     1   123.0500530 620.905600
    641    644    664     1   111.6100477 551.451200
    641    647    648     1   112.3500484 533.878400
    641    647    651     1   112.3500484 533.878400
    644    641    647     1   111.0400475 552.288000
    647    648    657     1   111.0400475 552.288000
    647    651    654     1   111.0400475 552.288000
    648    647    651     1   112.3500484 533.878400
    648    657    661     1   111.0400475 529.694400
    651    654    660     1   111.0400475 529.694400
    654    660    662     1   123.2000528 564.003200
    654    660   1364     1   115.1800491 558.982400
    657    661    663     1   123.2000528 564.003200
    657    661   1389     1   115.1800491 558.982400
    660   1364   1344     1   120.6900519 530.531200
    661   1389   1369     1   120.6900519 530.531200
    662    660   1364     1   123.0500530 620.905600
    663    661   1389     1   123.0500530 620.905600
    666    669    689     1   111.6100477 551.451200
    666    672    673     1   112.3500484 533.878400
    666    672    676     1   112.3500484 533.878400
    669    666    672     1   111.0400475 552.288000
    672    673    682     1   111.0400475 552.288000
    672    676    679     1   111.0400475 552.288000
    673    672    676     1   112.3500484 533.878400
    673    682    686     1   111.0400475 529.694400
    676    679    685     1   111.0400475 529.694400
    679    685    687     1   123.2000528 564.003200
    679    685   1414     1   115.1800491 558.982400
    682    686    688     1   123.2000528 564.003200
    682    686   1439     1   115.1800491 558.982400
    685   1414   1394     1   120.6900519 530.531200
    686   1439   1419     1   120.6900519 530.531200
    687    685   1414     1   123.0500530 620.905600
    688    686   1439     1   123.0500530 620.905600
    691    694    714     1   111.6100477 551.451200
    691    697    698     1   112.3500484 533.878400
    691    697    701     1   112.3500484 533.878400
    694    691    697     1   111.0400475 552.288000
    697    698    707     1   111.0400475 552.288000
    697    701    704     1   111.0400475 552.288000
    698    697    701     1   112.3500484 533.878400
    698    707    711     1   111.0400475 529.694400
    701    704    710     1   111.0400475 529.694400
    704    710    712     1   123.2000528 564.003200
    704    710   1464     1   115.1800491 558.982400
    707    711    713     1   123.2000528 564.003200
    707    711   1489     1   115.1800491 558.982400
    710   1464   1444     1   120.6900519 530.531200
    711   1489   1469     1   120.6900519 530.531200
    712    710   1464     1   123.0500530 620.905600
    713    711   1489     1   123.0500530 620.905600
    716    719    739     1   111.6100477 551.451200
    716    722    723     1   112.3500484 533.878400
    716    722    726     1   112.3500484 533.878400
    719    716    722     1   111.0400475 552.288000
    722    723    732     1   111.0400475 552.288000
    722    726    729     1   111.0400475 552.288000
    723    722    726     1   112.3500484 533.878400
    723    732    736     1   111.0400475 529.694400
    726    729    735     1   111.0400475 529.694400
    729    735    737     1   123.2000528 564.003200
    729    735   1514     1   115.1800491 558.982400
    732    736    738     1   123.2000528 564.003200
    732    736   1539     1   115.1800491 558.982400
    735   1514   1494     1   120.6900519 530.531200
    736   1539   1519     1   120.6900519 530.531200
    737    735   1514     1   123.0500530 620.905600
    738    736   1539     1   123.0500530 620.905600
    741    744    764     1   111.6100477 551.451200
    741    747    748     1   112.3500484 533.878400
    741    747    751     1   112.3500484 533.878400
    744    741    747     1   111.0400475 552.288000
    747    748    757     1   111.0400475 552.288000
    747    751    754     1   111.0400475 552.288000
    748    747    751     1   112.3500484 533.878400
    748    757    761     1   111.0400475 529.694400
    751    754    760     1   111.0400475 529.694400
    754    760   1541     1   115.1800491 558.982400
    754    760    762     1   123.2000528 564.003200
    757    761    763     1   123.2000528 564.003200
    757    761   1614     1   115.1800491 558.982400
    760   1541   1543     1   120.6900519 530.531200
    761   1614   1616     1   120.6900519 530.531200
    762    760   1541     1   123.0500530 620.905600
    763    761   1614     1   123.0500530 620.905600
    766    769    789     1   111.6100477 551.451200
    766    772    773     1   112.3500484 533.878400
    766    772    776     1   112.3500484 533.878400
    769    766    772     1   111.0400475 552.288000
    772    773    782     1   111.0400475 552.288000
    772    776    779     1   111.0400475 552.288000
    773    772    776     1   112.3500484 533.878400
    773    782    786     1   111.0400475 529.694400
    776    779    785     1   111.0400475 529.694400
    779    785   1687     1   115.1800491 558.982400
    779    785    787     1   123.2000528 564.003200
    782    786    788     1   123.2000528 564.003200
    782    786   1760     1   115.1800491 558.982400
    785   1687   1689     1   120.6900519 530.531200
    786   1760   1762     1   120.6900519 530.531200
    787    785   1687     1   123.0500530 620.905600
    788    786   1760     1   123.0500530 620.905600
    791    794    814     1   111.6100477 551.451200
    791    797    798     1   112.3500484 533.878400
    791    797    801     1   112.3500484 533.878400
    794    791    797     1   111.0400475 552.288000
    797    798    807     1   111.0400475 552.288000
    797    801    804     1   111.0400475 552.288000
    798    797    801     1   112.3500484 533.878400
    798    807    811     1   111.0400475 529.694400
    801    804    810     1   111.0400475 529.694400
    804    810   1833     1   115.1800491 558.982400
    804    810    812     1   123.2000528 564.003200
    807    811    813     1   123.2000528 564.003200
    807    811   1906     1   115.1800491 558.982400
    810   1833   1835     1   120.6900519 530.531200
    811   1906   1908     1   120.6900519 530.531200
    812    810   1833     1   123.0500530 620.905600
    813    811   1906     1   123.0500530 620.905600
    816    819    839     1   111.6100477 551.451200
    816    822    823     1   112.3500484 533.878400
    816    822    826     1   112.3500484 533.878400
    819    816    822     1   111.0400475 552.288000
    822    823    832     1   111.0400475 552.288000
    822    826    829     1   111.0400475 552.288000
    823    822    826     1   112.3500484 533.878400
    823    832    836     1   111.0400475 529.694400
    826    829    835     1   111.0400475 529.694400
    829    835   1979     1   115.1800491 558.982400
    829    835    837     1   123.2000528 564.003200
    832    836    838     1   123.2000528 564.003200
    832    836   2052     1   115.1800491 558.982400
    835   1979   1981     1   120.6900519 530.531200
    836   2052   2054     1   120.6900519 530.531200
    837    835   1979     1   123.0500530 620.905600
    838    836   2052     1   123.0500530 620.905600
    841    844    864     1   111.6100477 551.451200
    841    847    848     1   112.3500484 533.878400
    841    847    851     1   112.3500484 533.878400
    844    841    847     1   111.0400475 552.288000
    847    848    857     1   111.0400475 552.288000
    847    851    854     1   111.0400475 552.288000
    848    847    851     1   112.3500484 533.878400
    848    857    861     1   111.0400475 529.694400
    851    854    860     1   111.0400475 529.694400
    854    860   2125     1   115.1800491 558.982400
    854    860    862     1   123.2000528 564.003200
    857    861    863     1   123.2000528 564.003200
    857    861   2198     1   115.1800491 558.982400
    860   2125   2127     1   120.6900519 530.531200
    861   2198   2200     1   120.6900519 530.531200
    862    860   2125     1   123.0500530 620.905600
    863    861   2198     1   123.0500530 620.905600
    866    869    889     1   111.6100477 551.451200
    866    872    873     1   112.3500484 533.878400
    866    872    876     1   112.3500484 533.878400
    869    866    872     1   111.0400475 552.288000
    872    873    882     1   111.0400475 552.288000
    872    876    879     1   111.0400475 552.288000
    873    872    876     1   112.3500484 533.878400
    873    882    886     1   111.0400475 529.694400
    876    879    885     1   111.0400475 529.694400
    879    885   2271     1   115.1800491 558.982400
    879    885    887     1   123.2000528 564.003200
    882    886    888     1   123.2000528 564.003200
    882    886   2344     1   115.1800491 558.982400
    885   2271   2273     1   120.6900519 530.531200
    886   2344   2346     1   120.6900519 530.531200
    887    885   2271     1   123.0500530 620.905600
    888    886   2344     1   123.0500530 620.905600
    891    894    914     1   111.6100477 551.451200
    891    897    898     1   112.3500484 533.878400
    891    897    901     1   112.3500484 533.878400
    894    891    897     1   111.0400475 552.288000
    897    898    907     1   111.0400475 552.288000
    897    901    904     1   111.0400475 552.288000
    898    897    901     1   112.3500484 533.878400
    898    907    911     1   111.0400475 529.694400
    901    904    910     1   111.0400475 529.694400
    904    910   2417     1   115.1800491 558.982400
    904    910    912     1   123.2000528 564.003200
    907    911    913     1   123.2000528 564.003200
    907    911   2490     1   115.1800491 558.982400
    910   2417   2419     1   120.6900519 530.531200
    911   2490   2492     1   120.6900519 530.531200
    912    910   2417     1   123.0500530 620.905600
    913    911   2490     1   123.0500530 620.905600
    916    919    939     1   111.6100477 551.451200
    916    922    923     1   112.3500484 533.878400
    916    922    926     1   112.3500484 533.878400
    919    916    922     1   111.0400475 552.288000
    922    923    932     1   111.0400475 552.288000
    922    926    929     1   111.0400475 552.288000
    923    922    926     1   112.3500484 533.878400
    923    932    936     1   111.0400475 529.694400
    926    929    935     1   111.0400475 529.694400
    929    935   2563     1   115.1800491 558.982400
    929    935    937     1   123.2000528 564.003200
    932    936    938     1   123.2000528 564.003200
    932    936   2636     1   115.1800491 558.982400
    935   2563   2565     1   120.6900519 530.531200
    936   2636   2638     1   120.6900519 530.531200
    937    935   2563     1   123.0500530 620.905600
    938    936   2636     1   123.0500530 620.905600
    941    944    964     1   111.6100477 551.451200
    941    947    948     1   112.3500484 533.878400
    941    947    951     1   112.3500484 533.878400
    944    941    947     1   111.0400475 552.288000
    947    948    957     1   111.0400475 552.288000
    947    951    954     1   111.0400475 552.288000
    948    947    951     1   112.3500484 533.878400
    948    957    961     1   111.0400475 529.694400
    951    954    960     1   111.0400475 529.694400
    954    960   2709     1   115.1800491 558.982400
    954    960    962     1   123.2000528 564.003200
    957    961    963     1   123.2000528 564.003200
    957    961   2782     1   115.1800491 558.982400
    960   2709   2711     1   120.6900519 530.531200
    961   2782   2784     1   120.6900519 530.531200
    962    960   2709     1   123.0500530 620.905600
    963    961   2782     1   123.0500530 620.905600
    966    969    989     1   111.6100477 551.451200
    966    972    973     1   112.3500484 533.878400
    966    972    976     1   112.3500484 533.878400
    969    966    972     1   111.0400475 552.288000
    972    973    982     1   111.0400475 552.288000
    972    976    979     1   111.0400475 552.288000
    973    972    976     1   112.3500484 533.878400
    973    982    986     1   111.0400475 529.694400
    976    979    985     1   111.0400475 529.694400
    979    985   2855     1   115.1800491 558.982400
    979    985    987     1   123.2000528 564.003200
    982    986    988     1   123.2000528 564.003200
    982    986   2928     1   115.1800491 558.982400
    985   2855   2857     1   120.6900519 530.531200
    986   2928   2930     1   120.6900519 530.531200
    987    985   2855     1   123.0500530 620.905600
    988    986   2928     1   123.0500530 620.905600
    991    994   1014     1   111.6100477 551.451200
    991    997    998     1   112.3500484 533.878400
    991    997   1001     1   112.3500484 533.878400
    994    991    997     1   111.0400475 552.288000
    997    998   1007     1   111.0400475 552.288000
    997   1001   1004     1   111.0400475 552.288000
    998    997   1001     1   112.3500484 533.878400
    998   1007   1011     1   111.0400475 529.694400
   1001   1004   1010     1   111.0400475 529.694400
   1004   1010   3001     1   115.1800491 558.982400
   1004   1010   1012     1   123.2000528 564.003200
   1007   1011   1013     1   123.2000528 564.003200
   1007   1011   3074     1   115.1800491 558.982400
   1010   3001   3003     1   120.6900519 530.531200
   1011   3074   3076     1   120.6900519 530.531200
   1012   1010   3001     1   123.0500530 620.905600
   1013   1011   3074     1   123.0500530 620.905600
   1016   1019   1039     1   111.6100477 551.451200
   1016   1022   1023     1   112.3500484 533.878400
   1016   1022   1026     1   112.3500484 533.878400
   1019   1016   1022     1   111.0400475 552.288000
   1022   1023   1032     1   111.0400475 552.288000
   1022   1026   1029     1   111.0400475 552.288000
   1023   1022   1026     1   112.3500484 533.878400
   1023   1032   1036     1   111.0400475 529.694400
   1026   1029   1035     1   111.0400475 529.694400
   1029   1035   3147     1   115.1800491 558.982400
   1029   1035   1037     1   123.2000528 564.003200
   1032   1036   1038     1   123.2000528 564.003200
   1032   1036   3220     1   115.1800491 558.982400
   1035   3147   3149     1   120.6900519 530.531200
   1036   3220   3222     1   120.6900519 530.531200
   1037   1035   3147     1   123.0500530 620.905600
   1038   1036   3220     1   123.0500530 620.905600
   1041   1044   1064     1   111.6100477 551.451200
   1041   1047   1048     1   112.3500484 533.878400
   1041   1047   1051     1   112.3500484 533.878400
   1044   1041   1047     1   111.0400475 552.288000
   1047   1048   1057     1   111.0400475 552.288000
   1047   1051   1054     1   111.0400475 552.288000
   1048   1047   1051     1   112.3500484 533.878400
   1048   1057   1061     1   111.0400475 529.694400
   1051   1054   1060     1   111.0400475 529.694400
   1054   1060   3293     1   115.1800491 558.982400
   1054   1060   1062     1   123.2000528 564.003200
   1057   1061   1063     1   123.2000528 564.003200
   1057   1061   3366     1   115.1800491 558.982400
   1060   3293   3295     1   120.6900519 530.531200
   1061   3366   3368     1   120.6900519 530.531200
   1062   1060   3293     1   123.0500530 620.905600
   1063   1061   3366     1   123.0500530 620.905600
   1066   1069   1089     1   111.6100477 551.451200
   1066   1072   1073     1   112.3500484 533.878400
   1066   1072   1076     1   112.3500484 533.878400
   1069   1066   1072     1   111.0400475 552.288000
   1072   1073   1082     1   111.0400475 552.288000
   1072   1076   1079     1   111.0400475 552.288000
   1073   1072   1076     1   112.3500484 533.878400
   1073   1082   1086     1   111.0400475 529.694400
   1076   1079   1085     1   111.0400475 529.694400
   1079   1085   3439     1   115.1800491 558.982400
   1079   1085   1087     1   123.2000528 564.003200
   1082   1086   1088     1   123.2000528 564.003200
   1082   1086   3512     1   115.1800491 558.982400
   1085   3439   3441     1   120.6900519 530.531200
   1086   3512   3514     1   120.6900519 530.531200
   1087   1085   3439     1   123.0500530 620.905600
   1088   1086   3512     1   123.0500530 620.905600
   1091   1094   1114     1   111.6100477 551.451200
   1091   1097   1098     1   112.3500484 533.878400
   1091   1097   1101     1   112.3500484 533.878400
   1094   1091   1097     1   111.0400475 552.288000
   1097   1098   1107     1   111.0400475 552.288000
   1097   1101   1104     1   111.0400475 552.288000
   1098   1097   1101     1   112.3500484 533.878400
   1098   1107   1111     1   111.0400475 529.694400
   1101   1104   1110     1   111.0400475 529.694400
   1104   1110   3585     1   115.1800491 558.982400
   1104   1110   1112     1   123.2000528 564.003200
   1107   1111   1113     1   123.2000528 564.003200
   1107   1111   3658     1   115.1800491 558.982400
   1110   3585   3587     1   120.6900519 530.531200
   1111   3658   3660     1   120.6900519 530.531200
   1112   1110   3585     1   123.0500530 620.905600
   1113   1111   3658     1   123.0500530 620.905600
   1116   1119   1139     1   111.6100477 551.451200
   1116   1122   1123     1   112.3500484 533.878400
   1116   1122   1126     1   112.3500484 533.878400
   1119   1116   1122     1   111.0400475 552.288000
   1122   1123   1132     1   111.0400475 552.288000
   1122   1126   1129     1   111.0400475 552.288000
   1123   1122   1126     1   112.3500484 533.878400
   1123   1132   1136     1   111.0400475 529.694400
   1126   1129   1135     1   111.0400475 529.694400
   1129   1135   3731     1   115.1800491 558.982400
   1129   1135   1137     1   123.2000528 564.003200
   1132   1136   1138     1   123.2000528 564.003200
   1132   1136   3804     1   115.1800491 558.982400
   1135   3731   3733     1   120.6900519 530.531200
   1136   3804   3806     1   120.6900519 530.531200
   1137   1135   3731     1   123.0500530 620.905600
   1138   1136   3804     1   123.0500530 620.905600
   1141   1144   1164     1   111.6100477 551.451200
   1141   1147   1148     1   112.3500484 533.878400
   1141   1147   1151     1   112.3500484 533.878400
   1144   1141   1147     1   111.0400475 552.288000
   1147   1148   1157     1   111.0400475 552.288000
   1147   1151   1154     1   111.0400475 552.288000
   1148   1147   1151     1   112.3500484 533.878400
   1148   1157   1161     1   111.0400475 529.694400
   1151   1154   1160     1   111.0400475 529.694400
   1154   1160   3877     1   115.1800491 558.982400
   1154   1160   1162     1   123.2000528 564.003200
   1157   1161   1163     1   123.2000528 564.003200
   1157   1161   3950     1   115.1800491 558.982400
   1160   3877   3879     1   120.6900519 530.531200
   1161   3950   3952     1   120.6900519 530.531200
   1162   1160   3877     1   123.0500530 620.905600
   1163   1161   3950     1   123.0500530 620.905600
   1166   1169   1189     1   111.6100477 551.451200
   1166   1172   1173     1   112.3500484 533.878400
   1166   1172   1176     1   112.3500484 533.878400
   1169   1166   1172     1   111.0400475 552.288000
   1172   1173   1182     1   111.0400475 552.288000
   1172   1176   1179     1   111.0400475 552.288000
   1173   1172   1176     1   112.3500484 533.878400
   1173   1182   1186     1   111.0400475 529.694400
   1176   1179   1185     1   111.0400475 529.694400
   1179   1185   4023     1   115.1800491 558.982400
   1179   1185   1187     1   123.2000528 564.003200
   1182   1186   1188     1   123.2000528 564.003200
   1182   1186   4096     1   115.1800491 558.982400
   1185   4023   4025     1   120.6900519 530.531200
   1186   4096   4098     1   120.6900519 530.531200
   1187   1185   4023     1   123.0500530 620.905600
   1188   1186   4096     1   123.0500530 620.905600
   1191   1194   1214     1   111.6100477 551.451200
   1191   1197   1198     1   112.3500484 533.878400
   1191   1197   1201     1   112.3500484 533.878400
   1194   1191   1197     1   111.0400475 552.288000
   1197   1198   1207     1   111.0400475 552.288000
   1197   1201   1204     1   111.0400475 552.288000
   1198   1197   1201     1   112.3500484 533.878400
   1198   1207   1211     1   111.0400475 529.694400
   1201   1204   1210     1   111.0400475 529.694400
   1204   1210   4169     1   115.1800491 558.982400
   1204   1210   1212     1   123.2000528 564.003200
   1207   1211   1213     1   123.2000528 564.003200
   1207   1211   4242     1   115.1800491 558.982400
   1210   4169   4171     1   120.6900519 530.531200
   1211   4242   4244     1   120.6900519 530.531200
   1212   1210   4169     1   123.0500530 620.905600
   1213   1211   4242     1   123.0500530 620.905600
   1216   1219   1239     1   111.6100477 551.451200
   1216   1222   1223     1   112.3500484 533.878400
   1216   1222   1226     1   112.3500484 533.878400
   1219   1216   1222     1   111.0400475 552.288000
   1222   1223   1232     1   111.0400475 552.288000
   1222   1226   1229     1   111.0400475 552.288000
   1223   1222   1226     1   112.3500484 533.878400
   1223   1232   1236     1   111.0400475 529.694400
   1226   1229   1235     1   111.0400475 529.694400
   1229   1235   4315     1   115.1800491 558.982400
   1229   1235   1237     1   123.2000528 564.003200
   1232   1236   1238     1   123.2000528 564.003200
   1232   1236   4388     1   115.1800491 558.982400
   1235   4315   4317     1   120.6900519 530.531200
   1236   4388   4390     1   120.6900519 530.531200
   1237   1235   4315     1   123.0500530 620.905600
   1238   1236   4388     1   123.0500530 620.905600
   1241   1244   1264     1   111.6100477 551.451200
   1241   1247   1248     1   112.3500484 533.878400
   1241   1247   1251     1   112.3500484 533.878400
   1244   1241   1247     1   111.0400475 552.288000
   1247   1248   1257     1   111.0400475 552.288000
   1247   1251   1254     1   111.0400475 552.288000
   1248   1247   1251     1   112.3500484 533.878400
   1248   1257   1261     1   111.0400475 529.694400
   1251   1254   1260     1   111.0400475 529.694400
   1254   1260   4461     1   115.1800491 558.982400
   1254   1260   1262     1   123.2000528 564.003200
   1257   1261   1263     1   123.2000528 564.003200
   1257   1261   4534     1   115.1800491 558.982400
   1260   4461   4463     1   120.6900519 530.531200
   1261   4534   4536     1   120.6900519 530.531200
   1262   1260   4461     1   123.0500530 620.905600
   1263   1261   4534     1   123.0500530 620.905600
   1266   1269   1289     1   111.6100477 551.451200
   1266   1272   1273     1   112.3500484 533.878400
   1266   1272   1276     1   112.3500484 533.878400
   1269   1266   1272     1   111.0400475 552.288000
   1272   1273   1282     1   111.0400475 552.288000
   1272   1276   1279     1   111.0400475 552.288000
   1273   1272   1276     1   112.3500484 533.878400
   1273   1282   1286     1   111.0400475 529.694400
   1276   1279   1285     1   111.0400475 529.694400
   1279   1285   4607     1   115.1800491 558.982400
   1279   1285   1287     1   123.2000528 564.003200
   1282   1286   1288     1   123.2000528 564.003200
   1282   1286   4680     1   115.1800491 558.982400
   1285   4607   4609     1   120.6900519 530.531200
   1286   4680   4682     1   120.6900519 530.531200
   1287   1285   4607     1   123.0500530 620.905600
   1288   1286   4680     1   123.0500530 620.905600
   1291   1294   1314     1   111.6100477 551.451200
   1291   1297   1298     1   112.3500484 533.878400
   1291   1297   1301     1   112.3500484 533.878400
   1294   1291   1297     1   111.0400475 552.288000
   1297   1298   1307     1   111.0400475 552.288000
   1297   1301   1304     1   111.0400475 552.288000
   1298   1297   1301     1   112.3500484 533.878400
   1298   1307   1311     1   111.0400475 529.694400
   1301   1304   1310     1   111.0400475 529.694400
   1304   1310   4753     1   115.1800491 558.982400
   1304   1310   1312     1   123.2000528 564.003200
   1307   1311   1313     1   123.2000528 564.003200
   1307   1311   4826     1   115.1800491 558.982400
   1310   4753   4755     1   120.6900519 530.531200
   1311   4826   4828     1   120.6900519 530.531200
   1312   1310   4753     1   123.0500530 620.905600
   1313   1311   4826     1   123.0500530 620.905600
   1316   1319   1339     1   111.6100477 551.451200
   1316   1322   1323     1   112.3500484 533.878400
   1316   1322   1326     1   112.3500484 533.878400
   1319   1316   1322     1   111.0400475 552.288000
   1322   1323   1332     1   111.0400475 552.288000
   1322   1326   1329     1   111.0400475 552.288000
   1323   1322   1326     1   112.3500484 533.878400
   1323   1332   1336     1   111.0400475 529.694400
   1326   1329   1335     1   111.0400475 529.694400
   1329   1335   4899     1   115.1800491 558.982400
   1329   1335   1337     1   123.2000528 564.003200
   1332   1336   1338     1   123.2000528 564.003200
   1332   1336   4972     1   115.1800491 558.982400
   1335   4899   4901     1   120.6900519 530.531200
   1336   4972   4974     1   120.6900519 530.531200
   1337   1335   4899     1   123.0500530 620.905600
   1338   1336   4972     1   123.0500530 620.905600
   1341   1344   1364     1   111.6100477 551.451200
   1341   1347   1348     1   112.3500484 533.878400
   1341   1347   1351     1   112.3500484 533.878400
   1344   1341   1347     1   111.0400475 552.288000
   1347   1348   1357     1   111.0400475 552.288000
   1347   1351   1354     1   111.0400475 552.288000
   1348   1347   1351     1   112.3500484 533.878400
   1348   1357   1361     1   111.0400475 529.694400
   1351   1354   1360     1   111.0400475 529.694400
   1354   1360   5045     1   115.1800491 558.982400
   1354   1360   1362     1   123.2000528 564.003200
   1357   1361   1363     1   123.2000528 564.003200
   1357   1361   5118     1   115.1800491 558.982400
   1360   5045   5047     1   120.6900519 530.531200
   1361   5118   5120     1   120.6900519 530.531200
   1362   1360   5045     1   123.0500530 620.905600
   1363   1361   5118     1   123.0500530 620.905600
   1366   1369   1389     1   111.6100477 551.451200
   1366   1372   1373     1   112.3500484 533.878400
   1366   1372   1376     1   112.3500484 533.878400
   1369   1366   1372     1   111.0400475 552.288000
   1372   1373   1382     1   111.0400475 552.288000
   1372   1376   1379     1   111.0400475 552.288000
   1373   1372   1376     1   112.3500484 533.878400
   1373   1382   1386     1   111.0400475 529.694400
   1376   1379   1385     1   111.0400475 529.694400
   1379   1385   5191     1   115.1800491 558.982400
   1379   1385   1387     1   123.2000528 564.003200
   1382   1386   1388     1   123.2000528 564.003200
   1382   1386   5264     1   115.1800491 558.982400
   1385   5191   5193     1   120.6900519 530.531200
   1386   5264   5266     1   120.6900519 530.531200
   1387   1385   5191     1   123.0500530 620.905600
   1388   1386   5264     1   123.0500530 620.905600
   1391   1394   1414     1   111.6100477 551.451200
   1391   1397   1398     1   112.3500484 533.878400
   1391   1397   1401     1   112.3500484 533.878400
   1394   1391   1397     1   111.0400475 552.288000
   1397   1398   1407     1   111.0400475 552.288000
   1397   1401   1404     1   111.0400475 552.288000
   1398   1397   1401     1   112.3500484 533.878400
   1398   1407   1411     1   111.0400475 529.694400
   1401   1404   1410     1   111.0400475 529.694400
   1404   1410   5337     1   115.1800491 558.982400
   1404   1410   1412     1   123.2000528 564.003200
   1407   1411   1413     1   123.2000528 564.003200
   1407   1411   5410     1   115.1800491 558.982400
   1410   5337   5339     1   120.6900519 530.531200
   1411   5410   5412     1   120.6900519 530.531200
   1412   1410   5337     1   123.0500530 620.905600
   1413   1411   5410     1   123.0500530 620.905600
   1416   1419   1439     1   111.6100477 551.451200
   1416   1422   1423     1   112.3500484 533.878400
   1416   1422   1426     1   112.3500484 533.878400
   1419   1416   1422     1   111.0400475 552.288000
   1422   1423   1432     1   111.0400475 552.288000
   1422   1426   1429     1   111.0400475 552.288000
   1423   1422   1426     1   112.3500484 533.878400
   1423   1432   1436     1   111.0400475 529.694400
   1426   1429   1435     1   111.0400475 529.694400
   1429   1435   5483     1   115.1800491 558.982400
   1429   1435   1437     1   123.2000528 564.003200
   1432   1436   1438     1   123.2000528 564.003200
   1432   1436   5556     1   115.1800491 558.982400
   1435   5483   5485     1   120.6900519 530.531200
   1436   5556   5558     1   120.6900519 530.531200
   1437   1435   5483     1   123.0500530 620.905600
   1438   1436   5556     1   123.0500530 620.905600
   1441   1444   1464     1   111.6100477 551.451200
   1441   1447   1448     1   112.3500484 533.878400
   1441   1447   1451     1   112.3500484 533.878400
   1444   1441   1447     1   111.0400475 552.288000
   1447   1448   1457     1   111.0400475 552.288000
   1447   1451   1454     1   111.0400475 552.288000
   1448   1447   1451     1   112.3500484 533.878400
   1448   1457   1461     1   111.0400475 529.694400
   1451   1454   1460     1   111.0400475 529.694400
   1454   1460   5629     1   115.1800491 558.982400
   1454   1460   1462     1   123.2000528 564.003200
   1457   1461   1463     1   123.2000528 564.003200
   1457   1461   5702     1   115.1800491 558.982400
   1460   5629   5631     1   120.6900519 530.531200
   1461   5702   5704     1   120.6900519 530.531200
   1462   1460   5629     1   123.0500530 620.905600
   1463   1461   5702     1   123.0500530 620.905600
   1466   1469   1489     1   111.6100477 551.451200
   1466   1472   1473     1   112.3500484 533.878400
   1466   1472   1476     1   112.3500484 533.878400
   1469   1466   1472     1   111.0400475 552.288000
   1472   1473   1482     1   111.0400475 552.288000
   1472   1476   1479     1   111.0400475 552.288000
   1473   1472   1476     1   112.3500484 533.878400
   1473   1482   1486     1   111.0400475 529.694400
   1476   1479   1485     1   111.0400475 529.694400
   1479   1485   5775     1   115.1800491 558.982400
   1479   1485   1487     1   123.2000528 564.003200
   1482   1486   1488     1   123.2000528 564.003200
   1482   1486   5848     1   115.1800491 558.982400
   1485   5775   5777     1   120.6900519 530.531200
   1486   5848   5850     1   120.6900519 530.531200
   1487   1485   5775     1   123.0500530 620.905600
   1488   1486   5848     1   123.0500530 620.905600
   1491   1494   1514     1   111.6100477 551.451200
   1491   1497   1498     1   112.3500484 533.878400
   1491   1497   1501     1   112.3500484 533.878400
   1494   1491   1497     1   111.0400475 552.288000
   1497   1498   1507     1   111.0400475 552.288000
   1497   1501   1504     1   111.0400475 552.288000
   1498   1497   1501     1   112.3500484 533.878400
   1498   1507   1511     1   111.0400475 529.694400
   1501   1504   1510     1   111.0400475 529.694400
   1504   1510   5921     1   115.1800491 558.982400
   1504   1510   1512     1   123.2000528 564.003200
   1507   1511   1513     1   123.2000528 564.003200
   1507   1511   5994     1   115.1800491 558.982400
   1510   5921   5923     1   120.6900519 530.531200
   1511   5994   5996     1   120.6900519 530.531200
   1512   1510   5921     1   123.0500530 620.905600
   1513   1511   5994     1   123.0500530 620.905600
   1516   1519   1539     1   111.6100477 551.451200
   1516   1522   1523     1   112.3500484 533.878400
   1516   1522   1526     1   112.3500484 533.878400
   1519   1516   1522     1   111.0400475 552.288000
   1522   1523   1532     1   111.0400475 552.288000
   1522   1526   1529     1   111.0400475 552.288000
   1523   1522   1526     1   112.3500484 533.878400
   1523   1532   1536     1   111.0400475 529.694400
   1526   1529   1535     1   111.0400475 529.694400
   1529   1535   6067     1   115.1800491 558.982400
   1529   1535   1537     1   123.2000528 564.003200
   1532   1536   6140     1   115.1800491 558.982400
   1532   1536   1538     1   123.2000528 564.003200
   1535   6067   6069     1   120.6900519 530.531200
   1536   6140   6142     1   120.6900519 530.531200
   1537   1535   6067     1   123.0500530 620.905600
   1538   1536   6140     1   123.0500530 620.905600
   1541   1543   1545     1   111.6100477 551.451200
   1543   1545   1549     1   111.0400475 552.288000
   1545   1549   1550     1   112.3500484 533.878400
   1545   1549   1551     1   112.3500484 533.878400
   1549   1550   1561     1   111.0400475 552.288000
   1549   1551   1553     1   111.0400475 552.288000
   1550   1549   1551     1   112.3500484 533.878400
   1550   1561   1564     1   111.0400475 529.694400
   1551   1553   1557     1   111.0400475 529.694400
   1553   1557   1558     1   123.2000528 564.003200
   1553   1557   1589     1   112.2600482 538.062400
   1557   1589   1570     1   118.5150508 540.957728
   1558   1557   1589     1   118.8300510 581.576000
   1561   1564   1565     1   123.2000528 564.003200
   1561   1564   1613     1   112.2600482 538.062400
   1564   1613   1594     1   118.5150508 540.957728
   1565   1564   1613     1   118.8300510 581.576000
   1566   1567   1569     1   111.5100476 526.347200
   1566   1567   1587     1   110.1900474 564.840000
   1566   1577   1582     1   110.1900474 564.840000
   1566   1584   1571     1   112.4800480 524.673600
   1567   1566   1577     1   111.5100476 526.347200
   1567   1566   1584     1   107.9700462 569.024000
   1567   1569   1570     1   111.5100476 526.347200
   1567   1569   1576     1   110.1900474 564.840000
   1569   1567   1587     1   110.1900474 564.840000
   1569   1570   1571     1   111.5100476 526.347200
   1569   1570   1589     1   111.0400475 552.288000
   1570   1569   1576     1   110.1900474 564.840000
   1570   1571   1575     1   110.1900474 564.840000
   1570   1571   1584     1   107.9700462 569.024000
   1571   1570   1589     1   111.0400475 552.288000
   1575   1571   1584     1   109.3800466 607.516800
   1577   1566   1584     1   107.9700462 569.024000
   1590   1591   1593     1   111.5100476 526.347200
   1590   1591   1611     1   110.1900474 564.840000
   1590   1601   1606     1   110.1900474 564.840000
   1590   1608   1595     1   112.4800480 524.673600
   1591   1590   1601     1   111.5100476 526.347200
   1591   1590   1608     1   107.9700462 569.024000
   1591   1593   1594     1   111.5100476 526.347200
   1591   1593   1600     1   110.1900474 564.840000
   1593   1591   1611     1   110.1900474 564.840000
   1593   1594   1595     1   111.5100476 526.347200
   1593   1594   1613     1   111.0400475 552.288000
   1594   1593   1600     1   110.1900474 564.840000
   1594   1595   1599     1   110.1900474 564.840000
   1594   1595   1608     1   107.9700462 569.024000
   1595   1594   1613     1   111.0400475 552.288000
   1599   1595   1608     1   109.3800466 607.516800
   1601   1590   1608     1   107.9700462 569.024000
   1614   1616   1618     1   111.6100477 551.451200
   1616   1618   1622     1   111.0400475 552.288000
   1618   1622   1623     1   112.3500484 533.878400
   1618   1622   1624     1   112.3500484 533.878400
   1622   1623   1634     1   111.0400475 552.288000
   1622   1624   1626     1   111.0400475 552.288000
   1623   1634   1637     1   111.0400475 529.694400
   1623   1622   1624     1   112.3500484 533.878400
   1624   1626   1630     1   111.0400475 529.694400
   1626   1630   1631     1   123.2000528 564.003200
   1626   1630   1662     1   112.2600482 538.062400
   1630   1662   1643     1   118.5150508 540.957728
   1631   1630   1662     1   118.8300510 581.576000
   1634   1637   1638     1   123.2000528 564.003200
   1634   1637   1686     1   112.2600482 538.062400
   1637   1686   1667     1   118.5150508 540.957728
   1638   1637   1686     1   118.8300510 581.576000
   1639   1640   1642     1   111.5100476 526.347200
   1639   1640   1660     1   110.1900474 564.840000
   1639   1650   1655     1   110.1900474 564.840000
   1639   1657   1644     1   112.4800480 524.673600
   1640   1642   1643     1   111.5100476 526.347200
   1640   1642   1649     1   110.1900474 564.840000
   1640   1639   1650     1   111.5100476 526.347200
   1640   1639   1657     1   107.9700462 569.024000
   1642   1643   1644     1   111.5100476 526.347200
   1642   1643   1662     1   111.0400475 552.288000
   1642   1640   1660     1   110.1900474 564.840000
   1643   1644   1648     1   110.1900474 564.840000
   1643   1644   1657     1   107.9700462 569.024000
   1643   1642   1649     1   110.1900474 564.840000
   1644   1643   1662     1   111.0400475 552.288000
   1648   1644   1657     1   109.3800466 607.516800
   1650   1639   1657     1   107.9700462 569.024000
   1663   1664   1666     1   111.5100476 526.347200
   1663   1664   1684     1   110.1900474 564.840000
   1663   1674   1679     1   110.1900474 564.840000
   1663   1681   1668     1   112.4800480 524.673600
   1664   1666   1667     1   111.5100476 526.347200
   1664   1666   1673     1   110.1900474 564.840000
   1664   1663   1674     1   111.5100476 526.347200
   1664   1663   1681     1   107.9700462 569.024000
   1666   1667   1668     1   111.5100476 526.347200
   1666   1667   1686     1   111.0400475 552.288000
   1666   1664   1684     1   110.1900474 564.840000
   1667   1668   1672     1   110.1900474 564.840000
   1667   1668   1681     1   107.9700462 569.024000
   1667   1666   1673     1   110.1900474 564.840000
   1668   1667   1686     1   111.0400475 552.288000
   1672   1668   1681     1   109.3800466 607.516800
   1674   1663   1681     1   107.9700462 569.024000
   1687   1689   1691     1   111.6100477 551.451200
   1689   1691   1695     1   111.0400475 552.288000
   1691   1695   1696     1   112.3500484 533.878400
   1691   1695   1697     1   112.3500484 533.878400
   1695   1696   1707     1   111.0400475 552.288000
   1695   1697   1699     1   111.0400475 552.288000
   1696   1695   1697     1   112.3500484 533.878400
   1696   1707   1710     1   111.0400475 529.694400
   1697   1699   1703     1   111.0400475 529.694400
   1699   1703   1704     1   123.2000528 564.003200
   1699   1703   1735     1   112.2600482 538.062400
   1703   1735   1716     1   118.5150508 540.957728
   1704   1703   1735     1   118.8300510 581.576000
   1707   1710   1711     1   123.2000528 564.003200
   1707   1710   1759     1   112.2600482 538.062400
   1710   1759   1740     1   118.5150508 540.957728
   1711   1710   1759     1   118.8300510 581.576000
   1712   1713   1715     1   111.5100476 526.347200
   1712   1713   1733     1   110.1900474 564.840000
   1712   1723   1728     1   110.1900474 564.840000
   1712   1730   1717     1   112.4800480 524.673600
   1713   1712   1723     1   111.5100476 526.347200
   1713   1712   1730     1   107.9700462 569.024000
   1713   1715   1716     1   111.5100476 526.347200
   1713   1715   1722     1   110.1900474 564.840000
   1715   1713   1733     1   110.1900474 564.840000
   1715   1716   1717     1   111.5100476 526.347200
   1715   1716   1735     1   111.0400475 552.288000
   1716   1715   1722     1   110.1900474 564.840000
   1716   1717   1721     1   110.1900474 564.840000
   1716   1717   1730     1   107.9700462 569.024000
   1717   1716   1735     1   111.0400475 552.288000
   1721   1717   1730     1   109.3800466 607.516800
   1723   1712   1730     1   107.9700462 569.024000
   1736   1737   1739     1   111.5100476 526.347200
   1736   1737   1757     1   110.1900474 564.840000
   1736   1747   1752     1   110.1900474 564.840000
   1736   1754   1741     1   112.4800480 524.673600
   1737   1736   1747     1   111.5100476 526.347200
   1737   1736   1754     1   107.9700462 569.024000
   1737   1739   1740     1   111.5100476 526.347200
   1737   1739   1746     1   110.1900474 564.840000
   1739   1737   1757     1   110.1900474 564.840000
   1739   1740   1741     1   111.5100476 526.347200
   1739   1740   1759     1   111.0400475 552.288000
   1740   1739   1746     1   110.1900474 564.840000
   1740   1741   1745     1   110.1900474 564.840000
   1740   1741   1754     1   107.9700462 569.024000
   1741   1740   1759     1   111.0400475 552.288000
   1745   1741   1754     1   109.3800466 607.516800
   1747   1736   1754     1   107.9700462 569.024000
   1760   1762   1764     1   111.6100477 551.451200
   1762   1764   1768     1   111.0400475 552.288000
   1764   1768   1769     1   112.3500484 533.878400
   1764   1768   1770     1   112.3500484 533.878400
   1768   1769   1780     1   111.0400475 552.288000
   1768   1770   1772     1   111.0400475 552.288000
   1769   1780   1783     1   111.0400475 529.694400
   1769   1768   1770     1   112.3500484 533.878400
   1770   1772   1776     1   111.0400475 529.694400
   1772   1776   1777     1   123.2000528 564.003200
   1772   1776   1808     1   112.2600482 538.062400
   1776   1808   1789     1   118.5150508 540.957728
   1777   1776   1808     1   118.8300510 581.576000
   1780   1783   1784     1   123.2000528 564.003200
   1780   1783   1832     1   112.2600482 538.062400
   1783   1832   1813     1   118.5150508 540.957728
   1784   1783   1832     1   118.8300510 581.576000
   1785   1786   1788     1   111.5100476 526.347200
   1785   1786   1806     1   110.1900474 564.840000
   1785   1796   1801     1   110.1900474 564.840000
   1785   1803   1790     1   112.4800480 524.673600
   1786   1788   1789     1   111.5100476 526.347200
   1786   1788   1795     1   110.1900474 564.840000
   1786   1785   1796     1   111.5100476 526.347200
   1786   1785   1803     1   107.9700462 569.024000
   1788   1789   1790     1   111.5100476 526.347200
   1788   1789   1808     1   111.0400475 552.288000
   1788   1786   1806     1   110.1900474 564.840000
   1789   1790   1794     1   110.1900474 564.840000
   1789   1790   1803     1   107.9700462 569.024000
   1789   1788   1795     1   110.1900474 564.840000
   1790   1789   1808     1   111.0400475 552.288000
   1794   1790   1803     1   109.3800466 607.516800
   1796   1785   1803     1   107.9700462 569.024000
   1809   1810   1812     1   111.5100476 526.347200
   1809   1810   1830     1   110.1900474 564.840000
   1809   1820   1825     1   110.1900474 564.840000
   1809   1827   1814     1   112.4800480 524.673600
   1810   1812   1813     1   111.5100476 526.347200
   1810   1812   1819     1   110.1900474 564.840000
   1810   1809   1820     1   111.5100476 526.347200
   1810   1809   1827     1   107.9700462 569.024000
   1812   1813   1814     1   111.5100476 526.347200
   1812   1813   1832     1   111.0400475 552.288000
   1812   1810   1830     1   110.1900474 564.840000
   1813   1814   1818     1   110.1900474 564.840000
   1813   1814   1827     1   107.9700462 569.024000
   1813   1812   1819     1   110.1900474 564.840000
   1814   1813   1832     1   111.0400475 552.288000
   1818   1814   1827     1   109.3800466 607.516800
   1820   1809   1827     1   107.9700462 569.024000
   1833   1835   1837     1   111.6100477 551.451200
   1835   1837   1841     1   111.0400475 552.288000
   1837   1841   1842     1   112.3500484 533.878400
   1837   1841   1843     1   112.3500484 533.878400
   1841   1842   1853     1   111.0400475 552.288000
   1841   1843   1845     1   111.0400475 552.288000
   1842   1841   1843     1   112.3500484 533.878400
   1842   1853   1856     1   111.0400475 529.694400
   1843   1845   1849     1   111.0400475 529.694400
   1845   1849   1850     1   123.2000528 564.003200
   1845   1849   1881     1   112.2600482 538.062400
   1849   1881   1862     1   118.5150508 540.957728
   1850   1849   1881     1   118.8300510 581.576000
   1853   1856   1857     1   123.2000528 564.003200
   1853   1856   1905     1   112.2600482 538.062400
   1856   1905   1886     1   118.5150508 540.957728
   1857   1856   1905     1   118.8300510 581.576000
   1858   1859   1861     1   111.5100476 526.347200
   1858   1859   1879     1   110.1900474 564.840000
   1858   1869   1874     1   110.1900474 564.840000
   1858   1876   1863     1   112.4800480 524.673600
   1859   1858   1869     1   111.5100476 526.347200
   1859   1858   1876     1   107.9700462 569.024000
   1859   1861   1862     1   111.5100476 526.347200
   1859   1861   1868     1   110.1900474 564.840000
   1861   1859   1879     1   110.1900474 564.840000
   1861   1862   1863     1   111.5100476 526.347200
   1861   1862   1881     1   111.0400475 552.288000
   1862   1861   1868     1   110.1900474 564.840000
   1862   1863   1867     1   110.1900474 564.840000
   1862   1863   1876     1   107.9700462 569.024000
   1863   1862   1881     1   111.0400475 552.288000
   1867   1863   1876     1   109.3800466 607.516800
   1869   1858   1876     1   107.9700462 569.024000
   1882   1883   1885     1   111.5100476 526.347200
   1882   1883   1903     1   110.1900474 564.840000
   1882   1893   1898     1   110.1900474 564.840000
   1882   1900   1887     1   112.4800480 524.673600
   1883   1882   1893     1   111.5100476 526.347200
   1883   1882   1900     1   107.9700462 569.024000
   1883   1885   1886     1   111.5100476 526.347200
   1883   1885   1892     1   110.1900474 564.840000
   1885   1883   1903     1   110.1900474 564.840000
   1885   1886   1887     1   111.5100476 526.347200
   1885   1886   1905     1   111.0400475 552.288000
   1886   1885   1892     1   110.1900474 564.840000
   1886   1887   1891     1   110.1900474 564.840000
   1886   1887   1900     1   107.9700462 569.024000
   1887   1886   1905     1   111.0400475 552.288000
   1891   1887   1900     1   109.3800466 607.516800
   1893   1882   1900     1   107.9700462 569.024000
   1906   1908   1910     1   111.6100477 551.451200
   1908   1910   1914     1   111.0400475 552.288000
   1910   1914   1915     1   112.3500484 533.878400
   1910   1914   1916     1   112.3500484 533.878400
   1914   1915   1926     1   111.0400475 552.288000
   1914   1916   1918     1   111.0400475 552.288000
   1915   1926   1929     1   111.0400475 529.694400
   1915   1914   1916     1   112.3500484 533.878400
   1916   1918   1922     1   111.0400475 529.694400
   1918   1922   1923     1   123.2000528 564.003200
   1918   1922   1954     1   112.2600482 538.062400
   1922   1954   1935     1   118.5150508 540.957728
   1923   1922   1954     1   118.8300510 581.576000
   1926   1929   1930     1   123.2000528 564.003200
   1926   1929   1978     1   112.2600482 538.062400
   1929   1978   1959     1   118.5150508 540.957728
   1930   1929   1978     1   118.8300510 581.576000
   1931   1932   1934     1   111.5100476 526.347200
   1931   1932   1952     1   110.1900474 564.840000
   1931   1942   1947     1   110.1900474 564.840000
   1931   1949   1936     1   112.4800480 524.673600
   1932   1934   1935     1   111.5100476 526.347200
   1932   1934   1941     1   110.1900474 564.840000
   1932   1931   1942     1   111.5100476 526.347200
   1932   1931   1949     1   107.9700462 569.024000
   1934   1935   1936     1   111.5100476 526.347200
   1934   1935   1954     1   111.0400475 552.288000
   1934   1932   1952     1   110.1900474 564.840000
   1935   1936   1940     1   110.1900474 564.840000
   1935   1936   1949     1   107.9700462 569.024000
   1935   1934   1941     1   110.1900474 564.840000
   1936   1935   1954     1   111.0400475 552.288000
   1940   1936   1949     1   109.3800466 607.516800
   1942   1931   1949     1   107.9700462 569.024000
   1955   1956   1958     1   111.5100476 526.347200
   1955   1956   1976     1   110.1900474 564.840000
   1955   1966   1971     1   110.1900474 564.840000
   1955   1973   1960     1   112.4800480 524.673600
   1956   1958   1959     1   111.5100476 526.347200
   1956   1958   1965     1   110.1900474 564.840000
   1956   1955   1966     1   111.5100476 526.347200
   1956   1955   1973     1   107.9700462 569.024000
   1958   1959   1960     1   111.5100476 526.347200
   1958   1959   1978     1   111.0400475 552.288000
   1958   1956   1976     1   110.1900474 564.840000
   1959   1960   1964     1   110.1900474 564.840000
   1959   1960   1973     1   107.9700462 569.024000
   1959   1958   1965     1   110.1900474 564.840000
   1960   1959   1978     1   111.0400475 552.288000
   1964   1960   1973     1   109.3800466 607.516800
   1966   1955   1973     1   107.9700462 569.024000
   1979   1981   1983     1   111.6100477 551.451200
   1981   1983   1987     1   111.0400475 552.288000
   1983   1987   1988     1   112.3500484 533.878400
   1983   1987   1989     1   112.3500484 533.878400
   1987   1988   1999     1   111.0400475 552.288000
   1987   1989   1991     1   111.0400475 552.288000
   1988   1987   1989     1   112.3500484 533.878400
   1988   1999   2002     1   111.0400475 529.694400
   1989   1991   1995     1   111.0400475 529.694400
   1991   1995   1996     1   123.2000528 564.003200
   1991   1995   2027     1   112.2600482 538.062400
   1995   2027   2008     1   118.5150508 540.957728
   1996   1995   2027     1   118.8300510 581.576000
   1999   2002   2003     1   123.2000528 564.003200
   1999   2002   2051     1   112.2600482 538.062400
   2002   2051   2032     1   118.5150508 540.957728
   2003   2002   2051     1   118.8300510 581.576000
   2004   2005   2007     1   111.5100476 526.347200
   2004   2005   2025     1   110.1900474 564.840000
   2004   2015   2020     1   110.1900474 564.840000
   2004   2022   2009     1   112.4800480 524.673600
   2005   2004   2015     1   111.5100476 526.347200
   2005   2004   2022     1   107.9700462 569.024000
   2005   2007   2008     1   111.5100476 526.347200
   2005   2007   2014     1   110.1900474 564.840000
   2007   2005   2025     1   110.1900474 564.840000
   2007   2008   2009     1   111.5100476 526.347200
   2007   2008   2027     1   111.0400475 552.288000
   2008   2007   2014     1   110.1900474 564.840000
   2008   2009   2013     1   110.1900474 564.840000
   2008   2009   2022     1   107.9700462 569.024000
   2009   2008   2027     1   111.0400475 552.288000
   2013   2009   2022     1   109.3800466 607.516800
   2015   2004   2022     1   107.9700462 569.024000
   2028   2029   2031     1   111.5100476 526.347200
   2028   2029   2049     1   110.1900474 564.840000
   2028   2039   2044     1   110.1900474 564.840000
   2028   2046   2033     1   112.4800480 524.673600
   2029   2028   2039     1   111.5100476 526.347200
   2029   2028   2046     1   107.9700462 569.024000
   2029   2031   2032     1   111.5100476 526.347200
   2029   2031   2038     1   110.1900474 564.840000
   2031   2029   2049     1   110.1900474 564.840000
   2031   2032   2033     1   111.5100476 526.347200
   2031   2032   2051     1   111.0400475 552.288000
   2032   2031   2038     1   110.1900474 564.840000
   2032   2033   2037     1   110.1900474 564.840000
   2032   2033   2046     1   107.9700462 569.024000
   2033   2032   2051     1   111.0400475 552.288000
   2037   2033   2046     1   109.3800466 607.516800
   2039   2028   2046     1   107.9700462 569.024000
   2052   2054   2056     1   111.6100477 551.451200
   2054   2056   2060     1   111.0400475 552.288000
   2056   2060   2061     1   112.3500484 533.878400
   2056   2060   2062     1   112.3500484 533.878400
   2060   2061   2072     1   111.0400475 552.288000
   2060   2062   2064     1   111.0400475 552.288000
   2061   2072   2075     1   111.0400475 529.694400
   2061   2060   2062     1   112.3500484 533.878400
   2062   2064   2068     1   111.0400475 529.694400
   2064   2068   2069     1   123.2000528 564.003200
   2064   2068   2100     1   112.2600482 538.062400
   2068   2100   2081     1   118.5150508 540.957728
   2069   2068   2100     1   118.8300510 581.576000
   2072   2075   2076     1   123.2000528 564.003200
   2072   2075   2124     1   112.2600482 538.062400
   2075   2124   2105     1   118.5150508 540.957728
   2076   2075   2124     1   118.8300510 581.576000
   2077   2078   2080     1   111.5100476 526.347200
   2077   2078   2098     1   110.1900474 564.840000
   2077   2088   2093     1   110.1900474 564.840000
   2077   2095   2082     1   112.4800480 524.673600
   2078   2080   2081     1   111.5100476 526.347200
   2078   2080   2087     1   110.1900474 564.840000
   2078   2077   2088     1   111.5100476 526.347200
   2078   2077   2095     1   107.9700462 569.024000
   2080   2081   2082     1   111.5100476 526.347200
   2080   2081   2100     1   111.0400475 552.288000
   2080   2078   2098     1   110.1900474 564.840000
   2081   2082   2086     1   110.1900474 564.840000
   2081   2082   2095     1   107.9700462 569.024000
   2081   2080   2087     1   110.1900474 564.840000
   2082   2081   2100     1   111.0400475 552.288000
   2086   2082   2095     1   109.3800466 607.516800
   2088   2077   2095     1   107.9700462 569.024000
   2101   2102   2104     1   111.5100476 526.347200
   2101   2102   2122     1   110.1900474 564.840000
   2101   2112   2117     1   110.1900474 564.840000
   2101   2119   2106     1   112.4800480 524.673600
   2102   2104   2105     1   111.5100476 526.347200
   2102   2104   2111     1   110.1900474 564.840000
   2102   2101   2112     1   111.5100476 526.347200
   2102   2101   2119     1   107.9700462 569.024000
   2104   2105   2106     1   111.5100476 526.347200
   2104   2105   2124     1   111.0400475 552.288000
   2104   2102   2122     1   110.1900474 564.840000
   2105   2106   2110     1   110.1900474 564.840000
   2105   2106   2119     1   107.9700462 569.024000
   2105   2104   2111     1   110.1900474 564.840000
   2106   2105   2124     1   111.0400475 552.288000
   2110   2106   2119     1   109.3800466 607.516800
   2112   2101   2119     1   107.9700462 569.024000
   2125   2127   2129     1   111.6100477 551.451200
   2127   2129   2133     1   111.0400475 552.288000
   2129   2133   2134     1   112.3500484 533.878400
   2129   2133   2135     1   112.3500484 533.878400
   2133   2134   2145     1   111.0400475 552.288000
   2133   2135   2137     1   111.0400475 552.288000
   2134   2133   2135     1   112.3500484 533.878400
   2134   2145   2148     1   111.0400475 529.694400
   2135   2137   2141     1   111.0400475 529.694400
   2137   2141   2142     1   123.2000528 564.003200
   2137   2141   2173     1   112.2600482 538.062400
   2141   2173   2154     1   118.5150508 540.957728
   2142   2141   2173     1   118.8300510 581.576000
   2145   2148   2149     1   123.2000528 564.003200
   2145   2148   2197     1   112.2600482 538.062400
   2148   2197   2178     1   118.5150508 540.957728
   2149   2148   2197     1   118.8300510 581.576000
   2150   2151   2153     1   111.5100476 526.347200
   2150   2151   2171     1   110.1900474 564.840000
   2150   2161   2166     1   110.1900474 564.840000
   2150   2168   2155     1   112.4800480 524.673600
   2151   2150   2161     1   111.5100476 526.347200
   2151   2150   2168     1   107.9700462 569.024000
   2151   2153   2154     1   111.5100476 526.347200
   2151   2153   2160     1   110.1900474 564.840000
   2153   2151   2171     1   110.1900474 564.840000
   2153   2154   2155     1   111.5100476 526.347200
   2153   2154   2173     1   111.0400475 552.288000
   2154   2153   2160     1   110.1900474 564.840000
   2154   2155   2159     1   110.1900474 564.840000
   2154   2155   2168     1   107.9700462 569.024000
   2155   2154   2173     1   111.0400475 552.288000
   2159   2155   2168     1   109.3800466 607.516800
   2161   2150   2168     1   107.9700462 569.024000
   2174   2175   2177     1   111.5100476 526.347200
   2174   2175   2195     1   110.1900474 564.840000
   2174   2185   2190     1   110.1900474 564.840000
   2174   2192   2179     1   112.4800480 524.673600
   2175   2174   2185     1   111.5100476 526.347200
   2175   2174   2192     1   107.9700462 569.024000
   2175   2177   2178     1   111.5100476 526.347200
   2175   2177   2184     1   110.1900474 564.840000
   2177   2175   2195     1   110.1900474 564.840000
   2177   2178   2179     1   111.5100476 526.347200
   2177   2178   2197     1   111.0400475 552.288000
   2178   2177   2184     1   110.1900474 564.840000
   2178   2179   2183     1   110.1900474 564.840000
   2178   2179   2192     1   107.9700462 569.024000
   2179   2178   2197     1   111.0400475 552.288000
   2183   2179   2192     1   109.3800466 607.516800
   2185   2174   2192     1   107.9700462 569.024000
   2198   2200   2202     1   111.6100477 551.451200
   2200   2202   2206     1   111.0400475 552.288000
   2202   2206   2207     1   112.3500484 533.878400
   2202   2206   2208     1   112.3500484 533.878400
   2206   2207   2218     1   111.0400475 552.288000
   2206   2208   2210     1   111.0400475 552.288000
   2207   2218   2221     1   111.0400475 529.694400
   2207   2206   2208     1   112.3500484 533.878400
   2208   2210   2214     1   111.0400475 529.694400
   2210   2214   2215     1   123.2000528 564.003200
   2210   2214   2246     1   112.2600482 538.062400
   2214   2246   2227     1   118.5150508 540.957728
   2215   2214   2246     1   118.8300510 581.576000
   2218   2221   2222     1   123.2000528 564.003200
   2218   2221   2270     1   112.2600482 538.062400
   2221   2270   2251     1   118.5150508 540.957728
   2222   2221   2270     1   118.8300510 581.576000
   2223   2224   2226     1   111.5100476 526.347200
   2223   2224   2244     1   110.1900474 564.840000
   2223   2234   2239     1   110.1900474 564.840000
   2223   2241   2228     1   112.4800480 524.673600
   2224   2226   2227     1   111.5100476 526.347200
   2224   2226   2233     1   110.1900474 564.840000
   2224   2223   2234     1   111.5100476 526.347200
   2224   2223   2241     1   107.9700462 569.024000
   2226   2227   2228     1   111.5100476 526.347200
   2226   2227   2246     1   111.0400475 552.288000
   2226   2224   2244     1   110.1900474 564.840000
   2227   2228   2232     1   110.1900474 564.840000
   2227   2228   2241     1   107.9700462 569.024000
   2227   2226   2233     1   110.1900474 564.840000
   2228   2227   2246     1   111.0400475 552.288000
   2232   2228   2241     1   109.3800466 607.516800
   2234   2223   2241     1   107.9700462 569.024000
   2247   2248   2250     1   111.5100476 526.347200
   2247   2248   2268     1   110.1900474 564.840000
   2247   2258   2263     1   110.1900474 564.840000
   2247   2265   2252     1   112.4800480 524.673600
   2248   2250   2251     1   111.5100476 526.347200
   2248   2250   2257     1   110.1900474 564.840000
   2248   2247   2258     1   111.5100476 526.347200
   2248   2247   2265     1   107.9700462 569.024000
   2250   2251   2252     1   111.5100476 526.347200
   2250   2251   2270     1   111.0400475 552.288000
   2250   2248   2268     1   110.1900474 564.840000
   2251   2252   2256     1   110.1900474 564.840000
   2251   2252   2265     1   107.9700462 569.024000
   2251   2250   2257     1   110.1900474 564.840000
   2252   2251   2270     1   111.0400475 552.288000
   2256   2252   2265     1   109.3800466 607.516800
   2258   2247   2265     1   107.9700462 569.024000
   2271   2273   2275     1   111.6100477 551.451200
   2273   2275   2279     1   111.0400475 552.288000
   2275   2279   2280     1   112.3500484 533.878400
   2275   2279   2281     1   112.3500484 533.878400
   2279   2280   2291     1   111.0400475 552.288000
   2279   2281   2283     1   111.0400475 552.288000
   2280   2279   2281     1   112.3500484 533.878400
   2280   2291   2294     1   111.0400475 529.694400
   2281   2283   2287     1   111.0400475 529.694400
   2283   2287   2288     1   123.2000528 564.003200
   2283   2287   2319     1   112.2600482 538.062400
   2287   2319   2300     1   118.5150508 540.957728
   2288   2287   2319     1   118.8300510 581.576000
   2291   2294   2295     1   123.2000528 564.003200
   2291   2294   2343     1   112.2600482 538.062400
   2294   2343   2324     1   118.5150508 540.957728
   2295   2294   2343     1   118.8300510 581.576000
   2296   2297   2299     1   111.5100476 526.347200
   2296   2297   2317     1   110.1900474 564.840000
   2296   2307   2312     1   110.1900474 564.840000
   2296   2314   2301     1   112.4800480 524.673600
   2297   2296   2307     1   111.5100476 526.347200
   2297   2296   2314     1   107.9700462 569.024000
   2297   2299   2300     1   111.5100476 526.347200
   2297   2299   2306     1   110.1900474 564.840000
   2299   2297   2317     1   110.1900474 564.840000
   2299   2300   2301     1   111.5100476 526.347200
   2299   2300   2319     1   111.0400475 552.288000
   2300   2299   2306     1   110.1900474 564.840000
   2300   2301   2305     1   110.1900474 564.840000
   2300   2301   2314     1   107.9700462 569.024000
   2301   2300   2319     1   111.0400475 552.288000
   2305   2301   2314     1   109.3800466 607.516800
   2307   2296   2314     1   107.9700462 569.024000
   2320   2321   2323     1   111.5100476 526.347200
   2320   2321   2341     1   110.1900474 564.840000
   2320   2331   2336     1   110.1900474 564.840000
   2320   2338   2325     1   112.4800480 524.673600
   2321   2320   2331     1   111.5100476 526.347200
   2321   2320   2338     1   107.9700462 569.024000
   2321   2323   2324     1   111.5100476 526.347200
   2321   2323   2330     1   110.1900474 564.840000
   2323   2321   2341     1   110.1900474 564.840000
   2323   2324   2325     1   111.5100476 526.347200
   2323   2324   2343     1   111.0400475 552.288000
   2324   2323   2330     1   110.1900474 564.840000
   2324   2325   2329     1   110.1900474 564.840000
   2324   2325   2338     1   107.9700462 569.024000
   2325   2324   2343     1   111.0400475 552.288000
   2329   2325   2338     1   109.3800466 607.516800
   2331   2320   2338     1   107.9700462 569.024000
   2344   2346   2348     1   111.6100477 551.451200
   2346   2348   2352     1   111.0400475 552.288000
   2348   2352   2353     1   112.3500484 533.878400
   2348   2352   2354     1   112.3500484 533.878400
   2352   2353   2364     1   111.0400475 552.288000
   2352   2354   2356     1   111.0400475 552.288000
   2353   2364   2367     1   111.0400475 529.694400
   2353   2352   2354     1   112.3500484 533.878400
   2354   2356   2360     1   111.0400475 529.694400
   2356   2360   2361     1   123.2000528 564.003200
   2356   2360   2392     1   112.2600482 538.062400
   2360   2392   2373     1   118.5150508 540.957728
   2361   2360   2392     1   118.8300510 581.576000
   2364   2367   2368     1   123.2000528 564.003200
   2364   2367   2416     1   112.2600482 538.062400
   2367   2416   2397     1   118.5150508 540.957728
   2368   2367   2416     1   118.8300510 581.576000
   2369   2370   2372     1   111.5100476 526.347200
   2369   2370   2390     1   110.1900474 564.840000
   2369   2380   2385     1   110.1900474 564.840000
   2369   2387   2374     1   112.4800480 524.673600
   2370   2372   2373     1   111.5100476 526.347200
   2370   2372   2379     1   110.1900474 564.840000
   2370   2369   2380     1   111.5100476 526.347200
   2370   2369   2387     1   107.9700462 569.024000
   2372   2373   2374     1   111.5100476 526.347200
   2372   2373   2392     1   111.0400475 552.288000
   2372   2370   2390     1   110.1900474 564.840000
   2373   2374   2378     1   110.1900474 564.840000
   2373   2374   2387     1   107.9700462 569.024000
   2373   2372   2379     1   110.1900474 564.840000
   2374   2373   2392     1   111.0400475 552.288000
   2378   2374   2387     1   109.3800466 607.516800
   2380   2369   2387     1   107.9700462 569.024000
   2393   2394   2396     1   111.5100476 526.347200
   2393   2394   2414     1   110.1900474 564.840000
   2393   2404   2409     1   110.1900474 564.840000
   2393   2411   2398     1   112.4800480 524.673600
   2394   2396   2397     1   111.5100476 526.347200
   2394   2396   2403     1   110.1900474 564.840000
   2394   2393   2404     1   111.5100476 526.347200
   2394   2393   2411     1   107.9700462 569.024000
   2396   2397   2398     1   111.5100476 526.347200
   2396   2397   2416     1   111.0400475 552.288000
   2396   2394   2414     1   110.1900474 564.840000
   2397   2398   2402     1   110.1900474 564.840000
   2397   2398   2411     1   107.9700462 569.024000
   2397   2396   2403     1   110.1900474 564.840000
   2398   2397   2416     1   111.0400475 552.288000
   2402   2398   2411     1   109.3800466 607.516800
   2404   2393   2411     1   107.9700462 569.024000
   2417   2419   2421     1   111.6100477 551.451200
   2419   2421   2425     1   111.0400475 552.288000
   2421   2425   2426     1   112.3500484 533.878400
   2421   2425   2427     1   112.3500484 533.878400
   2425   2426   2437     1   111.0400475 552.288000
   2425   2427   2429     1   111.0400475 552.288000
   2426   2425   2427     1   112.3500484 533.878400
   2426   2437   2440     1   111.0400475 529.694400
   2427   2429   2433     1   111.0400475 529.694400
   2429   2433   2434     1   123.2000528 564.003200
   2429   2433   2465     1   112.2600482 538.062400
   2433   2465   2446     1   118.5150508 540.957728
   2434   2433   2465     1   118.8300510 581.576000
   2437   2440   2441     1   123.2000528 564.003200
   2437   2440   2489     1   112.2600482 538.062400
   2440   2489   2470     1   118.5150508 540.957728
   2441   2440   2489     1   118.8300510 581.576000
   2442   2443   2445     1   111.5100476 526.347200
   2442   2443   2463     1   110.1900474 564.840000
   2442   2453   2458     1   110.1900474 564.840000
   2442   2460   2447     1   112.4800480 524.673600
   2443   2442   2453     1   111.5100476 526.347200
   2443   2442   2460     1   107.9700462 569.024000
   2443   2445   2446     1   111.5100476 526.347200
   2443   2445   2452     1   110.1900474 564.840000
   2445   2443   2463     1   110.1900474 564.840000
   2445   2446   2447     1   111.5100476 526.347200
   2445   2446   2465     1   111.0400475 552.288000
   2446   2445   2452     1   110.1900474 564.840000
   2446   2447   2451     1   110.1900474 564.840000
   2446   2447   2460     1   107.9700462 569.024000
   2447   2446   2465     1   111.0400475 552.288000
   2451   2447   2460     1   109.3800466 607.516800
   2453   2442   2460     1   107.9700462 569.024000
   2466   2467   2469     1   111.5100476 526.347200
   2466   2467   2487     1   110.1900474 564.840000
   2466   2477   2482     1   110.1900474 564.840000
   2466   2484   2471     1   112.4800480 524.673600
   2467   2466   2477     1   111.5100476 526.347200
   2467   2466   2484     1   107.9700462 569.024000
   2467   2469   2470     1   111.5100476 526.347200
   2467   2469   2476     1   110.1900474 564.840000
   2469   2467   2487     1   110.1900474 564.840000
   2469   2470   2471     1   111.5100476 526.347200
   2469   2470   2489     1   111.0400475 552.288000
   2470   2469   2476     1   110.1900474 564.840000
   2470   2471   2475     1   110.1900474 564.840000
   2470   2471   2484     1   107.9700462 569.024000
   2471   2470   2489     1   111.0400475 552.288000
   2475   2471   2484     1   109.3800466 607.516800
   2477   2466   2484     1   107.9700462 569.024000
   2490   2492   2494     1   111.6100477 551.451200
   2492   2494   2498     1   111.0400475 552.288000
   2494   2498   2499     1   112.3500484 533.878400
   2494   2498   2500     1   112.3500484 533.878400
   2498   2499   2510     1   111.0400475 552.288000
   2498   2500   2502     1   111.0400475 552.288000
   2499   2510   2513     1   111.0400475 529.694400
   2499   2498   2500     1   112.3500484 533.878400
   2500   2502   2506     1   111.0400475 529.694400
   2502   2506   2507     1   123.2000528 564.003200
   2502   2506   2538     1   112.2600482 538.062400
   2506   2538   2519     1   118.5150508 540.957728
   2507   2506   2538     1   118.8300510 581.576000
   2510   2513   2514     1   123.2000528 564.003200
   2510   2513   2562     1   112.2600482 538.062400
   2513   2562   2543     1   118.5150508 540.957728
   2514   2513   2562     1   118.8300510 581.576000
   2515   2516   2518     1   111.5100476 526.347200
   2515   2516   2536     1   110.1900474 564.840000
   2515   2526   2531     1   110.1900474 564.840000
   2515   2533   2520     1   112.4800480 524.673600
   2516   2518   2519     1   111.5100476 526.347200
   2516   2518   2525     1   110.1900474 564.840000
   2516   2515   2526     1   111.5100476 526.347200
   2516   2515   2533     1   107.9700462 569.024000
   2518   2519   2520     1   111.5100476 526.347200
   2518   2519   2538     1   111.0400475 552.288000
   2518   2516   2536     1   110.1900474 564.840000
   2519   2520   2524     1   110.1900474 564.840000
   2519   2520   2533     1   107.9700462 569.024000
   2519   2518   2525     1   110.1900474 564.840000
   2520   2519   2538     1   111.0400475 552.288000
   2524   2520   2533     1   109.3800466 607.516800
   2526   2515   2533     1   107.9700462 569.024000
   2539   2540   2542     1   111.5100476 526.347200
   2539   2540   2560     1   110.1900474 564.840000
   2539   2550   2555     1   110.1900474 564.840000
   2539   2557   2544     1   112.4800480 524.673600
   2540   2542   2543     1   111.5100476 526.347200
   2540   2542   2549     1   110.1900474 564.840000
   2540   2539   2550     1   111.5100476 526.347200
   2540   2539   2557     1   107.9700462 569.024000
   2542   2543   2544     1   111.5100476 526.347200
   2542   2543   2562     1   111.0400475 552.288000
   2542   2540   2560     1   110.1900474 564.840000
   2543   2544   2548     1   110.1900474 564.840000
   2543   2544   2557     1   107.9700462 569.024000
   2543   2542   2549     1   110.1900474 564.840000
   2544   2543   2562     1   111.0400475 552.288000
   2548   2544   2557     1   109.3800466 607.516800
   2550   2539   2557     1   107.9700462 569.024000
   2563   2565   2567     1   111.6100477 551.451200
   2565   2567   2571     1   111.0400475 552.288000
   2567   2571   2572     1   112.3500484 533.878400
   2567   2571   2573     1   112.3500484 533.878400
   2571   2572   2583     1   111.0400475 552.288000
   2571   2573   2575     1   111.0400475 552.288000
   2572   2571   2573     1   112.3500484 533.878400
   2572   2583   2586     1   111.0400475 529.694400
   2573   2575   2579     1   111.0400475 529.694400
   2575   2579   2580     1   123.2000528 564.003200
   2575   2579   2611     1   112.2600482 538.062400
   2579   2611   2592     1   118.5150508 540.957728
   2580   2579   2611     1   118.8300510 581.576000
   2583   2586   2587     1   123.2000528 564.003200
   2583   2586   2635     1   112.2600482 538.062400
   2586   2635   2616     1   118.5150508 540.957728
   2587   2586   2635     1   118.8300510 581.576000
   2588   2589   2591     1   111.5100476 526.347200
   2588   2589   2609     1   110.1900474 564.840000
   2588   2599   2604     1   110.1900474 564.840000
   2588   2606   2593     1   112.4800480 524.673600
   2589   2588   2599     1   111.5100476 526.347200
   2589   2588   2606     1   107.9700462 569.024000
   2589   2591   2592     1   111.5100476 526.347200
   2589   2591   2598     1   110.1900474 564.840000
   2591   2589   2609     1   110.1900474 564.840000
   2591   2592   2593     1   111.5100476 526.347200
   2591   2592   2611     1   111.0400475 552.288000
   2592   2591   2598     1   110.1900474 564.840000
   2592   2593   2597     1   110.1900474 564.840000
   2592   2593   2606     1   107.9700462 569.024000
   2593   2592   2611     1   111.0400475 552.288000
   2597   2593   2606     1   109.3800466 607.516800
   2599   2588   2606     1   107.9700462 569.024000
   2612   2613   2615     1   111.5100476 526.347200
   2612   2613   2633     1   110.1900474 564.840000
   2612   2623   2628     1   110.1900474 564.840000
   2612   2630   2617     1   112.4800480 524.673600
   2613   2612   2623     1   111.5100476 526.347200
   2613   2612   2630     1   107.9700462 569.024000
   2613   2615   2616     1   111.5100476 526.347200
   2613   2615   2622     1   110.1900474 564.840000
   2615   2613   2633     1   110.1900474 564.840000
   2615   2616   2617     1   111.5100476 526.347200
   2615   2616   2635     1   111.0400475 552.288000
   2616   2615   2622     1   110.1900474 564.840000
   2616   2617   2621     1   110.1900474 564.840000
   2616   2617   2630     1   107.9700462 569.024000
   2617   2616   2635     1   111.0400475 552.288000
   2621   2617   2630     1   109.3800466 607.516800
   2623   2612   2630     1   107.9700462 569.024000
   2636   2638   2640     1   111.6100477 551.451200
   2638   2640   2644     1   111.0400475 552.288000
   2640   2644   2645     1   112.3500484 533.878400
   2640   2644   2646     1   112.3500484 533.878400
   2644   2645   2656     1   111.0400475 552.288000
   2644   2646   2648     1   111.0400475 552.288000
   2645   2656   2659     1   111.0400475 529.694400
   2645   2644   2646     1   112.3500484 533.878400
   2646   2648   2652     1   111.0400475 529.694400
   2648   2652   2653     1   123.2000528 564.003200
   2648   2652   2684     1   112.2600482 538.062400
   2652   2684   2665     1   118.5150508 540.957728
   2653   2652   2684     1   118.8300510 581.576000
   2656   2659   2660     1   123.2000528 564.003200
   2656   2659   2708     1   112.2600482 538.062400
   2659   2708   2689     1   118.5150508 540.957728
   2660   2659   2708     1   118.8300510 581.576000
   2661   2662   2664     1   111.5100476 526.347200
   2661   2662   2682     1   110.1900474 564.840000
   2661   2672   2677     1   110.1900474 564.840000
   2661   2679   2666     1   112.4800480 524.673600
   2662   2664   2665     1   111.5100476 526.347200
   2662   2664   2671     1   110.1900474 564.840000
   2662   2661   2672     1   111.5100476 526.347200
   2662   2661   2679     1   107.9700462 569.024000
   2664   2665   2666     1   111.5100476 526.347200
   2664   2665   2684     1   111.0400475 552.288000
   2664   2662   2682     1   110.1900474 564.840000
   2665   2666   2670     1   110.1900474 564.840000
   2665   2666   2679     1   107.9700462 569.024000
   2665   2664   2671     1   110.1900474 564.840000
   2666   2665   2684     1   111.0400475 552.288000
   2670   2666   2679     1   109.3800466 607.516800
   2672   2661   2679     1   107.9700462 569.024000
   2685   2686   2688     1   111.5100476 526.347200
   2685   2686   2706     1   110.1900474 564.840000
   2685   2696   2701     1   110.1900474 564.840000
   2685   2703   2690     1   112.4800480 524.673600
   2686   2688   2689     1   111.5100476 526.347200
   2686   2688   2695     1   110.1900474 564.840000
   2686   2685   2696     1   111.5100476 526.347200
   2686   2685   2703     1   107.9700462 569.024000
   2688   2689   2690     1   111.5100476 526.347200
   2688   2689   2708     1   111.0400475 552.288000
   2688   2686   2706     1   110.1900474 564.840000
   2689   2690   2694     1   110.1900474 564.840000
   2689   2690   2703     1   107.9700462 569.024000
   2689   2688   2695     1   110.1900474 564.840000
   2690   2689   2708     1   111.0400475 552.288000
   2694   2690   2703     1   109.3800466 607.516800
   2696   2685   2703     1   107.9700462 569.024000
   2709   2711   2713     1   111.6100477 551.451200
   2711   2713   2717     1   111.0400475 552.288000
   2713   2717   2718     1   112.3500484 533.878400
   2713   2717   2719     1   112.3500484 533.878400
   2717   2718   2729     1   111.0400475 552.288000
   2717   2719   2721     1   111.0400475 552.288000
   2718   2717   2719     1   112.3500484 533.878400
   2718   2729   2732     1   111.0400475 529.694400
   2719   2721   2725     1   111.0400475 529.694400
   2721   2725   2726     1   123.2000528 564.003200
   2721   2725   2757     1   112.2600482 538.062400
   2725   2757   2738     1   118.5150508 540.957728
   2726   2725   2757     1   118.8300510 581.576000
   2729   2732   2733     1   123.2000528 564.003200
   2729   2732   2781     1   112.2600482 538.062400
   2732   2781   2762     1   118.5150508 540.957728
   2733   2732   2781     1   118.8300510 581.576000
   2734   2735   2737     1   111.5100476 526.347200
   2734   2735   2755     1   110.1900474 564.840000
   2734   2745   2750     1   110.1900474 564.840000
   2734   2752   2739     1   112.4800480 524.673600
   2735   2734   2745     1   111.5100476 526.347200
   2735   2734   2752     1   107.9700462 569.024000
   2735   2737   2738     1   111.5100476 526.347200
   2735   2737   2744     1   110.1900474 564.840000
   2737   2735   2755     1   110.1900474 564.840000
   2737   2738   2739     1   111.5100476 526.347200
   2737   2738   2757     1   111.0400475 552.288000
   2738   2737   2744     1   110.1900474 564.840000
   2738   2739   2743     1   110.1900474 564.840000
   2738   2739   2752     1   107.9700462 569.024000
   2739   2738   2757     1   111.0400475 552.288000
   2743   2739   2752     1   109.3800466 607.516800
   2745   2734   2752     1   107.9700462 569.024000
   2758   2759   2761     1   111.5100476 526.347200
   2758   2759   2779     1   110.1900474 564.840000
   2758   2769   2774     1   110.1900474 564.840000
   2758   2776   2763     1   112.4800480 524.673600
   2759   2758   2769     1   111.5100476 526.347200
   2759   2758   2776     1   107.9700462 569.024000
   2759   2761   2762     1   111.5100476 526.347200
   2759   2761   2768     1   110.1900474 564.840000
   2761   2759   2779     1   110.1900474 564.840000
   2761   2762   2763     1   111.5100476 526.347200
   2761   2762   2781     1   111.0400475 552.288000
   2762   2761   2768     1   110.1900474 564.840000
   2762   2763   2767     1   110.1900474 564.840000
   2762   2763   2776     1   107.9700462 569.024000
   2763   2762   2781     1   111.0400475 552.288000
   2767   2763   2776     1   109.3800466 607.516800
   2769   2758   2776     1   107.9700462 569.024000
   2782   2784   2786     1   111.6100477 551.451200
   2784   2786   2790     1   111.0400475 552.288000
   2786   2790   2791     1   112.3500484 533.878400
   2786   2790   2792     1   112.3500484 533.878400
   2790   2791   2802     1   111.0400475 552.288000
   2790   2792   2794     1   111.0400475 552.288000
   2791   2802   2805     1   111.0400475 529.694400
   2791   2790   2792     1   112.3500484 533.878400
   2792   2794   2798     1   111.0400475 529.694400
   2794   2798   2799     1   123.2000528 564.003200
   2794   2798   2830     1   112.2600482 538.062400
   2798   2830   2811     1   118.5150508 540.957728
   2799   2798   2830     1   118.8300510 581.576000
   2802   2805   2806     1   123.2000528 564.003200
   2802   2805   2854     1   112.2600482 538.062400
   2805   2854   2835     1   118.5150508 540.957728
   2806   2805   2854     1   118.8300510 581.576000
   2807   2808   2810     1   111.5100476 526.347200
   2807   2808   2828     1   110.1900474 564.840000
   2807   2818   2823     1   110.1900474 564.840000
   2807   2825   2812     1   112.4800480 524.673600
   2808   2810   2811     1   111.5100476 526.347200
   2808   2810   2817     1   110.1900474 564.840000
   2808   2807   2818     1   111.5100476 526.347200
   2808   2807   2825     1   107.9700462 569.024000
   2810   2811   2812     1   111.5100476 526.347200
   2810   2811   2830     1   111.0400475 552.288000
   2810   2808   2828     1   110.1900474 564.840000
   2811   2812   2816     1   110.1900474 564.840000
   2811   2812   2825     1   107.9700462 569.024000
   2811   2810   2817     1   110.1900474 564.840000
   2812   2811   2830     1   111.0400475 552.288000
   2816   2812   2825     1   109.3800466 607.516800
   2818   2807   2825     1   107.9700462 569.024000
   2831   2832   2834     1   111.5100476 526.347200
   2831   2832   2852     1   110.1900474 564.840000
   2831   2842   2847     1   110.1900474 564.840000
   2831   2849   2836     1   112.4800480 524.673600
   2832   2834   2835     1   111.5100476 526.347200
   2832   2834   2841     1   110.1900474 564.840000
   2832   2831   2842     1   111.5100476 526.347200
   2832   2831   2849     1   107.9700462 569.024000
   2834   2835   2836     1   111.5100476 526.347200
   2834   2835   2854     1   111.0400475 552.288000
   2834   2832   2852     1   110.1900474 564.840000
   2835   2836   2840     1   110.1900474 564.840000
   2835   2836   2849     1   107.9700462 569.024000
   2835   2834   2841     1   110.1900474 564.840000
   2836   2835   2854     1   111.0400475 552.288000
   2840   2836   2849     1   109.3800466 607.516800
   2842   2831   2849     1   107.9700462 569.024000
   2855   2857   2859     1   111.6100477 551.451200
   2857   2859   2863     1   111.0400475 552.288000
   2859   2863   2864     1   112.3500484 533.878400
   2859   2863   2865     1   112.3500484 533.878400
   2863   2864   2875     1   111.0400475 552.288000
   2863   2865   2867     1   111.0400475 552.288000
   2864   2863   2865     1   112.3500484 533.878400
   2864   2875   2878     1   111.0400475 529.694400
   2865   2867   2871     1   111.0400475 529.694400
   2867   2871   2872     1   123.2000528 564.003200
   2867   2871   2903     1   112.2600482 538.062400
   2871   2903   2884     1   118.5150508 540.957728
   2872   2871   2903     1   118.8300510 581.576000
   2875   2878   2879     1   123.2000528 564.003200
   2875   2878   2927     1   112.2600482 538.062400
   2878   2927   2908     1   118.5150508 540.957728
   2879   2878   2927     1   118.8300510 581.576000
   2880   2881   2883     1   111.5100476 526.347200
   2880   2881   2901     1   110.1900474 564.840000
   2880   2891   2896     1   110.1900474 564.840000
   2880   2898   2885     1   112.4800480 524.673600
   2881   2880   2891     1   111.5100476 526.347200
   2881   2880   2898     1   107.9700462 569.024000
   2881   2883   2884     1   111.5100476 526.347200
   2881   2883   2890     1   110.1900474 564.840000
   2883   2881   2901     1   110.1900474 564.840000
   2883   2884   2885     1   111.5100476 526.347200
   2883   2884   2903     1   111.0400475 552.288000
   2884   2883   2890     1   110.1900474 564.840000
   2884   2885   2889     1   110.1900474 564.840000
   2884   2885   2898     1   107.9700462 569.024000
   2885   2884   2903     1   111.0400475 552.288000
   2889   2885   2898     1   109.3800466 607.516800
   2891   2880   2898     1   107.9700462 569.024000
   2904   2905   2907     1   111.5100476 526.347200
   2904   2905   2925     1   110.1900474 564.840000
   2904   2915   2920     1   110.1900474 564.840000
   2904   2922   2909     1   112.4800480 524.673600
   2905   2904   2915     1   111.5100476 526.347200
   2905   2904   2922     1   107.9700462 569.024000
   2905   2907   2908     1   111.5100476 526.347200
   2905   2907   2914     1   110.1900474 564.840000
   2907   2905   2925     1   110.1900474 564.840000
   2907   2908   2909     1   111.5100476 526.347200
   2907   2908   2927     1   111.0400475 552.288000
   2908   2907   2914     1   110.1900474 564.840000
   2908   2909   2913     1   110.1900474 564.840000
   2908   2909   2922     1   107.9700462 569.024000
   2909   2908   2927     1   111.0400475 552.288000
   2913   2909   2922     1   109.3800466 607.516800
   2915   2904   2922     1   107.9700462 569.024000
   2928   2930   2932     1   111.6100477 551.451200
   2930   2932   2936     1   111.0400475 552.288000
   2932   2936   2937     1   112.3500484 533.878400
   2932   2936   2938     1   112.3500484 533.878400
   2936   2937   2948     1   111.0400475 552.288000
   2936   2938   2940     1   111.0400475 552.288000
   2937   2948   2951     1   111.0400475 529.694400
   2937   2936   2938     1   112.3500484 533.878400
   2938   2940   2944     1   111.0400475 529.694400
   2940   2944   2945     1   123.2000528 564.003200
   2940   2944   2976     1   112.2600482 538.062400
   2944   2976   2957     1   118.5150508 540.957728
   2945   2944   2976     1   118.8300510 581.576000
   2948   2951   2952     1   123.2000528 564.003200
   2948   2951   3000     1   112.2600482 538.062400
   2951   3000   2981     1   118.5150508 540.957728
   2952   2951   3000     1   118.8300510 581.576000
   2953   2954   2956     1   111.5100476 526.347200
   2953   2954   2974     1   110.1900474 564.840000
   2953   2964   2969     1   110.1900474 564.840000
   2953   2971   2958     1   112.4800480 524.673600
   2954   2956   2957     1   111.5100476 526.347200
   2954   2956   2963     1   110.1900474 564.840000
   2954   2953   2964     1   111.5100476 526.347200
   2954   2953   2971     1   107.9700462 569.024000
   2956   2957   2958     1   111.5100476 526.347200
   2956   2957   2976     1   111.0400475 552.288000
   2956   2954   2974     1   110.1900474 564.840000
   2957   2958   2962     1   110.1900474 564.840000
   2957   2958   2971     1   107.9700462 569.024000
   2957   2956   2963     1   110.1900474 564.840000
   2958   2957   2976     1   111.0400475 552.288000
   2962   2958   2971     1   109.3800466 607.516800
   2964   2953   2971     1   107.9700462 569.024000
   2977   2978   2980     1   111.5100476 526.347200
   2977   2978   2998     1   110.1900474 564.840000
   2977   2988   2993     1   110.1900474 564.840000
   2977   2995   2982     1   112.4800480 524.673600
   2978   2980   2981     1   111.5100476 526.347200
   2978   2980   2987     1   110.1900474 564.840000
   2978   2977   2988     1   111.5100476 526.347200
   2978   2977   2995     1   107.9700462 569.024000
   2980   2981   2982     1   111.5100476 526.347200
   2980   2981   3000     1   111.0400475 552.288000
   2980   2978   2998     1   110.1900474 564.840000
   2981   2982   2986     1   110.1900474 564.840000
   2981   2982   2995     1   107.9700462 569.024000
   2981   2980   2987     1   110.1900474 564.840000
   2982   2981   3000     1   111.0400475 552.288000
   2986   2982   2995     1   109.3800466 607.516800
   2988   2977   2995     1   107.9700462 569.024000
   3001   3003   3005     1   111.6100477 551.451200
   3003   3005   3009     1   111.0400475 552.288000
   3005   3009   3010     1   112.3500484 533.878400
   3005   3009   3011     1   112.3500484 533.878400
   3009   3010   3021     1   111.0400475 552.288000
   3009   3011   3013     1   111.0400475 552.288000
   3010   3009   3011     1   112.3500484 533.878400
   3010   3021   3024     1   111.0400475 529.694400
   3011   3013   3017     1   111.0400475 529.694400
   3013   3017   3018     1   123.2000528 564.003200
   3013   3017   3049     1   112.2600482 538.062400
   3017   3049   3030     1   118.5150508 540.957728
   3018   3017   3049     1   118.8300510 581.576000
   3021   3024   3025     1   123.2000528 564.003200
   3021   3024   3073     1   112.2600482 538.062400
   3024   3073   3054     1   118.5150508 540.957728
   3025   3024   3073     1   118.8300510 581.576000
   3026   3027   3029     1   111.5100476 526.347200
   3026   3027   3047     1   110.1900474 564.840000
   3026   3037   3042     1   110.1900474 564.840000
   3026   3044   3031     1   112.4800480 524.673600
   3027   3026   3037     1   111.5100476 526.347200
   3027   3026   3044     1   107.9700462 569.024000
   3027   3029   3030     1   111.5100476 526.347200
   3027   3029   3036     1   110.1900474 564.840000
   3029   3027   3047     1   110.1900474 564.840000
   3029   3030   3031     1   111.5100476 526.347200
   3029   3030   3049     1   111.0400475 552.288000
   3030   3029   3036     1   110.1900474 564.840000
   3030   3031   3035     1   110.1900474 564.840000
   3030   3031   3044     1   107.9700462 569.024000
   3031   3030   3049     1   111.0400475 552.288000
   3035   3031   3044     1   109.3800466 607.516800
   3037   3026   3044     1   107.9700462 569.024000
   3050   3051   3053     1   111.5100476 526.347200
   3050   3051   3071     1   110.1900474 564.840000
   3050   3061   3066     1   110.1900474 564.840000
   3050   3068   3055     1   112.4800480 524.673600
   3051   3050   3061     1   111.5100476 526.347200
   3051   3050   3068     1   107.9700462 569.024000
   3051   3053   3054     1   111.5100476 526.347200
   3051   3053   3060     1   110.1900474 564.840000
   3053   3051   3071     1   110.1900474 564.840000
   3053   3054   3055     1   111.5100476 526.347200
   3053   3054   3073     1   111.0400475 552.288000
   3054   3053   3060     1   110.1900474 564.840000
   3054   3055   3059     1   110.1900474 564.840000
   3054   3055   3068     1   107.9700462 569.024000
   3055   3054   3073     1   111.0400475 552.288000
   3059   3055   3068     1   109.3800466 607.516800
   3061   3050   3068     1   107.9700462 569.024000
   3074   3076   3078     1   111.6100477 551.451200
   3076   3078   3082     1   111.0400475 552.288000
   3078   3082   3083     1   112.3500484 533.878400
   3078   3082   3084     1   112.3500484 533.878400
   3082   3083   3094     1   111.0400475 552.288000
   3082   3084   3086     1   111.0400475 552.288000
   3083   3094   3097     1   111.0400475 529.694400
   3083   3082   3084     1   112.3500484 533.878400
   3084   3086   3090     1   111.0400475 529.694400
   3086   3090   3091     1   123.2000528 564.003200
   3086   3090   3122     1   112.2600482 538.062400
   3090   3122   3103     1   118.5150508 540.957728
   3091   3090   3122     1   118.8300510 581.576000
   3094   3097   3098     1   123.2000528 564.003200
   3094   3097   3146     1   112.2600482 538.062400
   3097   3146   3127     1   118.5150508 540.957728
   3098   3097   3146     1   118.8300510 581.576000
   3099   3100   3102     1   111.5100476 526.347200
   3099   3100   3120     1   110.1900474 564.840000
   3099   3110   3115     1   110.1900474 564.840000
   3099   3117   3104     1   112.4800480 524.673600
   3100   3102   3103     1   111.5100476 526.347200
   3100   3102   3109     1   110.1900474 564.840000
   3100   3099   3110     1   111.5100476 526.347200
   3100   3099   3117     1   107.9700462 569.024000
   3102   3103   3104     1   111.5100476 526.347200
   3102   3103   3122     1   111.0400475 552.288000
   3102   3100   3120     1   110.1900474 564.840000
   3103   3104   3108     1   110.1900474 564.840000
   3103   3104   3117     1   107.9700462 569.024000
   3103   3102   3109     1   110.1900474 564.840000
   3104   3103   3122     1   111.0400475 552.288000
   3108   3104   3117     1   109.3800466 607.516800
   3110   3099   3117     1   107.9700462 569.024000
   3123   3124   3126     1   111.5100476 526.347200
   3123   3124   3144     1   110.1900474 564.840000
   3123   3134   3139     1   110.1900474 564.840000
   3123   3141   3128     1   112.4800480 524.673600
   3124   3126   3127     1   111.5100476 526.347200
   3124   3126   3133     1   110.1900474 564.840000
   3124   3123   3134     1   111.5100476 526.347200
   3124   3123   3141     1   107.9700462 569.024000
   3126   3127   3128     1   111.5100476 526.347200
   3126   3127   3146     1   111.0400475 552.288000
   3126   3124   3144     1   110.1900474 564.840000
   3127   3128   3132     1   110.1900474 564.840000
   3127   3128   3141     1   107.9700462 569.024000
   3127   3126   3133     1   110.1900474 564.840000
   3128   3127   3146     1   111.0400475 552.288000
   3132   3128   3141     1   109.3800466 607.516800
   3134   3123   3141     1   107.9700462 569.024000
   3147   3149   3151     1   111.6100477 551.451200
   3149   3151   3155     1   111.0400475 552.288000
   3151   3155   3156     1   112.3500484 533.878400
   3151   3155   3157     1   112.3500484 533.878400
   3155   3156   3167     1   111.0400475 552.288000
   3155   3157   3159     1   111.0400475 552.288000
   3156   3155   3157     1   112.3500484 533.878400
   3156   3167   3170     1   111.0400475 529.694400
   3157   3159   3163     1   111.0400475 529.694400
   3159   3163   3164     1   123.2000528 564.003200
   3159   3163   3195     1   112.2600482 538.062400
   3163   3195   3176     1   118.5150508 540.957728
   3164   3163   3195     1   118.8300510 581.576000
   3167   3170   3171     1   123.2000528 564.003200
   3167   3170   3219     1   112.2600482 538.062400
   3170   3219   3200     1   118.5150508 540.957728
   3171   3170   3219     1   118.8300510 581.576000
   3172   3173   3175     1   111.5100476 526.347200
   3172   3173   3193     1   110.1900474 564.840000
   3172   3183   3188     1   110.1900474 564.840000
   3172   3190   3177     1   112.4800480 524.673600
   3173   3172   3183     1   111.5100476 526.347200
   3173   3172   3190     1   107.9700462 569.024000
   3173   3175   3176     1   111.5100476 526.347200
   3173   3175   3182     1   110.1900474 564.840000
   3175   3173   3193     1   110.1900474 564.840000
   3175   3176   3177     1   111.5100476 526.347200
   3175   3176   3195     1   111.0400475 552.288000
   3176   3175   3182     1   110.1900474 564.840000
   3176   3177   3181     1   110.1900474 564.840000
   3176   3177   3190     1   107.9700462 569.024000
   3177   3176   3195     1   111.0400475 552.288000
   3181   3177   3190     1   109.3800466 607.516800
   3183   3172   3190     1   107.9700462 569.024000
   3196   3197   3199     1   111.5100476 526.347200
   3196   3197   3217     1   110.1900474 564.840000
   3196   3207   3212     1   110.1900474 564.840000
   3196   3214   3201     1   112.4800480 524.673600
   3197   3196   3207     1   111.5100476 526.347200
   3197   3196   3214     1   107.9700462 569.024000
   3197   3199   3200     1   111.5100476 526.347200
   3197   3199   3206     1   110.1900474 564.840000
   3199   3197   3217     1   110.1900474 564.840000
   3199   3200   3201     1   111.5100476 526.347200
   3199   3200   3219     1   111.0400475 552.288000
   3200   3199   3206     1   110.1900474 564.840000
   3200   3201   3205     1   110.1900474 564.840000
   3200   3201   3214     1   107.9700462 569.024000
   3201   3200   3219     1   111.0400475 552.288000
   3205   3201   3214     1   109.3800466 607.516800
   3207   3196   3214     1   107.9700462 569.024000
   3220   3222   3224     1   111.6100477 551.451200
   3222   3224   3228     1   111.0400475 552.288000
   3224   3228   3229     1   112.3500484 533.878400
   3224   3228   3230     1   112.3500484 533.878400
   3228   3229   3240     1   111.0400475 552.288000
   3228   3230   3232     1   111.0400475 552.288000
   3229   3240   3243     1   111.0400475 529.694400
   3229   3228   3230     1   112.3500484 533.878400
   3230   3232   3236     1   111.0400475 529.694400
   3232   3236   3237     1   123.2000528 564.003200
   3232   3236   3268     1   112.2600482 538.062400
   3236   3268   3249     1   118.5150508 540.957728
   3237   3236   3268     1   118.8300510 581.576000
   3240   3243   3244     1   123.2000528 564.003200
   3240   3243   3292     1   112.2600482 538.062400
   3243   3292   3273     1   118.5150508 540.957728
   3244   3243   3292     1   118.8300510 581.576000
   3245   3246   3248     1   111.5100476 526.347200
   3245   3246   3266     1   110.1900474 564.840000
   3245   3256   3261     1   110.1900474 564.840000
   3245   3263   3250     1   112.4800480 524.673600
   3246   3248   3249     1   111.5100476 526.347200
   3246   3248   3255     1   110.1900474 564.840000
   3246   3245   3256     1   111.5100476 526.347200
   3246   3245   3263     1   107.9700462 569.024000
   3248   3249   3250     1   111.5100476 526.347200
   3248   3249   3268     1   111.0400475 552.288000
   3248   3246   3266     1   110.1900474 564.840000
   3249   3250   3254     1   110.1900474 564.840000
   3249   3250   3263     1   107.9700462 569.024000
   3249   3248   3255     1   110.1900474 564.840000
   3250   3249   3268     1   111.0400475 552.288000
   3254   3250   3263     1   109.3800466 607.516800
   3256   3245   3263     1   107.9700462 569.024000
   3269   3270   3272     1   111.5100476 526.347200
   3269   3270   3290     1   110.1900474 564.840000
   3269   3280   3285     1   110.1900474 564.840000
   3269   3287   3274     1   112.4800480 524.673600
   3270   3272   3273     1   111.5100476 526.347200
   3270   3272   3279     1   110.1900474 564.840000
   3270   3269   3280     1   111.5100476 526.347200
   3270   3269   3287     1   107.9700462 569.024000
   3272   3273   3274     1   111.5100476 526.347200
   3272   3273   3292     1   111.0400475 552.288000
   3272   3270   3290     1   110.1900474 564.840000
   3273   3274   3278     1   110.1900474 564.840000
   3273   3274   3287     1   107.9700462 569.024000
   3273   3272   3279     1   110.1900474 564.840000
   3274   3273   3292     1   111.0400475 552.288000
   3278   3274   3287     1   109.3800466 607.516800
   3280   3269   3287     1   107.9700462 569.024000
   3293   3295   3297     1   111.6100477 551.451200
   3295   3297   3301     1   111.0400475 552.288000
   3297   3301   3302     1   112.3500484 533.878400
   3297   3301   3303     1   112.3500484 533.878400
   3301   3302   3313     1   111.0400475 552.288000
   3301   3303   3305     1   111.0400475 552.288000
   3302   3301   3303     1   112.3500484 533.878400
   3302   3313   3316     1   111.0400475 529.694400
   3303   3305   3309     1   111.0400475 529.694400
   3305   3309   3310     1   123.2000528 564.003200
   3305   3309   3341     1   112.2600482 538.062400
   3309   3341   3322     1   118.5150508 540.957728
   3310   3309   3341     1   118.8300510 581.576000
   3313   3316   3317     1   123.2000528 564.003200
   3313   3316   3365     1   112.2600482 538.062400
   3316   3365   3346     1   118.5150508 540.957728
   3317   3316   3365     1   118.8300510 581.576000
   3318   3319   3321     1   111.5100476 526.347200
   3318   3319   3339     1   110.1900474 564.840000
   3318   3329   3334     1   110.1900474 564.840000
   3318   3336   3323     1   112.4800480 524.673600
   3319   3318   3329     1   111.5100476 526.347200
   3319   3318   3336     1   107.9700462 569.024000
   3319   3321   3322     1   111.5100476 526.347200
   3319   3321   3328     1   110.1900474 564.840000
   3321   3319   3339     1   110.1900474 564.840000
   3321   3322   3323     1   111.5100476 526.347200
   3321   3322   3341     1   111.0400475 552.288000
   3322   3321   3328     1   110.1900474 564.840000
   3322   3323   3327     1   110.1900474 564.840000
   3322   3323   3336     1   107.9700462 569.024000
   3323   3322   3341     1   111.0400475 552.288000
   3327   3323   3336     1   109.3800466 607.516800
   3329   3318   3336     1   107.9700462 569.024000
   3342   3343   3345     1   111.5100476 526.347200
   3342   3343   3363     1   110.1900474 564.840000
   3342   3353   3358     1   110.1900474 564.840000
   3342   3360   3347     1   112.4800480 524.673600
   3343   3342   3353     1   111.5100476 526.347200
   3343   3342   3360     1   107.9700462 569.024000
   3343   3345   3346     1   111.5100476 526.347200
   3343   3345   3352     1   110.1900474 564.840000
   3345   3343   3363     1   110.1900474 564.840000
   3345   3346   3347     1   111.5100476 526.347200
   3345   3346   3365     1   111.0400475 552.288000
   3346   3345   3352     1   110.1900474 564.840000
   3346   3347   3351     1   110.1900474 564.840000
   3346   3347   3360     1   107.9700462 569.024000
   3347   3346   3365     1   111.0400475 552.288000
   3351   3347   3360     1   109.3800466 607.516800
   3353   3342   3360     1   107.9700462 569.024000
   3366   3368   3370     1   111.6100477 551.451200
   3368   3370   3374     1   111.0400475 552.288000
   3370   3374   3375     1   112.3500484 533.878400
   3370   3374   3376     1   112.3500484 533.878400
   3374   3375   3386     1   111.0400475 552.288000
   3374   3376   3378     1   111.0400475 552.288000
   3375   3386   3389     1   111.0400475 529.694400
   3375   3374   3376     1   112.3500484 533.878400
   3376   3378   3382     1   111.0400475 529.694400
   3378   3382   3383     1   123.2000528 564.003200
   3378   3382   3414     1   112.2600482 538.062400
   3382   3414   3395     1   118.5150508 540.957728
   3383   3382   3414     1   118.8300510 581.576000
   3386   3389   3390     1   123.2000528 564.003200
   3386   3389   3438     1   112.2600482 538.062400
   3389   3438   3419     1   118.5150508 540.957728
   3390   3389   3438     1   118.8300510 581.576000
   3391   3392   3394     1   111.5100476 526.347200
   3391   3392   3412     1   110.1900474 564.840000
   3391   3402   3407     1   110.1900474 564.840000
   3391   3409   3396     1   112.4800480 524.673600
   3392   3394   3395     1   111.5100476 526.347200
   3392   3394   3401     1   110.1900474 564.840000
   3392   3391   3402     1   111.5100476 526.347200
   3392   3391   3409     1   107.9700462 569.024000
   3394   3395   3396     1   111.5100476 526.347200
   3394   3395   3414     1   111.0400475 552.288000
   3394   3392   3412     1   110.1900474 564.840000
   3395   3396   3400     1   110.1900474 564.840000
   3395   3396   3409     1   107.9700462 569.024000
   3395   3394   3401     1   110.1900474 564.840000
   3396   3395   3414     1   111.0400475 552.288000
   3400   3396   3409     1   109.3800466 607.516800
   3402   3391   3409     1   107.9700462 569.024000
   3415   3416   3418     1   111.5100476 526.347200
   3415   3416   3436     1   110.1900474 564.840000
   3415   3426   3431     1   110.1900474 564.840000
   3415   3433   3420     1   112.4800480 524.673600
   3416   3418   3419     1   111.5100476 526.347200
   3416   3418   3425     1   110.1900474 564.840000
   3416   3415   3426     1   111.5100476 526.347200
   3416   3415   3433     1   107.9700462 569.024000
   3418   3419   3420     1   111.5100476 526.347200
   3418   3419   3438     1   111.0400475 552.288000
   3418   3416   3436     1   110.1900474 564.840000
   3419   3420   3424     1   110.1900474 564.840000
   3419   3420   3433     1   107.9700462 569.024000
   3419   3418   3425     1   110.1900474 564.840000
   3420   3419   3438     1   111.0400475 552.288000
   3424   3420   3433     1   109.3800466 607.516800
   3426   3415   3433     1   107.9700462 569.024000
   3439   3441   3443     1   111.6100477 551.451200
   3441   3443   3447     1   111.0400475 552.288000
   3443   3447   3448     1   112.3500484 533.878400
   3443   3447   3449     1   112.3500484 533.878400
   3447   3448   3459     1   111.0400475 552.288000
   3447   3449   3451     1   111.0400475 552.288000
   3448   3447   3449     1   112.3500484 533.878400
   3448   3459   3462     1   111.0400475 529.694400
   3449   3451   3455     1   111.0400475 529.694400
   3451   3455   3456     1   123.2000528 564.003200
   3451   3455   3487     1   112.2600482 538.062400
   3455   3487   3468     1   118.5150508 540.957728
   3456   3455   3487     1   118.8300510 581.576000
   3459   3462   3463     1   123.2000528 564.003200
   3459   3462   3511     1   112.2600482 538.062400
   3462   3511   3492     1   118.5150508 540.957728
   3463   3462   3511     1   118.8300510 581.576000
   3464   3465   3467     1   111.5100476 526.347200
   3464   3465   3485     1   110.1900474 564.840000
   3464   3475   3480     1   110.1900474 564.840000
   3464   3482   3469     1   112.4800480 524.673600
   3465   3464   3475     1   111.5100476 526.347200
   3465   3464   3482     1   107.9700462 569.024000
   3465   3467   3468     1   111.5100476 526.347200
   3465   3467   3474     1   110.1900474 564.840000
   3467   3465   3485     1   110.1900474 564.840000
   3467   3468   3469     1   111.5100476 526.347200
   3467   3468   3487     1   111.0400475 552.288000
   3468   3467   3474     1   110.1900474 564.840000
   3468   3469   3473     1   110.1900474 564.840000
   3468   3469   3482     1   107.9700462 569.024000
   3469   3468   3487     1   111.0400475 552.288000
   3473   3469   3482     1   109.3800466 607.516800
   3475   3464   3482     1   107.9700462 569.024000
   3488   3489   3491     1   111.5100476 526.347200
   3488   3489   3509     1   110.1900474 564.840000
   3488   3499   3504     1   110.1900474 564.840000
   3488   3506   3493     1   112.4800480 524.673600
   3489   3488   3499     1   111.5100476 526.347200
   3489   3488   3506     1   107.9700462 569.024000
   3489   3491   3492     1   111.5100476 526.347200
   3489   3491   3498     1   110.1900474 564.840000
   3491   3489   3509     1   110.1900474 564.840000
   3491   3492   3493     1   111.5100476 526.347200
   3491   3492   3511     1   111.0400475 552.288000
   3492   3491   3498     1   110.1900474 564.840000
   3492   3493   3497     1   110.1900474 564.840000
   3492   3493   3506     1   107.9700462 569.024000
   3493   3492   3511     1   111.0400475 552.288000
   3497   3493   3506     1   109.3800466 607.516800
   3499   3488   3506     1   107.9700462 569.024000
   3512   3514   3516     1   111.6100477 551.451200
   3514   3516   3520     1   111.0400475 552.288000
   3516   3520   3521     1   112.3500484 533.878400
   3516   3520   3522     1   112.3500484 533.878400
   3520   3521   3532     1   111.0400475 552.288000
   3520   3522   3524     1   111.0400475 552.288000
   3521   3532   3535     1   111.0400475 529.694400
   3521   3520   3522     1   112.3500484 533.878400
   3522   3524   3528     1   111.0400475 529.694400
   3524   3528   3529     1   123.2000528 564.003200
   3524   3528   3560     1   112.2600482 538.062400
   3528   3560   3541     1   118.5150508 540.957728
   3529   3528   3560     1   118.8300510 581.576000
   3532   3535   3536     1   123.2000528 564.003200
   3532   3535   3584     1   112.2600482 538.062400
   3535   3584   3565     1   118.5150508 540.957728
   3536   3535   3584     1   118.8300510 581.576000
   3537   3538   3540     1   111.5100476 526.347200
   3537   3538   3558     1   110.1900474 564.840000
   3537   3548   3553     1   110.1900474 564.840000
   3537   3555   3542     1   112.4800480 524.673600
   3538   3540   3541     1   111.5100476 526.347200
   3538   3540   3547     1   110.1900474 564.840000
   3538   3537   3548     1   111.5100476 526.347200
   3538   3537   3555     1   107.9700462 569.024000
   3540   3541   3542     1   111.5100476 526.347200
   3540   3541   3560     1   111.0400475 552.288000
   3540   3538   3558     1   110.1900474 564.840000
   3541   3542   3546     1   110.1900474 564.840000
   3541   3542   3555     1   107.9700462 569.024000
   3541   3540   3547     1   110.1900474 564.840000
   3542   3541   3560     1   111.0400475 552.288000
   3546   3542   3555     1   109.3800466 607.516800
   3548   3537   3555     1   107.9700462 569.024000
   3561   3562   3564     1   111.5100476 526.347200
   3561   3562   3582     1   110.1900474 564.840000
   3561   3572   3577     1   110.1900474 564.840000
   3561   3579   3566     1   112.4800480 524.673600
   3562   3564   3565     1   111.5100476 526.347200
   3562   3564   3571     1   110.1900474 564.840000
   3562   3561   3572     1   111.5100476 526.347200
   3562   3561   3579     1   107.9700462 569.024000
   3564   3565   3566     1   111.5100476 526.347200
   3564   3565   3584     1   111.0400475 552.288000
   3564   3562   3582     1   110.1900474 564.840000
   3565   3566   3570     1   110.1900474 564.840000
   3565   3566   3579     1   107.9700462 569.024000
   3565   3564   3571     1   110.1900474 564.840000
   3566   3565   3584     1   111.0400475 552.288000
   3570   3566   3579     1   109.3800466 607.516800
   3572   3561   3579     1   107.9700462 569.024000
   3585   3587   3589     1   111.6100477 551.451200
   3587   3589   3593     1   111.0400475 552.288000
   3589   3593   3594     1   112.3500484 533.878400
   3589   3593   3595     1   112.3500484 533.878400
   3593   3594   3605     1   111.0400475 552.288000
   3593   3595   3597     1   111.0400475 552.288000
   3594   3593   3595     1   112.3500484 533.878400
   3594   3605   3608     1   111.0400475 529.694400
   3595   3597   3601     1   111.0400475 529.694400
   3597   3601   3602     1   123.2000528 564.003200
   3597   3601   3633     1   112.2600482 538.062400
   3601   3633   3614     1   118.5150508 540.957728
   3602   3601   3633     1   118.8300510 581.576000
   3605   3608   3609     1   123.2000528 564.003200
   3605   3608   3657     1   112.2600482 538.062400
   3608   3657   3638     1   118.5150508 540.957728
   3609   3608   3657     1   118.8300510 581.576000
   3610   3611   3613     1   111.5100476 526.347200
   3610   3611   3631     1   110.1900474 564.840000
   3610   3621   3626     1   110.1900474 564.840000
   3610   3628   3615     1   112.4800480 524.673600
   3611   3610   3621     1   111.5100476 526.347200
   3611   3610   3628     1   107.9700462 569.024000
   3611   3613   3614     1   111.5100476 526.347200
   3611   3613   3620     1   110.1900474 564.840000
   3613   3611   3631     1   110.1900474 564.840000
   3613   3614   3615     1   111.5100476 526.347200
   3613   3614   3633     1   111.0400475 552.288000
   3614   3613   3620     1   110.1900474 564.840000
   3614   3615   3619     1   110.1900474 564.840000
   3614   3615   3628     1   107.9700462 569.024000
   3615   3614   3633     1   111.0400475 552.288000
   3619   3615   3628     1   109.3800466 607.516800
   3621   3610   3628     1   107.9700462 569.024000
   3634   3635   3637     1   111.5100476 526.347200
   3634   3635   3655     1   110.1900474 564.840000
   3634   3645   3650     1   110.1900474 564.840000
   3634   3652   3639     1   112.4800480 524.673600
   3635   3634   3645     1   111.5100476 526.347200
   3635   3634   3652     1   107.9700462 569.024000
   3635   3637   3638     1   111.5100476 526.347200
   3635   3637   3644     1   110.1900474 564.840000
   3637   3635   3655     1   110.1900474 564.840000
   3637   3638   3639     1   111.5100476 526.347200
   3637   3638   3657     1   111.0400475 552.288000
   3638   3637   3644     1   110.1900474 564.840000
   3638   3639   3643     1   110.1900474 564.840000
   3638   3639   3652     1   107.9700462 569.024000
   3639   3638   3657     1   111.0400475 552.288000
   3643   3639   3652     1   109.3800466 607.516800
   3645   3634   3652     1   107.9700462 569.024000
   3658   3660   3662     1   111.6100477 551.451200
   3660   3662   3666     1   111.0400475 552.288000
   3662   3666   3667     1   112.3500484 533.878400
   3662   3666   3668     1   112.3500484 533.878400
   3666   3667   3678     1   111.0400475 552.288000
   3666   3668   3670     1   111.0400475 552.288000
   3667   3678   3681     1   111.0400475 529.694400
   3667   3666   3668     1   112.3500484 533.878400
   3668   3670   3674     1   111.0400475 529.694400
   3670   3674   3675     1   123.2000528 564.003200
   3670   3674   3706     1   112.2600482 538.062400
   3674   3706   3687     1   118.5150508 540.957728
   3675   3674   3706     1   118.8300510 581.576000
   3678   3681   3682     1   123.2000528 564.003200
   3678   3681   3730     1   112.2600482 538.062400
   3681   3730   3711     1   118.5150508 540.957728
   3682   3681   3730     1   118.8300510 581.576000
   3683   3684   3686     1   111.5100476 526.347200
   3683   3684   3704     1   110.1900474 564.840000
   3683   3694   3699     1   110.1900474 564.840000
   3683   3701   3688     1   112.4800480 524.673600
   3684   3686   3687     1   111.5100476 526.347200
   3684   3686   3693     1   110.1900474 564.840000
   3684   3683   3694     1   111.5100476 526.347200
   3684   3683   3701     1   107.9700462 569.024000
   3686   3687   3688     1   111.5100476 526.347200
   3686   3687   3706     1   111.0400475 552.288000
   3686   3684   3704     1   110.1900474 564.840000
   3687   3688   3692     1   110.1900474 564.840000
   3687   3688   3701     1   107.9700462 569.024000
   3687   3686   3693     1   110.1900474 564.840000
   3688   3687   3706     1   111.0400475 552.288000
   3692   3688   3701     1   109.3800466 607.516800
   3694   3683   3701     1   107.9700462 569.024000
   3707   3708   3710     1   111.5100476 526.347200
   3707   3708   3728     1   110.1900474 564.840000
   3707   3718   3723     1   110.1900474 564.840000
   3707   3725   3712     1   112.4800480 524.673600
   3708   3710   3711     1   111.5100476 526.347200
   3708   3710   3717     1   110.1900474 564.840000
   3708   3707   3718     1   111.5100476 526.347200
   3708   3707   3725     1   107.9700462 569.024000
   3710   3711   3712     1   111.5100476 526.347200
   3710   3711   3730     1   111.0400475 552.288000
   3710   3708   3728     1   110.1900474 564.840000
   3711   3712   3716     1   110.1900474 564.840000
   3711   3712   3725     1   107.9700462 569.024000
   3711   3710   3717     1   110.1900474 564.840000
   3712   3711   3730     1   111.0400475 552.288000
   3716   3712   3725     1   109.3800466 607.516800
   3718   3707   3725     1   107.9700462 569.024000
   3731   3733   3735     1   111.6100477 551.451200
   3733   3735   3739     1   111.0400475 552.288000
   3735   3739   3740     1   112.3500484 533.878400
   3735   3739   3741     1   112.3500484 533.878400
   3739   3740   3751     1   111.0400475 552.288000
   3739   3741   3743     1   111.0400475 552.288000
   3740   3739   3741     1   112.3500484 533.878400
   3740   3751   3754     1   111.0400475 529.694400
   3741   3743   3747     1   111.0400475 529.694400
   3743   3747   3748     1   123.2000528 564.003200
   3743   3747   3779     1   112.2600482 538.062400
   3747   3779   3760     1   118.5150508 540.957728
   3748   3747   3779     1   118.8300510 581.576000
   3751   3754   3755     1   123.2000528 564.003200
   3751   3754   3803     1   112.2600482 538.062400
   3754   3803   3784     1   118.5150508 540.957728
   3755   3754   3803     1   118.8300510 581.576000
   3756   3757   3759     1   111.5100476 526.347200
   3756   3757   3777     1   110.1900474 564.840000
   3756   3767   3772     1   110.1900474 564.840000
   3756   3774   3761     1   112.4800480 524.673600
   3757   3756   3767     1   111.5100476 526.347200
   3757   3756   3774     1   107.9700462 569.024000
   3757   3759   3760     1   111.5100476 526.347200
   3757   3759   3766     1   110.1900474 564.840000
   3759   3757   3777     1   110.1900474 564.840000
   3759   3760   3761     1   111.5100476 526.347200
   3759   3760   3779     1   111.0400475 552.288000
   3760   3759   3766     1   110.1900474 564.840000
   3760   3761   3765     1   110.1900474 564.840000
   3760   3761   3774     1   107.9700462 569.024000
   3761   3760   3779     1   111.0400475 552.288000
   3765   3761   3774     1   109.3800466 607.516800
   3767   3756   3774     1   107.9700462 569.024000
   3780   3781   3783     1   111.5100476 526.347200
   3780   3781   3801     1   110.1900474 564.840000
   3780   3791   3796     1   110.1900474 564.840000
   3780   3798   3785     1   112.4800480 524.673600
   3781   3780   3791     1   111.5100476 526.347200
   3781   3780   3798     1   107.9700462 569.024000
   3781   3783   3784     1   111.5100476 526.347200
   3781   3783   3790     1   110.1900474 564.840000
   3783   3781   3801     1   110.1900474 564.840000
   3783   3784   3785     1   111.5100476 526.347200
   3783   3784   3803     1   111.0400475 552.288000
   3784   3783   3790     1   110.1900474 564.840000
   3784   3785   3789     1   110.1900474 564.840000
   3784   3785   3798     1   107.9700462 569.024000
   3785   3784   3803     1   111.0400475 552.288000
   3789   3785   3798     1   109.3800466 607.516800
   3791   3780   3798     1   107.9700462 569.024000
   3804   3806   3808     1   111.6100477 551.451200
   3806   3808   3812     1   111.0400475 552.288000
   3808   3812   3813     1   112.3500484 533.878400
   3808   3812   3814     1   112.3500484 533.878400
   3812   3813   3824     1   111.0400475 552.288000
   3812   3814   3816     1   111.0400475 552.288000
   3813   3824   3827     1   111.0400475 529.694400
   3813   3812   3814     1   112.3500484 533.878400
   3814   3816   3820     1   111.0400475 529.694400
   3816   3820   3821     1   123.2000528 564.003200
   3816   3820   3852     1   112.2600482 538.062400
   3820   3852   3833     1   118.5150508 540.957728
   3821   3820   3852     1   118.8300510 581.576000
   3824   3827   3828     1   123.2000528 564.003200
   3824   3827   3876     1   112.2600482 538.062400
   3827   3876   3857     1   118.5150508 540.957728
   3828   3827   3876     1   118.8300510 581.576000
   3829   3830   3832     1   111.5100476 526.347200
   3829   3830   3850     1   110.1900474 564.840000
   3829   3840   3845     1   110.1900474 564.840000
   3829   3847   3834     1   112.4800480 524.673600
   3830   3832   3833     1   111.5100476 526.347200
   3830   3832   3839     1   110.1900474 564.840000
   3830   3829   3840     1   111.5100476 526.347200
   3830   3829   3847     1   107.9700462 569.024000
   3832   3833   3834     1   111.5100476 526.347200
   3832   3833   3852     1   111.0400475 552.288000
   3832   3830   3850     1   110.1900474 564.840000
   3833   3834   3838     1   110.1900474 564.840000
   3833   3834   3847     1   107.9700462 569.024000
   3833   3832   3839     1   110.1900474 564.840000
   3834   3833   3852     1   111.0400475 552.288000
   3838   3834   3847     1   109.3800466 607.516800
   3840   3829   3847     1   107.9700462 569.024000
   3853   3854   3856     1   111.5100476 526.347200
   3853   3854   3874     1   110.1900474 564.840000
   3853   3864   3869     1   110.1900474 564.840000
   3853   3871   3858     1   112.4800480 524.673600
   3854   3856   3857     1   111.5100476 526.347200
   3854   3856   3863     1   110.1900474 564.840000
   3854   3853   3864     1   111.5100476 526.347200
   3854   3853   3871     1   107.9700462 569.024000
   3856   3857   3858     1   111.5100476 526.347200
   3856   3857   3876     1   111.0400475 552.288000
   3856   3854   3874     1   110.1900474 564.840000
   3857   3858   3862     1   110.1900474 564.840000
   3857   3858   3871     1   107.9700462 569.024000
   3857   3856   3863     1   110.1900474 564.840000
   3858   3857   3876     1   111.0400475 552.288000
   3862   3858   3871     1   109.3800466 607.516800
   3864   3853   3871     1   107.9700462 569.024000
   3877   3879   3881     1   111.6100477 551.451200
   3879   3881   3885     1   111.0400475 552.288000
   3881   3885   3886     1   112.3500484 533.878400
   3881   3885   3887     1   112.3500484 533.878400
   3885   3886   3897     1   111.0400475 552.288000
   3885   3887   3889     1   111.0400475 552.288000
   3886   3885   3887     1   112.3500484 533.878400
   3886   3897   3900     1   111.0400475 529.694400
   3887   3889   3893     1   111.0400475 529.694400
   3889   3893   3894     1   123.2000528 564.003200
   3889   3893   3925     1   112.2600482 538.062400
   3893   3925   3906     1   118.5150508 540.957728
   3894   3893   3925     1   118.8300510 581.576000
   3897   3900   3901     1   123.2000528 564.003200
   3897   3900   3949     1   112.2600482 538.062400
   3900   3949   3930     1   118.5150508 540.957728
   3901   3900   3949     1   118.8300510 581.576000
   3902   3903   3905     1   111.5100476 526.347200
   3902   3903   3923     1   110.1900474 564.840000
   3902   3913   3918     1   110.1900474 564.840000
   3902   3920   3907     1   112.4800480 524.673600
   3903   3902   3913     1   111.5100476 526.347200
   3903   3902   3920     1   107.9700462 569.024000
   3903   3905   3906     1   111.5100476 526.347200
   3903   3905   3912     1   110.1900474 564.840000
   3905   3903   3923     1   110.1900474 564.840000
   3905   3906   3907     1   111.5100476 526.347200
   3905   3906   3925     1   111.0400475 552.288000
   3906   3905   3912     1   110.1900474 564.840000
   3906   3907   3911     1   110.1900474 564.840000
   3906   3907   3920     1   107.9700462 569.024000
   3907   3906   3925     1   111.0400475 552.288000
   3911   3907   3920     1   109.3800466 607.516800
   3913   3902   3920     1   107.9700462 569.024000
   3926   3927   3929     1   111.5100476 526.347200
   3926   3927   3947     1   110.1900474 564.840000
   3926   3937   3942     1   110.1900474 564.840000
   3926   3944   3931     1   112.4800480 524.673600
   3927   3926   3937     1   111.5100476 526.347200
   3927   3926   3944     1   107.9700462 569.024000
   3927   3929   3930     1   111.5100476 526.347200
   3927   3929   3936     1   110.1900474 564.840000
   3929   3927   3947     1   110.1900474 564.840000
   3929   3930   3931     1   111.5100476 526.347200
   3929   3930   3949     1   111.0400475 552.288000
   3930   3929   3936     1   110.1900474 564.840000
   3930   3931   3935     1   110.1900474 564.840000
   3930   3931   3944     1   107.9700462 569.024000
   3931   3930   3949     1   111.0400475 552.288000
   3935   3931   3944     1   109.3800466 607.516800
   3937   3926   3944     1   107.9700462 569.024000
   3950   3952   3954     1   111.6100477 551.451200
   3952   3954   3958     1   111.0400475 552.288000
   3954   3958   3959     1   112.3500484 533.878400
   3954   3958   3960     1   112.3500484 533.878400
   3958   3959   3970     1   111.0400475 552.288000
   3958   3960   3962     1   111.0400475 552.288000
   3959   3970   3973     1   111.0400475 529.694400
   3959   3958   3960     1   112.3500484 533.878400
   3960   3962   3966     1   111.0400475 529.694400
   3962   3966   3967     1   123.2000528 564.003200
   3962   3966   3998     1   112.2600482 538.062400
   3966   3998   3979     1   118.5150508 540.957728
   3967   3966   3998     1   118.8300510 581.576000
   3970   3973   3974     1   123.2000528 564.003200
   3970   3973   4022     1   112.2600482 538.062400
   3973   4022   4003     1   118.5150508 540.957728
   3974   3973   4022     1   118.8300510 581.576000
   3975   3976   3978     1   111.5100476 526.347200
   3975   3976   3996     1   110.1900474 564.840000
   3975   3986   3991     1   110.1900474 564.840000
   3975   3993   3980     1   112.4800480 524.673600
   3976   3978   3979     1   111.5100476 526.347200
   3976   3978   3985     1   110.1900474 564.840000
   3976   3975   3986     1   111.5100476 526.347200
   3976   3975   3993     1   107.9700462 569.024000
   3978   3979   3980     1   111.5100476 526.347200
   3978   3979   3998     1   111.0400475 552.288000
   3978   3976   3996     1   110.1900474 564.840000
   3979   3980   3984     1   110.1900474 564.840000
   3979   3980   3993     1   107.9700462 569.024000
   3979   3978   3985     1   110.1900474 564.840000
   3980   3979   3998     1   111.0400475 552.288000
   3984   3980   3993     1   109.3800466 607.516800
   3986   3975   3993     1   107.9700462 569.024000
   3999   4000   4002     1   111.5100476 526.347200
   3999   4000   4020     1   110.1900474 564.840000
   3999   4010   4015     1   110.1900474 564.840000
   3999   4017   4004     1   112.4800480 524.673600
   4000   4002   4003     1   111.5100476 526.347200
   4000   4002   4009     1   110.1900474 564.840000
   4000   3999   4010     1   111.5100476 526.347200
   4000   3999   4017     1   107.9700462 569.024000
   4002   4003   4004     1   111.5100476 526.347200
   4002   4003   4022     1   111.0400475 552.288000
   4002   4000   4020     1   110.1900474 564.840000
   4003   4004   4008     1   110.1900474 564.840000
   4003   4004   4017     1   107.9700462 569.024000
   4003   4002   4009     1   110.1900474 564.840000
   4004   4003   4022     1   111.0400475 552.288000
   4008   4004   4017     1   109.3800466 607.516800
   4010   3999   4017     1   107.9700462 569.024000
   4023   4025   4027     1   111.6100477 551.451200
   4025   4027   4031     1   111.0400475 552.288000
   4027   4031   4032     1   112.3500484 533.878400
   4027   4031   4033     1   112.3500484 533.878400
   4031   4032   4043     1   111.0400475 552.288000
   4031   4033   4035     1   111.0400475 552.288000
   4032   4031   4033     1   112.3500484 533.878400
   4032   4043   4046     1   111.0400475 529.694400
   4033   4035   4039     1   111.0400475 529.694400
   4035   4039   4040     1   123.2000528 564.003200
   4035   4039   4071     1   112.2600482 538.062400
   4039   4071   4052     1   118.5150508 540.957728
   4040   4039   4071     1   118.8300510 581.576000
   4043   4046   4047     1   123.2000528 564.003200
   4043   4046   4095     1   112.2600482 538.062400
   4046   4095   4076     1   118.5150508 540.957728
   4047   4046   4095     1   118.8300510 581.576000
   4048   4049   4051     1   111.5100476 526.347200
   4048   4049   4069     1   110.1900474 564.840000
   4048   4059   4064     1   110.1900474 564.840000
   4048   4066   4053     1   112.4800480 524.673600
   4049   4048   4059     1   111.5100476 526.347200
   4049   4048   4066     1   107.9700462 569.024000
   4049   4051   4052     1   111.5100476 526.347200
   4049   4051   4058     1   110.1900474 564.840000
   4051   4049   4069     1   110.1900474 564.840000
   4051   4052   4053     1   111.5100476 526.347200
   4051   4052   4071     1   111.0400475 552.288000
   4052   4051   4058     1   110.1900474 564.840000
   4052   4053   4057     1   110.1900474 564.840000
   4052   4053   4066     1   107.9700462 569.024000
   4053   4052   4071     1   111.0400475 552.288000
   4057   4053   4066     1   109.3800466 607.516800
   4059   4048   4066     1   107.9700462 569.024000
   4072   4073   4075     1   111.5100476 526.347200
   4072   4073   4093     1   110.1900474 564.840000
   4072   4083   4088     1   110.1900474 564.840000
   4072   4090   4077     1   112.4800480 524.673600
   4073   4072   4083     1   111.5100476 526.347200
   4073   4072   4090     1   107.9700462 569.024000
   4073   4075   4076     1   111.5100476 526.347200
   4073   4075   4082     1   110.1900474 564.840000
   4075   4073   4093     1   110.1900474 564.840000
   4075   4076   4077     1   111.5100476 526.347200
   4075   4076   4095     1   111.0400475 552.288000
   4076   4075   4082     1   110.1900474 564.840000
   4076   4077   4081     1   110.1900474 564.840000
   4076   4077   4090     1   107.9700462 569.024000
   4077   4076   4095     1   111.0400475 552.288000
   4081   4077   4090     1   109.3800466 607.516800
   4083   4072   4090     1   107.9700462 569.024000
   4096   4098   4100     1   111.6100477 551.451200
   4098   4100   4104     1   111.0400475 552.288000
   4100   4104   4105     1   112.3500484 533.878400
   4100   4104   4106     1   112.3500484 533.878400
   4104   4105   4116     1   111.0400475 552.288000
   4104   4106   4108     1   111.0400475 552.288000
   4105   4116   4119     1   111.0400475 529.694400
   4105   4104   4106     1   112.3500484 533.878400
   4106   4108   4112     1   111.0400475 529.694400
   4108   4112   4113     1   123.2000528 564.003200
   4108   4112   4144     1   112.2600482 538.062400
   4112   4144   4125     1   118.5150508 540.957728
   4113   4112   4144     1   118.8300510 581.576000
   4116   4119   4120     1   123.2000528 564.003200
   4116   4119   4168     1   112.2600482 538.062400
   4119   4168   4149     1   118.5150508 540.957728
   4120   4119   4168     1   118.8300510 581.576000
   4121   4122   4124     1   111.5100476 526.347200
   4121   4122   4142     1   110.1900474 564.840000
   4121   4132   4137     1   110.1900474 564.840000
   4121   4139   4126     1   112.4800480 524.673600
   4122   4124   4125     1   111.5100476 526.347200
   4122   4124   4131     1   110.1900474 564.840000
   4122   4121   4132     1   111.5100476 526.347200
   4122   4121   4139     1   107.9700462 569.024000
   4124   4125   4126     1   111.5100476 526.347200
   4124   4125   4144     1   111.0400475 552.288000
   4124   4122   4142     1   110.1900474 564.840000
   4125   4126   4130     1   110.1900474 564.840000
   4125   4126   4139     1   107.9700462 569.024000
   4125   4124   4131     1   110.1900474 564.840000
   4126   4125   4144     1   111.0400475 552.288000
   4130   4126   4139     1   109.3800466 607.516800
   4132   4121   4139     1   107.9700462 569.024000
   4145   4146   4148     1   111.5100476 526.347200
   4145   4146   4166     1   110.1900474 564.840000
   4145   4156   4161     1   110.1900474 564.840000
   4145   4163   4150     1   112.4800480 524.673600
   4146   4148   4149     1   111.5100476 526.347200
   4146   4148   4155     1   110.1900474 564.840000
   4146   4145   4156     1   111.5100476 526.347200
   4146   4145   4163     1   107.9700462 569.024000
   4148   4149   4150     1   111.5100476 526.347200
   4148   4149   4168     1   111.0400475 552.288000
   4148   4146   4166     1   110.1900474 564.840000
   4149   4150   4154     1   110.1900474 564.840000
   4149   4150   4163     1   107.9700462 569.024000
   4149   4148   4155     1   110.1900474 564.840000
   4150   4149   4168     1   111.0400475 552.288000
   4154   4150   4163     1   109.3800466 607.516800
   4156   4145   4163     1   107.9700462 569.024000
   4169   4171   4173     1   111.6100477 551.451200
   4171   4173   4177     1   111.0400475 552.288000
   4173   4177   4178     1   112.3500484 533.878400
   4173   4177   4179     1   112.3500484 533.878400
   4177   4178   4189     1   111.0400475 552.288000
   4177   4179   4181     1   111.0400475 552.288000
   4178   4177   4179     1   112.3500484 533.878400
   4178   4189   4192     1   111.0400475 529.694400
   4179   4181   4185     1   111.0400475 529.694400
   4181   4185   4186     1   123.2000528 564.003200
   4181   4185   4217     1   112.2600482 538.062400
   4185   4217   4198     1   118.5150508 540.957728
   4186   4185   4217     1   118.8300510 581.576000
   4189   4192   4193     1   123.2000528 564.003200
   4189   4192   4241     1   112.2600482 538.062400
   4192   4241   4222     1   118.5150508 540.957728
   4193   4192   4241     1   118.8300510 581.576000
   4194   4195   4197     1   111.5100476 526.347200
   4194   4195   4215     1   110.1900474 564.840000
   4194   4205   4210     1   110.1900474 564.840000
   4194   4212   4199     1   112.4800480 524.673600
   4195   4194   4205     1   111.5100476 526.347200
   4195   4194   4212     1   107.9700462 569.024000
   4195   4197   4198     1   111.5100476 526.347200
   4195   4197   4204     1   110.1900474 564.840000
   4197   4195   4215     1   110.1900474 564.840000
   4197   4198   4199     1   111.5100476 526.347200
   4197   4198   4217     1   111.0400475 552.288000
   4198   4197   4204     1   110.1900474 564.840000
   4198   4199   4203     1   110.1900474 564.840000
   4198   4199   4212     1   107.9700462 569.024000
   4199   4198   4217     1   111.0400475 552.288000
   4203   4199   4212     1   109.3800466 607.516800
   4205   4194   4212     1   107.9700462 569.024000
   4218   4219   4221     1   111.5100476 526.347200
   4218   4219   4239     1   110.1900474 564.840000
   4218   4229   4234     1   110.1900474 564.840000
   4218   4236   4223     1   112.4800480 524.673600
   4219   4218   4229     1   111.5100476 526.347200
   4219   4218   4236     1   107.9700462 569.024000
   4219   4221   4222     1   111.5100476 526.347200
   4219   4221   4228     1   110.1900474 564.840000
   4221   4219   4239     1   110.1900474 564.840000
   4221   4222   4223     1   111.5100476 526.347200
   4221   4222   4241     1   111.0400475 552.288000
   4222   4221   4228     1   110.1900474 564.840000
   4222   4223   4227     1   110.1900474 564.840000
   4222   4223   4236     1   107.9700462 569.024000
   4223   4222   4241     1   111.0400475 552.288000
   4227   4223   4236     1   109.3800466 607.516800
   4229   4218   4236     1   107.9700462 569.024000
   4242   4244   4246     1   111.6100477 551.451200
   4244   4246   4250     1   111.0400475 552.288000
   4246   4250   4251     1   112.3500484 533.878400
   4246   4250   4252     1   112.3500484 533.878400
   4250   4251   4262     1   111.0400475 552.288000
   4250   4252   4254     1   111.0400475 552.288000
   4251   4262   4265     1   111.0400475 529.694400
   4251   4250   4252     1   112.3500484 533.878400
   4252   4254   4258     1   111.0400475 529.694400
   4254   4258   4259     1   123.2000528 564.003200
   4254   4258   4290     1   112.2600482 538.062400
   4258   4290   4271     1   118.5150508 540.957728
   4259   4258   4290     1   118.8300510 581.576000
   4262   4265   4266     1   123.2000528 564.003200
   4262   4265   4314     1   112.2600482 538.062400
   4265   4314   4295     1   118.5150508 540.957728
   4266   4265   4314     1   118.8300510 581.576000
   4267   4268   4270     1   111.5100476 526.347200
   4267   4268   4288     1   110.1900474 564.840000
   4267   4278   4283     1   110.1900474 564.840000
   4267   4285   4272     1   112.4800480 524.673600
   4268   4270   4271     1   111.5100476 526.347200
   4268   4270   4277     1   110.1900474 564.840000
   4268   4267   4278     1   111.5100476 526.347200
   4268   4267   4285     1   107.9700462 569.024000
   4270   4271   4272     1   111.5100476 526.347200
   4270   4271   4290     1   111.0400475 552.288000
   4270   4268   4288     1   110.1900474 564.840000
   4271   4272   4276     1   110.1900474 564.840000
   4271   4272   4285     1   107.9700462 569.024000
   4271   4270   4277     1   110.1900474 564.840000
   4272   4271   4290     1   111.0400475 552.288000
   4276   4272   4285     1   109.3800466 607.516800
   4278   4267   4285     1   107.9700462 569.024000
   4291   4292   4294     1   111.5100476 526.347200
   4291   4292   4312     1   110.1900474 564.840000
   4291   4302   4307     1   110.1900474 564.840000
   4291   4309   4296     1   112.4800480 524.673600
   4292   4294   4295     1   111.5100476 526.347200
   4292   4294   4301     1   110.1900474 564.840000
   4292   4291   4302     1   111.5100476 526.347200
   4292   4291   4309     1   107.9700462 569.024000
   4294   4295   4296     1   111.5100476 526.347200
   4294   4295   4314     1   111.0400475 552.288000
   4294   4292   4312     1   110.1900474 564.840000
   4295   4296   4300     1   110.1900474 564.840000
   4295   4296   4309     1   107.9700462 569.024000
   4295   4294   4301     1   110.1900474 564.840000
   4296   4295   4314     1   111.0400475 552.288000
   4300   4296   4309     1   109.3800466 607.516800
   4302   4291   4309     1   107.9700462 569.024000
   4315   4317   4319     1   111.6100477 551.451200
   4317   4319   4323     1   111.0400475 552.288000
   4319   4323   4324     1   112.3500484 533.878400
   4319   4323   4325     1   112.3500484 533.878400
   4323   4324   4335     1   111.0400475 552.288000
   4323   4325   4327     1   111.0400475 552.288000
   4324   4323   4325     1   112.3500484 533.878400
   4324   4335   4338     1   111.0400475 529.694400
   4325   4327   4331     1   111.0400475 529.694400
   4327   4331   4332     1   123.2000528 564.003200
   4327   4331   4363     1   112.2600482 538.062400
   4331   4363   4344     1   118.5150508 540.957728
   4332   4331   4363     1   118.8300510 581.576000
   4335   4338   4339     1   123.2000528 564.003200
   4335   4338   4387     1   112.2600482 538.062400
   4338   4387   4368     1   118.5150508 540.957728
   4339   4338   4387     1   118.8300510 581.576000
   4340   4341   4343     1   111.5100476 526.347200
   4340   4341   4361     1   110.1900474 564.840000
   4340   4351   4356     1   110.1900474 564.840000
   4340   4358   4345     1   112.4800480 524.673600
   4341   4340   4351     1   111.5100476 526.347200
   4341   4340   4358     1   107.9700462 569.024000
   4341   4343   4344     1   111.5100476 526.347200
   4341   4343   4350     1   110.1900474 564.840000
   4343   4341   4361     1   110.1900474 564.840000
   4343   4344   4345     1   111.5100476 526.347200
   4343   4344   4363     1   111.0400475 552.288000
   4344   4343   4350     1   110.1900474 564.840000
   4344   4345   4349     1   110.1900474 564.840000
   4344   4345   4358     1   107.9700462 569.024000
   4345   4344   4363     1   111.0400475 552.288000
   4349   4345   4358     1   109.3800466 607.516800
   4351   4340   4358     1   107.9700462 569.024000
   4364   4365   4367     1   111.5100476 526.347200
   4364   4365   4385     1   110.1900474 564.840000
   4364   4375   4380     1   110.1900474 564.840000
   4364   4382   4369     1   112.4800480 524.673600
   4365   4364   4375     1   111.5100476 526.347200
   4365   4364   4382     1   107.9700462 569.024000
   4365   4367   4368     1   111.5100476 526.347200
   4365   4367   4374     1   110.1900474 564.840000
   4367   4365   4385     1   110.1900474 564.840000
   4367   4368   4369     1   111.5100476 526.347200
   4367   4368   4387     1   111.0400475 552.288000
   4368   4367   4374     1   110.1900474 564.840000
   4368   4369   4373     1   110.1900474 564.840000
   4368   4369   4382     1   107.9700462 569.024000
   4369   4368   4387     1   111.0400475 552.288000
   4373   4369   4382     1   109.3800466 607.516800
   4375   4364   4382     1   107.9700462 569.024000
   4388   4390   4392     1   111.6100477 551.451200
   4390   4392   4396     1   111.0400475 552.288000
   4392   4396   4397     1   112.3500484 533.878400
   4392   4396   4398     1   112.3500484 533.878400
   4396   4397   4408     1   111.0400475 552.288000
   4396   4398   4400     1   111.0400475 552.288000
   4397   4408   4411     1   111.0400475 529.694400
   4397   4396   4398     1   112.3500484 533.878400
   4398   4400   4404     1   111.0400475 529.694400
   4400   4404   4405     1   123.2000528 564.003200
   4400   4404   4436     1   112.2600482 538.062400
   4404   4436   4417     1   118.5150508 540.957728
   4405   4404   4436     1   118.8300510 581.576000
   4408   4411   4412     1   123.2000528 564.003200
   4408   4411   4460     1   112.2600482 538.062400
   4411   4460   4441     1   118.5150508 540.957728
   4412   4411   4460     1   118.8300510 581.576000
   4413   4414   4416     1   111.5100476 526.347200
   4413   4414   4434     1   110.1900474 564.840000
   4413   4424   4429     1   110.1900474 564.840000
   4413   4431   4418     1   112.4800480 524.673600
   4414   4416   4417     1   111.5100476 526.347200
   4414   4416   4423     1   110.1900474 564.840000
   4414   4413   4424     1   111.5100476 526.347200
   4414   4413   4431     1   107.9700462 569.024000
   4416   4417   4418     1   111.5100476 526.347200
   4416   4417   4436     1   111.0400475 552.288000
   4416   4414   4434     1   110.1900474 564.840000
   4417   4418   4422     1   110.1900474 564.840000
   4417   4418   4431     1   107.9700462 569.024000
   4417   4416   4423     1   110.1900474 564.840000
   4418   4417   4436     1   111.0400475 552.288000
   4422   4418   4431     1   109.3800466 607.516800
   4424   4413   4431     1   107.9700462 569.024000
   4437   4438   4440     1   111.5100476 526.347200
   4437   4438   4458     1   110.1900474 564.840000
   4437   4448   4453     1   110.1900474 564.840000
   4437   4455   4442     1   112.4800480 524.673600
   4438   4440   4441     1   111.5100476 526.347200
   4438   4440   4447     1   110.1900474 564.840000
   4438   4437   4448     1   111.5100476 526.347200
   4438   4437   4455     1   107.9700462 569.024000
   4440   4441   4442     1   111.5100476 526.347200
   4440   4441   4460     1   111.0400475 552.288000
   4440   4438   4458     1   110.1900474 564.840000
   4441   4442   4446     1   110.1900474 564.840000
   4441   4442   4455     1   107.9700462 569.024000
   4441   4440   4447     1   110.1900474 564.840000
   4442   4441   4460     1   111.0400475 552.288000
   4446   4442   4455     1   109.3800466 607.516800
   4448   4437   4455     1   107.9700462 569.024000
   4461   4463   4465     1   111.6100477 551.451200
   4463   4465   4469     1   111.0400475 552.288000
   4465   4469   4470     1   112.3500484 533.878400
   4465   4469   4471     1   112.3500484 533.878400
   4469   4470   4481     1   111.0400475 552.288000
   4469   4471   4473     1   111.0400475 552.288000
   4470   4469   4471     1   112.3500484 533.878400
   4470   4481   4484     1   111.0400475 529.694400
   4471   4473   4477     1   111.0400475 529.694400
   4473   4477   4478     1   123.2000528 564.003200
   4473   4477   4509     1   112.2600482 538.062400
   4477   4509   4490     1   118.5150508 540.957728
   4478   4477   4509     1   118.8300510 581.576000
   4481   4484   4485     1   123.2000528 564.003200
   4481   4484   4533     1   112.2600482 538.062400
   4484   4533   4514     1   118.5150508 540.957728
   4485   4484   4533     1   118.8300510 581.576000
   4486   4487   4489     1   111.5100476 526.347200
   4486   4487   4507     1   110.1900474 564.840000
   4486   4497   4502     1   110.1900474 564.840000
   4486   4504   4491     1   112.4800480 524.673600
   4487   4486   4497     1   111.5100476 526.347200
   4487   4486   4504     1   107.9700462 569.024000
   4487   4489   4490     1   111.5100476 526.347200
   4487   4489   4496     1   110.1900474 564.840000
   4489   4487   4507     1   110.1900474 564.840000
   4489   4490   4491     1   111.5100476 526.347200
   4489   4490   4509     1   111.0400475 552.288000
   4490   4489   4496     1   110.1900474 564.840000
   4490   4491   4495     1   110.1900474 564.840000
   4490   4491   4504     1   107.9700462 569.024000
   4491   4490   4509     1   111.0400475 552.288000
   4495   4491   4504     1   109.3800466 607.516800
   4497   4486   4504     1   107.9700462 569.024000
   4510   4511   4513     1   111.5100476 526.347200
   4510   4511   4531     1   110.1900474 564.840000
   4510   4521   4526     1   110.1900474 564.840000
   4510   4528   4515     1   112.4800480 524.673600
   4511   4510   4521     1   111.5100476 526.347200
   4511   4510   4528     1   107.9700462 569.024000
   4511   4513   4514     1   111.5100476 526.347200
   4511   4513   4520     1   110.1900474 564.840000
   4513   4511   4531     1   110.1900474 564.840000
   4513   4514   4515     1   111.5100476 526.347200
   4513   4514   4533     1   111.0400475 552.288000
   4514   4513   4520     1   110.1900474 564.840000
   4514   4515   4519     1   110.1900474 564.840000
   4514   4515   4528     1   107.9700462 569.024000
   4515   4514   4533     1   111.0400475 552.288000
   4519   4515   4528     1   109.3800466 607.516800
   4521   4510   4528     1   107.9700462 569.024000
   4534   4536   4538     1   111.6100477 551.451200
   4536   4538   4542     1   111.0400475 552.288000
   4538   4542   4543     1   112.3500484 533.878400
   4538   4542   4544     1   112.3500484 533.878400
   4542   4543   4554     1   111.0400475 552.288000
   4542   4544   4546     1   111.0400475 552.288000
   4543   4554   4557     1   111.0400475 529.694400
   4543   4542   4544     1   112.3500484 533.878400
   4544   4546   4550     1   111.0400475 529.694400
   4546   4550   4551     1   123.2000528 564.003200
   4546   4550   4582     1   112.2600482 538.062400
   4550   4582   4563     1   118.5150508 540.957728
   4551   4550   4582     1   118.8300510 581.576000
   4554   4557   4558     1   123.2000528 564.003200
   4554   4557   4606     1   112.2600482 538.062400
   4557   4606   4587     1   118.5150508 540.957728
   4558   4557   4606     1   118.8300510 581.576000
   4559   4560   4562     1   111.5100476 526.347200
   4559   4560   4580     1   110.1900474 564.840000
   4559   4570   4575     1   110.1900474 564.840000
   4559   4577   4564     1   112.4800480 524.673600
   4560   4562   4563     1   111.5100476 526.347200
   4560   4562   4569     1   110.1900474 564.840000
   4560   4559   4570     1   111.5100476 526.347200
   4560   4559   4577     1   107.9700462 569.024000
   4562   4563   4564     1   111.5100476 526.347200
   4562   4563   4582     1   111.0400475 552.288000
   4562   4560   4580     1   110.1900474 564.840000
   4563   4564   4568     1   110.1900474 564.840000
   4563   4564   4577     1   107.9700462 569.024000
   4563   4562   4569     1   110.1900474 564.840000
   4564   4563   4582     1   111.0400475 552.288000
   4568   4564   4577     1   109.3800466 607.516800
   4570   4559   4577     1   107.9700462 569.024000
   4583   4584   4586     1   111.5100476 526.347200
   4583   4584   4604     1   110.1900474 564.840000
   4583   4594   4599     1   110.1900474 564.840000
   4583   4601   4588     1   112.4800480 524.673600
   4584   4586   4587     1   111.5100476 526.347200
   4584   4586   4593     1   110.1900474 564.840000
   4584   4583   4594     1   111.5100476 526.347200
   4584   4583   4601     1   107.9700462 569.024000
   4586   4587   4588     1   111.5100476 526.347200
   4586   4587   4606     1   111.0400475 552.288000
   4586   4584   4604     1   110.1900474 564.840000
   4587   4588   4592     1   110.1900474 564.840000
   4587   4588   4601     1   107.9700462 569.024000
   4587   4586   4593     1   110.1900474 564.840000
   4588   4587   4606     1   111.0400475 552.288000
   4592   4588   4601     1   109.3800466 607.516800
   4594   4583   4601     1   107.9700462 569.024000
   4607   4609   4611     1   111.6100477 551.451200
   4609   4611   4615     1   111.0400475 552.288000
   4611   4615   4616     1   112.3500484 533.878400
   4611   4615   4617     1   112.3500484 533.878400
   4615   4616   4627     1   111.0400475 552.288000
   4615   4617   4619     1   111.0400475 552.288000
   4616   4615   4617     1   112.3500484 533.878400
   4616   4627   4630     1   111.0400475 529.694400
   4617   4619   4623     1   111.0400475 529.694400
   4619   4623   4624     1   123.2000528 564.003200
   4619   4623   4655     1   112.2600482 538.062400
   4623   4655   4636     1   118.5150508 540.957728
   4624   4623   4655     1   118.8300510 581.576000
   4627   4630   4631     1   123.2000528 564.003200
   4627   4630   4679     1   112.2600482 538.062400
   4630   4679   4660     1   118.5150508 540.957728
   4631   4630   4679     1   118.8300510 581.576000
   4632   4633   4635     1   111.5100476 526.347200
   4632   4633   4653     1   110.1900474 564.840000
   4632   4643   4648     1   110.1900474 564.840000
   4632   4650   4637     1   112.4800480 524.673600
   4633   4632   4643     1   111.5100476 526.347200
   4633   4632   4650     1   107.9700462 569.024000
   4633   4635   4636     1   111.5100476 526.347200
   4633   4635   4642     1   110.1900474 564.840000
   4635   4633   4653     1   110.1900474 564.840000
   4635   4636   4637     1   111.5100476 526.347200
   4635   4636   4655     1   111.0400475 552.288000
   4636   4635   4642     1   110.1900474 564.840000
   4636   4637   4641     1   110.1900474 564.840000
   4636   4637   4650     1   107.9700462 569.024000
   4637   4636   4655     1   111.0400475 552.288000
   4641   4637   4650     1   109.3800466 607.516800
   4643   4632   4650     1   107.9700462 569.024000
   4656   4657   4659     1   111.5100476 526.347200
   4656   4657   4677     1   110.1900474 564.840000
   4656   4667   4672     1   110.1900474 564.840000
   4656   4674   4661     1   112.4800480 524.673600
   4657   4656   4667     1   111.5100476 526.347200
   4657   4656   4674     1   107.9700462 569.024000
   4657   4659   4660     1   111.5100476 526.347200
   4657   4659   4666     1   110.1900474 564.840000
   4659   4657   4677     1   110.1900474 564.840000
   4659   4660   4661     1   111.5100476 526.347200
   4659   4660   4679     1   111.0400475 552.288000
   4660   4659   4666     1   110.1900474 564.840000
   4660   4661   4665     1   110.1900474 564.840000
   4660   4661   4674     1   107.9700462 569.024000
   4661   4660   4679     1   111.0400475 552.288000
   4665   4661   4674     1   109.3800466 607.516800
   4667   4656   4674     1   107.9700462 569.024000
   4680   4682   4684     1   111.6100477 551.451200
   4682   4684   4688     1   111.0400475 552.288000
   4684   4688   4689     1   112.3500484 533.878400
   4684   4688   4690     1   112.3500484 533.878400
   4688   4689   4700     1   111.0400475 552.288000
   4688   4690   4692     1   111.0400475 552.288000
   4689   4700   4703     1   111.0400475 529.694400
   4689   4688   4690     1   112.3500484 533.878400
   4690   4692   4696     1   111.0400475 529.694400
   4692   4696   4697     1   123.2000528 564.003200
   4692   4696   4728     1   112.2600482 538.062400
   4696   4728   4709     1   118.5150508 540.957728
   4697   4696   4728     1   118.8300510 581.576000
   4700   4703   4704     1   123.2000528 564.003200
   4700   4703   4752     1   112.2600482 538.062400
   4703   4752   4733     1   118.5150508 540.957728
   4704   4703   4752     1   118.8300510 581.576000
   4705   4706   4708     1   111.5100476 526.347200
   4705   4706   4726     1   110.1900474 564.840000
   4705   4716   4721     1   110.1900474 564.840000
   4705   4723   4710     1   112.4800480 524.673600
   4706   4708   4709     1   111.5100476 526.347200
   4706   4708   4715     1   110.1900474 564.840000
   4706   4705   4716     1   111.5100476 526.347200
   4706   4705   4723     1   107.9700462 569.024000
   4708   4709   4710     1   111.5100476 526.347200
   4708   4709   4728     1   111.0400475 552.288000
   4708   4706   4726     1   110.1900474 564.840000
   4709   4710   4714     1   110.1900474 564.840000
   4709   4710   4723     1   107.9700462 569.024000
   4709   4708   4715     1   110.1900474 564.840000
   4710   4709   4728     1   111.0400475 552.288000
   4714   4710   4723     1   109.3800466 607.516800
   4716   4705   4723     1   107.9700462 569.024000
   4729   4730   4732     1   111.5100476 526.347200
   4729   4730   4750     1   110.1900474 564.840000
   4729   4740   4745     1   110.1900474 564.840000
   4729   4747   4734     1   112.4800480 524.673600
   4730   4732   4733     1   111.5100476 526.347200
   4730   4732   4739     1   110.1900474 564.840000
   4730   4729   4740     1   111.5100476 526.347200
   4730   4729   4747     1   107.9700462 569.024000
   4732   4733   4734     1   111.5100476 526.347200
   4732   4733   4752     1   111.0400475 552.288000
   4732   4730   4750     1   110.1900474 564.840000
   4733   4734   4738     1   110.1900474 564.840000
   4733   4734   4747     1   107.9700462 569.024000
   4733   4732   4739     1   110.1900474 564.840000
   4734   4733   4752     1   111.0400475 552.288000
   4738   4734   4747     1   109.3800466 607.516800
   4740   4729   4747     1   107.9700462 569.024000
   4753   4755   4757     1   111.6100477 551.451200
   4755   4757   4761     1   111.0400475 552.288000
   4757   4761   4762     1   112.3500484 533.878400
   4757   4761   4763     1   112.3500484 533.878400
   4761   4762   4773     1   111.0400475 552.288000
   4761   4763   4765     1   111.0400475 552.288000
   4762   4761   4763     1   112.3500484 533.878400
   4762   4773   4776     1   111.0400475 529.694400
   4763   4765   4769     1   111.0400475 529.694400
   4765   4769   4770     1   123.2000528 564.003200
   4765   4769   4801     1   112.2600482 538.062400
   4769   4801   4782     1   118.5150508 540.957728
   4770   4769   4801     1   118.8300510 581.576000
   4773   4776   4777     1   123.2000528 564.003200
   4773   4776   4825     1   112.2600482 538.062400
   4776   4825   4806     1   118.5150508 540.957728
   4777   4776   4825     1   118.8300510 581.576000
   4778   4779   4781     1   111.5100476 526.347200
   4778   4779   4799     1   110.1900474 564.840000
   4778   4789   4794     1   110.1900474 564.840000
   4778   4796   4783     1   112.4800480 524.673600
   4779   4778   4789     1   111.5100476 526.347200
   4779   4778   4796     1   107.9700462 569.024000
   4779   4781   4782     1   111.5100476 526.347200
   4779   4781   4788     1   110.1900474 564.840000
   4781   4779   4799     1   110.1900474 564.840000
   4781   4782   4783     1   111.5100476 526.347200
   4781   4782   4801     1   111.0400475 552.288000
   4782   4781   4788     1   110.1900474 564.840000
   4782   4783   4787     1   110.1900474 564.840000
   4782   4783   4796     1   107.9700462 569.024000
   4783   4782   4801     1   111.0400475 552.288000
   4787   4783   4796     1   109.3800466 607.516800
   4789   4778   4796     1   107.9700462 569.024000
   4802   4803   4805     1   111.5100476 526.347200
   4802   4803   4823     1   110.1900474 564.840000
   4802   4813   4818     1   110.1900474 564.840000
   4802   4820   4807     1   112.4800480 524.673600
   4803   4802   4813     1   111.5100476 526.347200
   4803   4802   4820     1   107.9700462 569.024000
   4803   4805   4806     1   111.5100476 526.347200
   4803   4805   4812     1   110.1900474 564.840000
   4805   4803   4823     1   110.1900474 564.840000
   4805   4806   4807     1   111.5100476 526.347200
   4805   4806   4825     1   111.0400475 552.288000
   4806   4805   4812     1   110.1900474 564.840000
   4806   4807   4811     1   110.1900474 564.840000
   4806   4807   4820     1   107.9700462 569.024000
   4807   4806   4825     1   111.0400475 552.288000
   4811   4807   4820     1   109.3800466 607.516800
   4813   4802   4820     1   107.9700462 569.024000
   4826   4828   4830     1   111.6100477 551.451200
   4828   4830   4834     1   111.0400475 552.288000
   4830   4834   4835     1   112.3500484 533.878400
   4830   4834   4836     1   112.3500484 533.878400
   4834   4835   4846     1   111.0400475 552.288000
   4834   4836   4838     1   111.0400475 552.288000
   4835   4846   4849     1   111.0400475 529.694400
   4835   4834   4836     1   112.3500484 533.878400
   4836   4838   4842     1   111.0400475 529.694400
   4838   4842   4843     1   123.2000528 564.003200
   4838   4842   4874     1   112.2600482 538.062400
   4842   4874   4855     1   118.5150508 540.957728
   4843   4842   4874     1   118.8300510 581.576000
   4846   4849   4850     1   123.2000528 564.003200
   4846   4849   4898     1   112.2600482 538.062400
   4849   4898   4879     1   118.5150508 540.957728
   4850   4849   4898     1   118.8300510 581.576000
   4851   4852   4854     1   111.5100476 526.347200
   4851   4852   4872     1   110.1900474 564.840000
   4851   4862   4867     1   110.1900474 564.840000
   4851   4869   4856     1   112.4800480 524.673600
   4852   4854   4855     1   111.5100476 526.347200
   4852   4854   4861     1   110.1900474 564.840000
   4852   4851   4862     1   111.5100476 526.347200
   4852   4851   4869     1   107.9700462 569.024000
   4854   4855   4856     1   111.5100476 526.347200
   4854   4855   4874     1   111.0400475 552.288000
   4854   4852   4872     1   110.1900474 564.840000
   4855   4856   4860     1   110.1900474 564.840000
   4855   4856   4869     1   107.9700462 569.024000
   4855   4854   4861     1   110.1900474 564.840000
   4856   4855   4874     1   111.0400475 552.288000
   4860   4856   4869     1   109.3800466 607.516800
   4862   4851   4869     1   107.9700462 569.024000
   4875   4876   4878     1   111.5100476 526.347200
   4875   4876   4896     1   110.1900474 564.840000
   4875   4886   4891     1   110.1900474 564.840000
   4875   4893   4880     1   112.4800480 524.673600
   4876   4878   4879     1   111.5100476 526.347200
   4876   4878   4885     1   110.1900474 564.840000
   4876   4875   4886     1   111.5100476 526.347200
   4876   4875   4893     1   107.9700462 569.024000
   4878   4879   4880     1   111.5100476 526.347200
   4878   4879   4898     1   111.0400475 552.288000
   4878   4876   4896     1   110.1900474 564.840000
   4879   4880   4884     1   110.1900474 564.840000
   4879   4880   4893     1   107.9700462 569.024000
   4879   4878   4885     1   110.1900474 564.840000
   4880   4879   4898     1   111.0400475 552.288000
   4884   4880   4893     1   109.3800466 607.516800
   4886   4875   4893     1   107.9700462 569.024000
   4899   4901   4903     1   111.6100477 551.451200
   4901   4903   4907     1   111.0400475 552.288000
   4903   4907   4908     1   112.3500484 533.878400
   4903   4907   4909     1   112.3500484 533.878400
   4907   4908   4919     1   111.0400475 552.288000
   4907   4909   4911     1   111.0400475 552.288000
   4908   4907   4909     1   112.3500484 533.878400
   4908   4919   4922     1   111.0400475 529.694400
   4909   4911   4915     1   111.0400475 529.694400
   4911   4915   4916     1   123.2000528 564.003200
   4911   4915   4947     1   112.2600482 538.062400
   4915   4947   4928     1   118.5150508 540.957728
   4916   4915   4947     1   118.8300510 581.576000
   4919   4922   4923     1   123.2000528 564.003200
   4919   4922   4971     1   112.2600482 538.062400
   4922   4971   4952     1   118.5150508 540.957728
   4923   4922   4971     1   118.8300510 581.576000
   4924   4925   4927     1   111.5100476 526.347200
   4924   4925   4945     1   110.1900474 564.840000
   4924   4935   4940     1   110.1900474 564.840000
   4924   4942   4929     1   112.4800480 524.673600
   4925   4924   4935     1   111.5100476 526.347200
   4925   4924   4942     1   107.9700462 569.024000
   4925   4927   4928     1   111.5100476 526.347200
   4925   4927   4934     1   110.1900474 564.840000
   4927   4925   4945     1   110.1900474 564.840000
   4927   4928   4929     1   111.5100476 526.347200
   4927   4928   4947     1   111.0400475 552.288000
   4928   4927   4934     1   110.1900474 564.840000
   4928   4929   4933     1   110.1900474 564.840000
   4928   4929   4942     1   107.9700462 569.024000
   4929   4928   4947     1   111.0400475 552.288000
   4933   4929   4942     1   109.3800466 607.516800
   4935   4924   4942     1   107.9700462 569.024000
   4948   4949   4951     1   111.5100476 526.347200
   4948   4949   4969     1   110.1900474 564.840000
   4948   4959   4964     1   110.1900474 564.840000
   4948   4966   4953     1   112.4800480 524.673600
   4949   4948   4959     1   111.5100476 526.347200
   4949   4948   4966     1   107.9700462 569.024000
   4949   4951   4952     1   111.5100476 526.347200
   4949   4951   4958     1   110.1900474 564.840000
   4951   4949   4969     1   110.1900474 564.840000
   4951   4952   4953     1   111.5100476 526.347200
   4951   4952   4971     1   111.0400475 552.288000
   4952   4951   4958     1   110.1900474 564.840000
   4952   4953   4957     1   110.1900474 564.840000
   4952   4953   4966     1   107.9700462 569.024000
   4953   4952   4971     1   111.0400475 552.288000
   4957   4953   4966     1   109.3800466 607.516800
   4959   4948   4966     1   107.9700462 569.024000
   4972   4974   4976     1   111.6100477 551.451200
   4974   4976   4980     1   111.0400475 552.288000
   4976   4980   4981     1   112.3500484 533.878400
   4976   4980   4982     1   112.3500484 533.878400
   4980   4981   4992     1   111.0400475 552.288000
   4980   4982   4984     1   111.0400475 552.288000
   4981   4992   4995     1   111.0400475 529.694400
   4981   4980   4982     1   112.3500484 533.878400
   4982   4984   4988     1   111.0400475 529.694400
   4984   4988   4989     1   123.2000528 564.003200
   4984   4988   5020     1   112.2600482 538.062400
   4988   5020   5001     1   118.5150508 540.957728
   4989   4988   5020     1   118.8300510 581.576000
   4992   4995   4996     1   123.2000528 564.003200
   4992   4995   5044     1   112.2600482 538.062400
   4995   5044   5025     1   118.5150508 540.957728
   4996   4995   5044     1   118.8300510 581.576000
   4997   4998   5000     1   111.5100476 526.347200
   4997   4998   5018     1   110.1900474 564.840000
   4997   5008   5013     1   110.1900474 564.840000
   4997   5015   5002     1   112.4800480 524.673600
   4998   5000   5001     1   111.5100476 526.347200
   4998   5000   5007     1   110.1900474 564.840000
   4998   4997   5008     1   111.5100476 526.347200
   4998   4997   5015     1   107.9700462 569.024000
   5000   5001   5002     1   111.5100476 526.347200
   5000   5001   5020     1   111.0400475 552.288000
   5000   4998   5018     1   110.1900474 564.840000
   5001   5002   5006     1   110.1900474 564.840000
   5001   5002   5015     1   107.9700462 569.024000
   5001   5000   5007     1   110.1900474 564.840000
   5002   5001   5020     1   111.0400475 552.288000
   5006   5002   5015     1   109.3800466 607.516800
   5008   4997   5015     1   107.9700462 569.024000
   5021   5022   5024     1   111.5100476 526.347200
   5021   5022   5042     1   110.1900474 564.840000
   5021   5032   5037     1   110.1900474 564.840000
   5021   5039   5026     1   112.4800480 524.673600
   5022   5024   5025     1   111.5100476 526.347200
   5022   5024   5031     1   110.1900474 564.840000
   5022   5021   5032     1   111.5100476 526.347200
   5022   5021   5039     1   107.9700462 569.024000
   5024   5025   5026     1   111.5100476 526.347200
   5024   5025   5044     1   111.0400475 552.288000
   5024   5022   5042     1   110.1900474 564.840000
   5025   5026   5030     1   110.1900474 564.840000
   5025   5026   5039     1   107.9700462 569.024000
   5025   5024   5031     1   110.1900474 564.840000
   5026   5025   5044     1   111.0400475 552.288000
   5030   5026   5039     1   109.3800466 607.516800
   5032   5021   5039     1   107.9700462 569.024000
   5045   5047   5049     1   111.6100477 551.451200
   5047   5049   5053     1   111.0400475 552.288000
   5049   5053   5054     1   112.3500484 533.878400
   5049   5053   5055     1   112.3500484 533.878400
   5053   5054   5065     1   111.0400475 552.288000
   5053   5055   5057     1   111.0400475 552.288000
   5054   5053   5055     1   112.3500484 533.878400
   5054   5065   5068     1   111.0400475 529.694400
   5055   5057   5061     1   111.0400475 529.694400
   5057   5061   5062     1   123.2000528 564.003200
   5057   5061   5093     1   112.2600482 538.062400
   5061   5093   5074     1   118.5150508 540.957728
   5062   5061   5093     1   118.8300510 581.576000
   5065   5068   5069     1   123.2000528 564.003200
   5065   5068   5117     1   112.2600482 538.062400
   5068   5117   5098     1   118.5150508 540.957728
   5069   5068   5117     1   118.8300510 581.576000
   5070   5071   5073     1   111.5100476 526.347200
   5070   5071   5091     1   110.1900474 564.840000
   5070   5081   5086     1   110.1900474 564.840000
   5070   5088   5075     1   112.4800480 524.673600
   5071   5070   5081     1   111.5100476 526.347200
   5071   5070   5088     1   107.9700462 569.024000
   5071   5073   5074     1   111.5100476 526.347200
   5071   5073   5080     1   110.1900474 564.840000
   5073   5071   5091     1   110.1900474 564.840000
   5073   5074   5075     1   111.5100476 526.347200
   5073   5074   5093     1   111.0400475 552.288000
   5074   5073   5080     1   110.1900474 564.840000
   5074   5075   5079     1   110.1900474 564.840000
   5074   5075   5088     1   107.9700462 569.024000
   5075   5074   5093     1   111.0400475 552.288000
   5079   5075   5088     1   109.3800466 607.516800
   5081   5070   5088     1   107.9700462 569.024000
   5094   5095   5097     1   111.5100476 526.347200
   5094   5095   5115     1   110.1900474 564.840000
   5094   5105   5110     1   110.1900474 564.840000
   5094   5112   5099     1   112.4800480 524.673600
   5095   5094   5105     1   111.5100476 526.347200
   5095   5094   5112     1   107.9700462 569.024000
   5095   5097   5098     1   111.5100476 526.347200
   5095   5097   5104     1   110.1900474 564.840000
   5097   5095   5115     1   110.1900474 564.840000
   5097   5098   5099     1   111.5100476 526.347200
   5097   5098   5117     1   111.0400475 552.288000
   5098   5097   5104     1   110.1900474 564.840000
   5098   5099   5103     1   110.1900474 564.840000
   5098   5099   5112     1   107.9700462 569.024000
   5099   5098   5117     1   111.0400475 552.288000
   5103   5099   5112     1   109.3800466 607.516800
   5105   5094   5112     1   107.9700462 569.024000
   5118   5120   5122     1   111.6100477 551.451200
   5120   5122   5126     1   111.0400475 552.288000
   5122   5126   5127     1   112.3500484 533.878400
   5122   5126   5128     1   112.3500484 533.878400
   5126   5127   5138     1   111.0400475 552.288000
   5126   5128   5130     1   111.0400475 552.288000
   5127   5138   5141     1   111.0400475 529.694400
   5127   5126   5128     1   112.3500484 533.878400
   5128   5130   5134     1   111.0400475 529.694400
   5130   5134   5135     1   123.2000528 564.003200
   5130   5134   5166     1   112.2600482 538.062400
   5134   5166   5147     1   118.5150508 540.957728
   5135   5134   5166     1   118.8300510 581.576000
   5138   5141   5142     1   123.2000528 564.003200
   5138   5141   5190     1   112.2600482 538.062400
   5141   5190   5171     1   118.5150508 540.957728
   5142   5141   5190     1   118.8300510 581.576000
   5143   5144   5146     1   111.5100476 526.347200
   5143   5144   5164     1   110.1900474 564.840000
   5143   5154   5159     1   110.1900474 564.840000
   5143   5161   5148     1   112.4800480 524.673600
   5144   5146   5147     1   111.5100476 526.347200
   5144   5146   5153     1   110.1900474 564.840000
   5144   5143   5154     1   111.5100476 526.347200
   5144   5143   5161     1   107.9700462 569.024000
   5146   5147   5148     1   111.5100476 526.347200
   5146   5147   5166     1   111.0400475 552.288000
   5146   5144   5164     1   110.1900474 564.840000
   5147   5148   5152     1   110.1900474 564.840000
   5147   5148   5161     1   107.9700462 569.024000
   5147   5146   5153     1   110.1900474 564.840000
   5148   5147   5166     1   111.0400475 552.288000
   5152   5148   5161     1   109.3800466 607.516800
   5154   5143   5161     1   107.9700462 569.024000
   5167   5168   5170     1   111.5100476 526.347200
   5167   5168   5188     1   110.1900474 564.840000
   5167   5178   5183     1   110.1900474 564.840000
   5167   5185   5172     1   112.4800480 524.673600
   5168   5170   5171     1   111.5100476 526.347200
   5168   5170   5177     1   110.1900474 564.840000
   5168   5167   5178     1   111.5100476 526.347200
   5168   5167   5185     1   107.9700462 569.024000
   5170   5171   5172     1   111.5100476 526.347200
   5170   5171   5190     1   111.0400475 552.288000
   5170   5168   5188     1   110.1900474 564.840000
   5171   5172   5176     1   110.1900474 564.840000
   5171   5172   5185     1   107.9700462 569.024000
   5171   5170   5177     1   110.1900474 564.840000
   5172   5171   5190     1   111.0400475 552.288000
   5176   5172   5185     1   109.3800466 607.516800
   5178   5167   5185     1   107.9700462 569.024000
   5191   5193   5195     1   111.6100477 551.451200
   5193   5195   5199     1   111.0400475 552.288000
   5195   5199   5200     1   112.3500484 533.878400
   5195   5199   5201     1   112.3500484 533.878400
   5199   5200   5211     1   111.0400475 552.288000
   5199   5201   5203     1   111.0400475 552.288000
   5200   5199   5201     1   112.3500484 533.878400
   5200   5211   5214     1   111.0400475 529.694400
   5201   5203   5207     1   111.0400475 529.694400
   5203   5207   5208     1   123.2000528 564.003200
   5203   5207   5239     1   112.2600482 538.062400
   5207   5239   5220     1   118.5150508 540.957728
   5208   5207   5239     1   118.8300510 581.576000
   5211   5214   5215     1   123.2000528 564.003200
   5211   5214   5263     1   112.2600482 538.062400
   5214   5263   5244     1   118.5150508 540.957728
   5215   5214   5263     1   118.8300510 581.576000
   5216   5217   5219     1   111.5100476 526.347200
   5216   5217   5237     1   110.1900474 564.840000
   5216   5227   5232     1   110.1900474 564.840000
   5216   5234   5221     1   112.4800480 524.673600
   5217   5216   5227     1   111.5100476 526.347200
   5217   5216   5234     1   107.9700462 569.024000
   5217   5219   5220     1   111.5100476 526.347200
   5217   5219   5226     1   110.1900474 564.840000
   5219   5217   5237     1   110.1900474 564.840000
   5219   5220   5221     1   111.5100476 526.347200
   5219   5220   5239     1   111.0400475 552.288000
   5220   5219   5226     1   110.1900474 564.840000
   5220   5221   5225     1   110.1900474 564.840000
   5220   5221   5234     1   107.9700462 569.024000
   5221   5220   5239     1   111.0400475 552.288000
   5225   5221   5234     1   109.3800466 607.516800
   5227   5216   5234     1   107.9700462 569.024000
   5240   5241   5243     1   111.5100476 526.347200
   5240   5241   5261     1   110.1900474 564.840000
   5240   5251   5256     1   110.1900474 564.840000
   5240   5258   5245     1   112.4800480 524.673600
   5241   5240   5251     1   111.5100476 526.347200
   5241   5240   5258     1   107.9700462 569.024000
   5241   5243   5244     1   111.5100476 526.347200
   5241   5243   5250     1   110.1900474 564.840000
   5243   5241   5261     1   110.1900474 564.840000
   5243   5244   5245     1   111.5100476 526.347200
   5243   5244   5263     1   111.0400475 552.288000
   5244   5243   5250     1   110.1900474 564.840000
   5244   5245   5249     1   110.1900474 564.840000
   5244   5245   5258     1   107.9700462 569.024000
   5245   5244   5263     1   111.0400475 552.288000
   5249   5245   5258     1   109.3800466 607.516800
   5251   5240   5258     1   107.9700462 569.024000
   5264   5266   5268     1   111.6100477 551.451200
   5266   5268   5272     1   111.0400475 552.288000
   5268   5272   5273     1   112.3500484 533.878400
   5268   5272   5274     1   112.3500484 533.878400
   5272   5273   5284     1   111.0400475 552.288000
   5272   5274   5276     1   111.0400475 552.288000
   5273   5284   5287     1   111.0400475 529.694400
   5273   5272   5274     1   112.3500484 533.878400
   5274   5276   5280     1   111.0400475 529.694400
   5276   5280   5281     1   123.2000528 564.003200
   5276   5280   5312     1   112.2600482 538.062400
   5280   5312   5293     1   118.5150508 540.957728
   5281   5280   5312     1   118.8300510 581.576000
   5284   5287   5288     1   123.2000528 564.003200
   5284   5287   5336     1   112.2600482 538.062400
   5287   5336   5317     1   118.5150508 540.957728
   5288   5287   5336     1   118.8300510 581.576000
   5289   5290   5292     1   111.5100476 526.347200
   5289   5290   5310     1   110.1900474 564.840000
   5289   5300   5305     1   110.1900474 564.840000
   5289   5307   5294     1   112.4800480 524.673600
   5290   5292   5293     1   111.5100476 526.347200
   5290   5292   5299     1   110.1900474 564.840000
   5290   5289   5300     1   111.5100476 526.347200
   5290   5289   5307     1   107.9700462 569.024000
   5292   5293   5294     1   111.5100476 526.347200
   5292   5293   5312     1   111.0400475 552.288000
   5292   5290   5310     1   110.1900474 564.840000
   5293   5294   5298     1   110.1900474 564.840000
   5293   5294   5307     1   107.9700462 569.024000
   5293   5292   5299     1   110.1900474 564.840000
   5294   5293   5312     1   111.0400475 552.288000
   5298   5294   5307     1   109.3800466 607.516800
   5300   5289   5307     1   107.9700462 569.024000
   5313   5314   5316     1   111.5100476 526.347200
   5313   5314   5334     1   110.1900474 564.840000
   5313   5324   5329     1   110.1900474 564.840000
   5313   5331   5318     1   112.4800480 524.673600
   5314   5316   5317     1   111.5100476 526.347200
   5314   5316   5323     1   110.1900474 564.840000
   5314   5313   5324     1   111.5100476 526.347200
   5314   5313   5331     1   107.9700462 569.024000
   5316   5317   5318     1   111.5100476 526.347200
   5316   5317   5336     1   111.0400475 552.288000
   5316   5314   5334     1   110.1900474 564.840000
   5317   5318   5322     1   110.1900474 564.840000
   5317   5318   5331     1   107.9700462 569.024000
   5317   5316   5323     1   110.1900474 564.840000
   5318   5317   5336     1   111.0400475 552.288000
   5322   5318   5331     1   109.3800466 607.516800
   5324   5313   5331     1   107.9700462 569.024000
   5337   5339   5341     1   111.6100477 551.451200
   5339   5341   5345     1   111.0400475 552.288000
   5341   5345   5346     1   112.3500484 533.878400
   5341   5345   5347     1   112.3500484 533.878400
   5345   5346   5357     1   111.0400475 552.288000
   5345   5347   5349     1   111.0400475 552.288000
   5346   5345   5347     1   112.3500484 533.878400
   5346   5357   5360     1   111.0400475 529.694400
   5347   5349   5353     1   111.0400475 529.694400
   5349   5353   5354     1   123.2000528 564.003200
   5349   5353   5385     1   112.2600482 538.062400
   5353   5385   5366     1   118.5150508 540.957728
   5354   5353   5385     1   118.8300510 581.576000
   5357   5360   5361     1   123.2000528 564.003200
   5357   5360   5409     1   112.2600482 538.062400
   5360   5409   5390     1   118.5150508 540.957728
   5361   5360   5409     1   118.8300510 581.576000
   5362   5363   5365     1   111.5100476 526.347200
   5362   5363   5383     1   110.1900474 564.840000
   5362   5373   5378     1   110.1900474 564.840000
   5362   5380   5367     1   112.4800480 524.673600
   5363   5362   5373     1   111.5100476 526.347200
   5363   5362   5380     1   107.9700462 569.024000
   5363   5365   5366     1   111.5100476 526.347200
   5363   5365   5372     1   110.1900474 564.840000
   5365   5363   5383     1   110.1900474 564.840000
   5365   5366   5367     1   111.5100476 526.347200
   5365   5366   5385     1   111.0400475 552.288000
   5366   5365   5372     1   110.1900474 564.840000
   5366   5367   5371     1   110.1900474 564.840000
   5366   5367   5380     1   107.9700462 569.024000
   5367   5366   5385     1   111.0400475 552.288000
   5371   5367   5380     1   109.3800466 607.516800
   5373   5362   5380     1   107.9700462 569.024000
   5386   5387   5389     1   111.5100476 526.347200
   5386   5387   5407     1   110.1900474 564.840000
   5386   5397   5402     1   110.1900474 564.840000
   5386   5404   5391     1   112.4800480 524.673600
   5387   5386   5397     1   111.5100476 526.347200
   5387   5386   5404     1   107.9700462 569.024000
   5387   5389   5390     1   111.5100476 526.347200
   5387   5389   5396     1   110.1900474 564.840000
   5389   5387   5407     1   110.1900474 564.840000
   5389   5390   5391     1   111.5100476 526.347200
   5389   5390   5409     1   111.0400475 552.288000
   5390   5389   5396     1   110.1900474 564.840000
   5390   5391   5395     1   110.1900474 564.840000
   5390   5391   5404     1   107.9700462 569.024000
   5391   5390   5409     1   111.0400475 552.288000
   5395   5391   5404     1   109.3800466 607.516800
   5397   5386   5404     1   107.9700462 569.024000
   5410   5412   5414     1   111.6100477 551.451200
   5412   5414   5418     1   111.0400475 552.288000
   5414   5418   5419     1   112.3500484 533.878400
   5414   5418   5420     1   112.3500484 533.878400
   5418   5419   5430     1   111.0400475 552.288000
   5418   5420   5422     1   111.0400475 552.288000
   5419   5430   5433     1   111.0400475 529.694400
   5419   5418   5420     1   112.3500484 533.878400
   5420   5422   5426     1   111.0400475 529.694400
   5422   5426   5427     1   123.2000528 564.003200
   5422   5426   5458     1   112.2600482 538.062400
   5426   5458   5439     1   118.5150508 540.957728
   5427   5426   5458     1   118.8300510 581.576000
   5430   5433   5434     1   123.2000528 564.003200
   5430   5433   5482     1   112.2600482 538.062400
   5433   5482   5463     1   118.5150508 540.957728
   5434   5433   5482     1   118.8300510 581.576000
   5435   5436   5438     1   111.5100476 526.347200
   5435   5436   5456     1   110.1900474 564.840000
   5435   5446   5451     1   110.1900474 564.840000
   5435   5453   5440     1   112.4800480 524.673600
   5436   5438   5439     1   111.5100476 526.347200
   5436   5438   5445     1   110.1900474 564.840000
   5436   5435   5446     1   111.5100476 526.347200
   5436   5435   5453     1   107.9700462 569.024000
   5438   5439   5440     1   111.5100476 526.347200
   5438   5439   5458     1   111.0400475 552.288000
   5438   5436   5456     1   110.1900474 564.840000
   5439   5440   5444     1   110.1900474 564.840000
   5439   5440   5453     1   107.9700462 569.024000
   5439   5438   5445     1   110.1900474 564.840000
   5440   5439   5458     1   111.0400475 552.288000
   5444   5440   5453     1   109.3800466 607.516800
   5446   5435   5453     1   107.9700462 569.024000
   5459   5460   5462     1   111.5100476 526.347200
   5459   5460   5480     1   110.1900474 564.840000
   5459   5470   5475     1   110.1900474 564.840000
   5459   5477   5464     1   112.4800480 524.673600
   5460   5462   5463     1   111.5100476 526.347200
   5460   5462   5469     1   110.1900474 564.840000
   5460   5459   5470     1   111.5100476 526.347200
   5460   5459   5477     1   107.9700462 569.024000
   5462   5463   5464     1   111.5100476 526.347200
   5462   5463   5482     1   111.0400475 552.288000
   5462   5460   5480     1   110.1900474 564.840000
   5463   5464   5468     1   110.1900474 564.840000
   5463   5464   5477     1   107.9700462 569.024000
   5463   5462   5469     1   110.1900474 564.840000
   5464   5463   5482     1   111.0400475 552.288000
   5468   5464   5477     1   109.3800466 607.516800
   5470   5459   5477     1   107.9700462 569.024000
   5483   5485   5487     1   111.6100477 551.451200
   5485   5487   5491     1   111.0400475 552.288000
   5487   5491   5492     1   112.3500484 533.878400
   5487   5491   5493     1   112.3500484 533.878400
   5491   5492   5503     1   111.0400475 552.288000
   5491   5493   5495     1   111.0400475 552.288000
   5492   5491   5493     1   112.3500484 533.878400
   5492   5503   5506     1   111.0400475 529.694400
   5493   5495   5499     1   111.0400475 529.694400
   5495   5499   5500     1   123.2000528 564.003200
   5495   5499   5531     1   112.2600482 538.062400
   5499   5531   5512     1   118.5150508 540.957728
   5500   5499   5531     1   118.8300510 581.576000
   5503   5506   5507     1   123.2000528 564.003200
   5503   5506   5555     1   112.2600482 538.062400
   5506   5555   5536     1   118.5150508 540.957728
   5507   5506   5555     1   118.8300510 581.576000
   5508   5509   5511     1   111.5100476 526.347200
   5508   5509   5529     1   110.1900474 564.840000
   5508   5519   5524     1   110.1900474 564.840000
   5508   5526   5513     1   112.4800480 524.673600
   5509   5508   5519     1   111.5100476 526.347200
   5509   5508   5526     1   107.9700462 569.024000
   5509   5511   5512     1   111.5100476 526.347200
   5509   5511   5518     1   110.1900474 564.840000
   5511   5509   5529     1   110.1900474 564.840000
   5511   5512   5513     1   111.5100476 526.347200
   5511   5512   5531     1   111.0400475 552.288000
   5512   5511   5518     1   110.1900474 564.840000
   5512   5513   5517     1   110.1900474 564.840000
   5512   5513   5526     1   107.9700462 569.024000
   5513   5512   5531     1   111.0400475 552.288000
   5517   5513   5526     1   109.3800466 607.516800
   5519   5508   5526     1   107.9700462 569.024000
   5532   5533   5535     1   111.5100476 526.347200
   5532   5533   5553     1   110.1900474 564.840000
   5532   5543   5548     1   110.1900474 564.840000
   5532   5550   5537     1   112.4800480 524.673600
   5533   5532   5543     1   111.5100476 526.347200
   5533   5532   5550     1   107.9700462 569.024000
   5533   5535   5536     1   111.5100476 526.347200
   5533   5535   5542     1   110.1900474 564.840000
   5535   5533   5553     1   110.1900474 564.840000
   5535   5536   5537     1   111.5100476 526.347200
   5535   5536   5555     1   111.0400475 552.288000
   5536   5535   5542     1   110.1900474 564.840000
   5536   5537   5541     1   110.1900474 564.840000
   5536   5537   5550     1   107.9700462 569.024000
   5537   5536   5555     1   111.0400475 552.288000
   5541   5537   5550     1   109.3800466 607.516800
   5543   5532   5550     1   107.9700462 569.024000
   5556   5558   5560     1   111.6100477 551.451200
   5558   5560   5564     1   111.0400475 552.288000
   5560   5564   5565     1   112.3500484 533.878400
   5560   5564   5566     1   112.3500484 533.878400
   5564   5565   5576     1   111.0400475 552.288000
   5564   5566   5568     1   111.0400475 552.288000
   5565   5576   5579     1   111.0400475 529.694400
   5565   5564   5566     1   112.3500484 533.878400
   5566   5568   5572     1   111.0400475 529.694400
   5568   5572   5573     1   123.2000528 564.003200
   5568   5572   5604     1   112.2600482 538.062400
   5572   5604   5585     1   118.5150508 540.957728
   5573   5572   5604     1   118.8300510 581.576000
   5576   5579   5580     1   123.2000528 564.003200
   5576   5579   5628     1   112.2600482 538.062400
   5579   5628   5609     1   118.5150508 540.957728
   5580   5579   5628     1   118.8300510 581.576000
   5581   5582   5584     1   111.5100476 526.347200
   5581   5582   5602     1   110.1900474 564.840000
   5581   5592   5597     1   110.1900474 564.840000
   5581   5599   5586     1   112.4800480 524.673600
   5582   5584   5585     1   111.5100476 526.347200
   5582   5584   5591     1   110.1900474 564.840000
   5582   5581   5592     1   111.5100476 526.347200
   5582   5581   5599     1   107.9700462 569.024000
   5584   5585   5586     1   111.5100476 526.347200
   5584   5585   5604     1   111.0400475 552.288000
   5584   5582   5602     1   110.1900474 564.840000
   5585   5586   5590     1   110.1900474 564.840000
   5585   5586   5599     1   107.9700462 569.024000
   5585   5584   5591     1   110.1900474 564.840000
   5586   5585   5604     1   111.0400475 552.288000
   5590   5586   5599     1   109.3800466 607.516800
   5592   5581   5599     1   107.9700462 569.024000
   5605   5606   5608     1   111.5100476 526.347200
   5605   5606   5626     1   110.1900474 564.840000
   5605   5616   5621     1   110.1900474 564.840000
   5605   5623   5610     1   112.4800480 524.673600
   5606   5608   5609     1   111.5100476 526.347200
   5606   5608   5615     1   110.1900474 564.840000
   5606   5605   5616     1   111.5100476 526.347200
   5606   5605   5623     1   107.9700462 569.024000
   5608   5609   5610     1   111.5100476 526.347200
   5608   5609   5628     1   111.0400475 552.288000
   5608   5606   5626     1   110.1900474 564.840000
   5609   5610   5614     1   110.1900474 564.840000
   5609   5610   5623     1   107.9700462 569.024000
   5609   5608   5615     1   110.1900474 564.840000
   5610   5609   5628     1   111.0400475 552.288000
   5614   5610   5623     1   109.3800466 607.516800
   5616   5605   5623     1   107.9700462 569.024000
   5629   5631   5633     1   111.6100477 551.451200
   5631   5633   5637     1   111.0400475 552.288000
   5633   5637   5638     1   112.3500484 533.878400
   5633   5637   5639     1   112.3500484 533.878400
   5637   5638   5649     1   111.0400475 552.288000
   5637   5639   5641     1   111.0400475 552.288000
   5638   5637   5639     1   112.3500484 533.878400
   5638   5649   5652     1   111.0400475 529.694400
   5639   5641   5645     1   111.0400475 529.694400
   5641   5645   5646     1   123.2000528 564.003200
   5641   5645   5677     1   112.2600482 538.062400
   5645   5677   5658     1   118.5150508 540.957728
   5646   5645   5677     1   118.8300510 581.576000
   5649   5652   5653     1   123.2000528 564.003200
   5649   5652   5701     1   112.2600482 538.062400
   5652   5701   5682     1   118.5150508 540.957728
   5653   5652   5701     1   118.8300510 581.576000
   5654   5655   5657     1   111.5100476 526.347200
   5654   5655   5675     1   110.1900474 564.840000
   5654   5665   5670     1   110.1900474 564.840000
   5654   5672   5659     1   112.4800480 524.673600
   5655   5654   5665     1   111.5100476 526.347200
   5655   5654   5672     1   107.9700462 569.024000
   5655   5657   5658     1   111.5100476 526.347200
   5655   5657   5664     1   110.1900474 564.840000
   5657   5655   5675     1   110.1900474 564.840000
   5657   5658   5659     1   111.5100476 526.347200
   5657   5658   5677     1   111.0400475 552.288000
   5658   5657   5664     1   110.1900474 564.840000
   5658   5659   5663     1   110.1900474 564.840000
   5658   5659   5672     1   107.9700462 569.024000
   5659   5658   5677     1   111.0400475 552.288000
   5663   5659   5672     1   109.3800466 607.516800
   5665   5654   5672     1   107.9700462 569.024000
   5678   5679   5681     1   111.5100476 526.347200
   5678   5679   5699     1   110.1900474 564.840000
   5678   5689   5694     1   110.1900474 564.840000
   5678   5696   5683     1   112.4800480 524.673600
   5679   5678   5689     1   111.5100476 526.347200
   5679   5678   5696     1   107.9700462 569.024000
   5679   5681   5682     1   111.5100476 526.347200
   5679   5681   5688     1   110.1900474 564.840000
   5681   5679   5699     1   110.1900474 564.840000
   5681   5682   5683     1   111.5100476 526.347200
   5681   5682   5701     1   111.0400475 552.288000
   5682   5681   5688     1   110.1900474 564.840000
   5682   5683   5687     1   110.1900474 564.840000
   5682   5683   5696     1   107.9700462 569.024000
   5683   5682   5701     1   111.0400475 552.288000
   5687   5683   5696     1   109.3800466 607.516800
   5689   5678   5696     1   107.9700462 569.024000
   5702   5704   5706     1   111.6100477 551.451200
   5704   5706   5710     1   111.0400475 552.288000
   5706   5710   5711     1   112.3500484 533.878400
   5706   5710   5712     1   112.3500484 533.878400
   5710   5711   5722     1   111.0400475 552.288000
   5710   5712   5714     1   111.0400475 552.288000
   5711   5722   5725     1   111.0400475 529.694400
   5711   5710   5712     1   112.3500484 533.878400
   5712   5714   5718     1   111.0400475 529.694400
   5714   5718   5719     1   123.2000528 564.003200
   5714   5718   5750     1   112.2600482 538.062400
   5718   5750   5731     1   118.5150508 540.957728
   5719   5718   5750     1   118.8300510 581.576000
   5722   5725   5726     1   123.2000528 564.003200
   5722   5725   5774     1   112.2600482 538.062400
   5725   5774   5755     1   118.5150508 540.957728
   5726   5725   5774     1   118.8300510 581.576000
   5727   5728   5730     1   111.5100476 526.347200
   5727   5728   5748     1   110.1900474 564.840000
   5727   5738   5743     1   110.1900474 564.840000
   5727   5745   5732     1   112.4800480 524.673600
   5728   5730   5731     1   111.5100476 526.347200
   5728   5730   5737     1   110.1900474 564.840000
   5728   5727   5738     1   111.5100476 526.347200
   5728   5727   5745     1   107.9700462 569.024000
   5730   5731   5732     1   111.5100476 526.347200
   5730   5731   5750     1   111.0400475 552.288000
   5730   5728   5748     1   110.1900474 564.840000
   5731   5732   5736     1   110.1900474 564.840000
   5731   5732   5745     1   107.9700462 569.024000
   5731   5730   5737     1   110.1900474 564.840000
   5732   5731   5750     1   111.0400475 552.288000
   5736   5732   5745     1   109.3800466 607.516800
   5738   5727   5745     1   107.9700462 569.024000
   5751   5752   5754     1   111.5100476 526.347200
   5751   5752   5772     1   110.1900474 564.840000
   5751   5762   5767     1   110.1900474 564.840000
   5751   5769   5756     1   112.4800480 524.673600
   5752   5754   5755     1   111.5100476 526.347200
   5752   5754   5761     1   110.1900474 564.840000
   5752   5751   5762     1   111.5100476 526.347200
   5752   5751   5769     1   107.9700462 569.024000
   5754   5755   5756     1   111.5100476 526.347200
   5754   5755   5774     1   111.0400475 552.288000
   5754   5752   5772     1   110.1900474 564.840000
   5755   5756   5760     1   110.1900474 564.840000
   5755   5756   5769     1   107.9700462 569.024000
   5755   5754   5761     1   110.1900474 564.840000
   5756   5755   5774     1   111.0400475 552.288000
   5760   5756   5769     1   109.3800466 607.516800
   5762   5751   5769     1   107.9700462 569.024000
   5775   5777   5779     1   111.6100477 551.451200
   5777   5779   5783     1   111.0400475 552.288000
   5779   5783   5784     1   112.3500484 533.878400
   5779   5783   5785     1   112.3500484 533.878400
   5783   5784   5795     1   111.0400475 552.288000
   5783   5785   5787     1   111.0400475 552.288000
   5784   5783   5785     1   112.3500484 533.878400
   5784   5795   5798     1   111.0400475 529.694400
   5785   5787   5791     1   111.0400475 529.694400
   5787   5791   5792     1   123.2000528 564.003200
   5787   5791   5823     1   112.2600482 538.062400
   5791   5823   5804     1   118.5150508 540.957728
   5792   5791   5823     1   118.8300510 581.576000
   5795   5798   5799     1   123.2000528 564.003200
   5795   5798   5847     1   112.2600482 538.062400
   5798   5847   5828     1   118.5150508 540.957728
   5799   5798   5847     1   118.8300510 581.576000
   5800   5801   5803     1   111.5100476 526.347200
   5800   5801   5821     1   110.1900474 564.840000
   5800   5811   5816     1   110.1900474 564.840000
   5800   5818   5805     1   112.4800480 524.673600
   5801   5800   5811     1   111.5100476 526.347200
   5801   5800   5818     1   107.9700462 569.024000
   5801   5803   5804     1   111.5100476 526.347200
   5801   5803   5810     1   110.1900474 564.840000
   5803   5801   5821     1   110.1900474 564.840000
   5803   5804   5805     1   111.5100476 526.347200
   5803   5804   5823     1   111.0400475 552.288000
   5804   5803   5810     1   110.1900474 564.840000
   5804   5805   5809     1   110.1900474 564.840000
   5804   5805   5818     1   107.9700462 569.024000
   5805   5804   5823     1   111.0400475 552.288000
   5809   5805   5818     1   109.3800466 607.516800
   5811   5800   5818     1   107.9700462 569.024000
   5824   5825   5827     1   111.5100476 526.347200
   5824   5825   5845     1   110.1900474 564.840000
   5824   5835   5840     1   110.1900474 564.840000
   5824   5842   5829     1   112.4800480 524.673600
   5825   5824   5835     1   111.5100476 526.347200
   5825   5824   5842     1   107.9700462 569.024000
   5825   5827   5828     1   111.5100476 526.347200
   5825   5827   5834     1   110.1900474 564.840000
   5827   5825   5845     1   110.1900474 564.840000
   5827   5828   5829     1   111.5100476 526.347200
   5827   5828   5847     1   111.0400475 552.288000
   5828   5827   5834     1   110.1900474 564.840000
   5828   5829   5833     1   110.1900474 564.840000
   5828   5829   5842     1   107.9700462 569.024000
   5829   5828   5847     1   111.0400475 552.288000
   5833   5829   5842     1   109.3800466 607.516800
   5835   5824   5842     1   107.9700462 569.024000
   5848   5850   5852     1   111.6100477 551.451200
   5850   5852   5856     1   111.0400475 552.288000
   5852   5856   5857     1   112.3500484 533.878400
   5852   5856   5858     1   112.3500484 533.878400
   5856   5857   5868     1   111.0400475 552.288000
   5856   5858   5860     1   111.0400475 552.288000
   5857   5868   5871     1   111.0400475 529.694400
   5857   5856   5858     1   112.3500484 533.878400
   5858   5860   5864     1   111.0400475 529.694400
   5860   5864   5865     1   123.2000528 564.003200
   5860   5864   5896     1   112.2600482 538.062400
   5864   5896   5877     1   118.5150508 540.957728
   5865   5864   5896     1   118.8300510 581.576000
   5868   5871   5872     1   123.2000528 564.003200
   5868   5871   5920     1   112.2600482 538.062400
   5871   5920   5901     1   118.5150508 540.957728
   5872   5871   5920     1   118.8300510 581.576000
   5873   5874   5876     1   111.5100476 526.347200
   5873   5874   5894     1   110.1900474 564.840000
   5873   5884   5889     1   110.1900474 564.840000
   5873   5891   5878     1   112.4800480 524.673600
   5874   5876   5877     1   111.5100476 526.347200
   5874   5876   5883     1   110.1900474 564.840000
   5874   5873   5884     1   111.5100476 526.347200
   5874   5873   5891     1   107.9700462 569.024000
   5876   5877   5878     1   111.5100476 526.347200
   5876   5877   5896     1   111.0400475 552.288000
   5876   5874   5894     1   110.1900474 564.840000
   5877   5878   5882     1   110.1900474 564.840000
   5877   5878   5891     1   107.9700462 569.024000
   5877   5876   5883     1   110.1900474 564.840000
   5878   5877   5896     1   111.0400475 552.288000
   5882   5878   5891     1   109.3800466 607.516800
   5884   5873   5891     1   107.9700462 569.024000
   5897   5898   5900     1   111.5100476 526.347200
   5897   5898   5918     1   110.1900474 564.840000
   5897   5908   5913     1   110.1900474 564.840000
   5897   5915   5902     1   112.4800480 524.673600
   5898   5900   5901     1   111.5100476 526.347200
   5898   5900   5907     1   110.1900474 564.840000
   5898   5897   5908     1   111.5100476 526.347200
   5898   5897   5915     1   107.9700462 569.024000
   5900   5901   5902     1   111.5100476 526.347200
   5900   5901   5920     1   111.0400475 552.288000
   5900   5898   5918     1   110.1900474 564.840000
   5901   5902   5906     1   110.1900474 564.840000
   5901   5902   5915     1   107.9700462 569.024000
   5901   5900   5907     1   110.1900474 564.840000
   5902   5901   5920     1   111.0400475 552.288000
   5906   5902   5915     1   109.3800466 607.516800
   5908   5897   5915     1   107.9700462 569.024000
   5921   5923   5925     1   111.6100477 551.451200
   5923   5925   5929     1   111.0400475 552.288000
   5925   5929   5930     1   112.3500484 533.878400
   5925   5929   5931     1   112.3500484 533.878400
   5929   5930   5941     1   111.0400475 552.288000
   5929   5931   5933     1   111.0400475 552.288000
   5930   5929   5931     1   112.3500484 533.878400
   5930   5941   5944     1   111.0400475 529.694400
   5931   5933   5937     1   111.0400475 529.694400
   5933   5937   5938     1   123.2000528 564.003200
   5933   5937   5969     1   112.2600482 538.062400
   5937   5969   5950     1   118.5150508 540.957728
   5938   5937   5969     1   118.8300510 581.576000
   5941   5944   5945     1   123.2000528 564.003200
   5941   5944   5993     1   112.2600482 538.062400
   5944   5993   5974     1   118.5150508 540.957728
   5945   5944   5993     1   118.8300510 581.576000
   5946   5947   5949     1   111.5100476 526.347200
   5946   5947   5967     1   110.1900474 564.840000
   5946   5957   5962     1   110.1900474 564.840000
   5946   5964   5951     1   112.4800480 524.673600
   5947   5946   5957     1   111.5100476 526.347200
   5947   5946   5964     1   107.9700462 569.024000
   5947   5949   5950     1   111.5100476 526.347200
   5947   5949   5956     1   110.1900474 564.840000
   5949   5947   5967     1   110.1900474 564.840000
   5949   5950   5951     1   111.5100476 526.347200
   5949   5950   5969     1   111.0400475 552.288000
   5950   5949   5956     1   110.1900474 564.840000
   5950   5951   5955     1   110.1900474 564.840000
   5950   5951   5964     1   107.9700462 569.024000
   5951   5950   5969     1   111.0400475 552.288000
   5955   5951   5964     1   109.3800466 607.516800
   5957   5946   5964     1   107.9700462 569.024000
   5970   5971   5973     1   111.5100476 526.347200
   5970   5971   5991     1   110.1900474 564.840000
   5970   5981   5986     1   110.1900474 564.840000
   5970   5988   5975     1   112.4800480 524.673600
   5971   5970   5981     1   111.5100476 526.347200
   5971   5970   5988     1   107.9700462 569.024000
   5971   5973   5974     1   111.5100476 526.347200
   5971   5973   5980     1   110.1900474 564.840000
   5973   5971   5991     1   110.1900474 564.840000
   5973   5974   5975     1   111.5100476 526.347200
   5973   5974   5993     1   111.0400475 552.288000
   5974   5973   5980     1   110.1900474 564.840000
   5974   5975   5979     1   110.1900474 564.840000
   5974   5975   5988     1   107.9700462 569.024000
   5975   5974   5993     1   111.0400475 552.288000
   5979   5975   5988     1   109.3800466 607.516800
   5981   5970   5988     1   107.9700462 569.024000
   5994   5996   5998     1   111.6100477 551.451200
   5996   5998   6002     1   111.0400475 552.288000
   5998   6002   6003     1   112.3500484 533.878400
   5998   6002   6004     1   112.3500484 533.878400
   6002   6003   6014     1   111.0400475 552.288000
   6002   6004   6006     1   111.0400475 552.288000
   6003   6014   6017     1   111.0400475 529.694400
   6003   6002   6004     1   112.3500484 533.878400
   6004   6006   6010     1   111.0400475 529.694400
   6006   6010   6011     1   123.2000528 564.003200
   6006   6010   6042     1   112.2600482 538.062400
   6010   6042   6023     1   118.5150508 540.957728
   6011   6010   6042     1   118.8300510 581.576000
   6014   6017   6018     1   123.2000528 564.003200
   6014   6017   6066     1   112.2600482 538.062400
   6017   6066   6047     1   118.5150508 540.957728
   6018   6017   6066     1   118.8300510 581.576000
   6019   6020   6022     1   111.5100476 526.347200
   6019   6020   6040     1   110.1900474 564.840000
   6019   6030   6035     1   110.1900474 564.840000
   6019   6037   6024     1   112.4800480 524.673600
   6020   6022   6023     1   111.5100476 526.347200
   6020   6022   6029     1   110.1900474 564.840000
   6020   6019   6030     1   111.5100476 526.347200
   6020   6019   6037     1   107.9700462 569.024000
   6022   6023   6024     1   111.5100476 526.347200
   6022   6023   6042     1   111.0400475 552.288000
   6022   6020   6040     1   110.1900474 564.840000
   6023   6024   6028     1   110.1900474 564.840000
   6023   6024   6037     1   107.9700462 569.024000
   6023   6022   6029     1   110.1900474 564.840000
   6024   6023   6042     1   111.0400475 552.288000
   6028   6024   6037     1   109.3800466 607.516800
   6030   6019   6037     1   107.9700462 569.024000
   6043   6044   6046     1   111.5100476 526.347200
   6043   6044   6064     1   110.1900474 564.840000
   6043   6054   6059     1   110.1900474 564.840000
   6043   6061   6048     1   112.4800480 524.673600
   6044   6046   6047     1   111.5100476 526.347200
   6044   6046   6053     1   110.1900474 564.840000
   6044   6043   6054     1   111.5100476 526.347200
   6044   6043   6061     1   107.9700462 569.024000
   6046   6047   6048     1   111.5100476 526.347200
   6046   6047   6066     1   111.0400475 552.288000
   6046   6044   6064     1   110.1900474 564.840000
   6047   6048   6052     1   110.1900474 564.840000
   6047   6048   6061     1   107.9700462 569.024000
   6047   6046   6053     1   110.1900474 564.840000
   6048   6047   6066     1   111.0400475 552.288000
   6052   6048   6061     1   109.3800466 607.516800
   6054   6043   6061     1   107.9700462 569.024000
   6067   6069   6071     1   111.6100477 551.451200
   6069   6071   6075     1   111.0400475 552.288000
   6071   6075   6076     1   112.3500484 533.878400
   6071   6075   6077     1   112.3500484 533.878400
   6075   6076   6087     1   111.0400475 552.288000
   6075   6077   6079     1   111.0400475 552.288000
   6076   6075   6077     1   112.3500484 533.878400
   6076   6087   6090     1   111.0400475 529.694400
   6077   6079   6083     1   111.0400475 529.694400
   6079   6083   6084     1   123.2000528 564.003200
   6079   6083   6115     1   112.2600482 538.062400
   6083   6115   6096     1   118.5150508 540.957728
   6084   6083   6115     1   118.8300510 581.576000
   6087   6090   6091     1   123.2000528 564.003200
   6087   6090   6139     1   112.2600482 538.062400
   6090   6139   6120     1   118.5150508 540.957728
   6091   6090   6139     1   118.8300510 581.576000
   6092   6093   6095     1   111.5100476 526.347200
   6092   6093   6113     1   110.1900474 564.840000
   6092   6103   6108     1   110.1900474 564.840000
   6092   6110   6097     1   112.4800480 524.673600
   6093   6092   6103     1   111.5100476 526.347200
   6093   6092   6110     1   107.9700462 569.024000
   6093   6095   6096     1   111.5100476 526.347200
   6093   6095   6102     1   110.1900474 564.840000
   6095   6093   6113     1   110.1900474 564.840000
   6095   6096   6097     1   111.5100476 526.347200
   6095   6096   6115     1   111.0400475 552.288000
   6096   6095   6102     1   110.1900474 564.840000
   6096   6097   6101     1   110.1900474 564.840000
   6096   6097   6110     1   107.9700462 569.024000
   6097   6096   6115     1   111.0400475 552.288000
   6101   6097   6110     1   109.3800466 607.516800
   6103   6092   6110     1   107.9700462 569.024000
   6116   6117   6119     1   111.5100476 526.347200
   6116   6117   6137     1   110.1900474 564.840000
   6116   6127   6132     1   110.1900474 564.840000
   6116   6134   6121     1   112.4800480 524.673600
   6117   6116   6127     1   111.5100476 526.347200
   6117   6116   6134     1   107.9700462 569.024000
   6117   6119   6120     1   111.5100476 526.347200
   6117   6119   6126     1   110.1900474 564.840000
   6119   6117   6137     1   110.1900474 564.840000
   6119   6120   6121     1   111.5100476 526.347200
   6119   6120   6139     1   111.0400475 552.288000
   6120   6119   6126     1   110.1900474 564.840000
   6120   6121   6125     1   110.1900474 564.840000
   6120   6121   6134     1   107.9700462 569.024000
   6121   6120   6139     1   111.0400475 552.288000
   6125   6121   6134     1   109.3800466 607.516800
   6127   6116   6134     1   107.9700462 569.024000
   6140   6142   6144     1   111.6100477 551.451200
   6142   6144   6148     1   111.0400475 552.288000
   6144   6148   6149     1   112.3500484 533.878400
   6144   6148   6150     1   112.3500484 533.878400
   6148   6149   6160     1   111.0400475 552.288000
   6148   6150   6152     1   111.0400475 552.288000
   6149   6160   6163     1   111.0400475 529.694400
   6149   6148   6150     1   112.3500484 533.878400
   6150   6152   6156     1   111.0400475 529.694400
   6152   6156   6157     1   123.2000528 564.003200
   6152   6156   6188     1   112.2600482 538.062400
   6156   6188   6169     1   118.5150508 540.957728
   6157   6156   6188     1   118.8300510 581.576000
   6160   6163   6164     1   123.2000528 564.003200
   6160   6163   6212     1   112.2600482 538.062400
   6163   6212   6193     1   118.5150508 540.957728
   6164   6163   6212     1   118.8300510 581.576000
   6165   6166   6168     1   111.5100476 526.347200
   6165   6166   6186     1   110.1900474 564.840000
   6165   6176   6181     1   110.1900474 564.840000
   6165   6183   6170     1   112.4800480 524.673600
   6166   6168   6169     1   111.5100476 526.347200
   6166   6168   6175     1   110.1900474 564.840000
   6166   6165   6176     1   111.5100476 526.347200
   6166   6165   6183     1   107.9700462 569.024000
   6168   6169   6170     1   111.5100476 526.347200
   6168   6169   6188     1   111.0400475 552.288000
   6168   6166   6186     1   110.1900474 564.840000
   6169   6170   6174     1   110.1900474 564.840000
   6169   6170   6183     1   107.9700462 569.024000
   6169   6168   6175     1   110.1900474 564.840000
   6170   6169   6188     1   111.0400475 552.288000
   6174   6170   6183     1   109.3800466 607.516800
   6176   6165   6183     1   107.9700462 569.024000
   6189   6190   6192     1   111.5100476 526.347200
   6189   6190   6210     1   110.1900474 564.840000
   6189   6200   6205     1   110.1900474 564.840000
   6189   6207   6194     1   112.4800480 524.673600
   6190   6192   6193     1   111.5100476 526.347200
   6190   6192   6199     1   110.1900474 564.840000
   6190   6189   6200     1   111.5100476 526.347200
   6190   6189   6207     1   107.9700462 569.024000
   6192   6193   6194     1   111.5100476 526.347200
   6192   6193   6212     1   111.0400475 552.288000
   6192   6190   6210     1   110.1900474 564.840000
   6193   6194   6198     1   110.1900474 564.840000
   6193   6194   6207     1   107.9700462 569.024000
   6193   6192   6199     1   110.1900474 564.840000
   6194   6193   6212     1   111.0400475 552.288000
   6198   6194   6207     1   109.3800466 607.516800
   6200   6189   6207     1   107.9700462 569.024000
      1      4      5     1   109.5600471 388.275200
      1      4      6     1   109.5600471 388.275200
      2      1      4     1   109.5600471 388.275200
      2      1      8     1   109.8800469 414.216000
      2      1      3     1   108.4600466 328.025600
      3      1      4     1   109.5600471 388.275200
      3      1      8     1   109.8800469 414.216000
      5      4      7     1   109.8800469 414.216000
      5      4      6     1   108.4600466 328.025600
      6      4      7     1   109.8800469 414.216000
      7     15     16     1   109.8800469 414.216000
      7     15     17     1   109.8800469 414.216000
      7     18     19     1   109.8800469 414.216000
      7     18     20     1   109.8800469 414.216000
      8      9     10     1   109.8800469 414.216000
      8      9     11     1   109.8800469 414.216000
      8     12     13     1   109.8800469 414.216000
      8     12     14     1   109.8800469 414.216000
      9     30     31     1   109.8000471 387.438400
      9     30     32     1   109.8000471 387.438400
     10      9     30     1   109.5600471 388.275200
     10      9     11     1   108.4600466 328.025600
     11      9     30     1   109.5600471 388.275200
     12     27     28     1   109.8000471 387.438400
     12     27     29     1   109.8000471 387.438400
     13     12     27     1   109.5600471 388.275200
     13     12     14     1   108.4600466 328.025600
     14     12     27     1   109.5600471 388.275200
     15     21     22     1   109.8000471 387.438400
     15     21     23     1   109.8000471 387.438400
     16     15     21     1   109.5600471 388.275200
     16     15     17     1   108.4600466 328.025600
     17     15     21     1   109.5600471 388.275200
     18     24     25     1   109.8000471 387.438400
     18     24     26     1   109.8000471 387.438400
     19     18     24     1   109.5600471 388.275200
     19     18     20     1   108.4600466 328.025600
     20     18     24     1   109.5600471 388.275200
     22     21     35     1   108.7700466 392.459200
     22     21     23     1   107.5800459 329.699200
     23     21     35     1   108.7700466 392.459200
     25     24     36     1   108.7700466 392.459200
     25     24     26     1   107.5800459 329.699200
     26     24     36     1   108.7700466 392.459200
     28     27     33     1   108.7700466 392.459200
     28     27     29     1   107.5800459 329.699200
     29     27     33     1   108.7700466 392.459200
     31     30     34     1   108.7700466 392.459200
     31     30     32     1   107.5800459 329.699200
     32     30     34     1   108.7700466 392.459200
     33     64     65     1   117.5500507 404.174400
     34     89     90     1   117.5500507 404.174400
     35    114    115     1   117.5500507 404.174400
     36    139    140     1   117.5500507 404.174400
     41     44     45     1   109.5600471 388.275200
     41     44     46     1   109.5600471 388.275200
     42     41     44     1   109.5600471 388.275200
     42     41     47     1   109.8800469 414.216000
     42     41     43     1   108.4600466 328.025600
     43     41     44     1   109.5600471 388.275200
     43     41     47     1   109.8800469 414.216000
     44     64     65     1   117.6800502 383.254400
     45     44     64     1   108.8800464 416.726400
     45     44     46     1   108.4600466 328.025600
     46     44     64     1   108.8800464 416.726400
     47     48     49     1   109.8800469 414.216000
     47     48     50     1   109.8800469 414.216000
     47     51     52     1   109.8800469 414.216000
     47     51     53     1   109.8800469 414.216000
     48     57     58     1   109.8000471 387.438400
     48     57     59     1   109.8000471 387.438400
     49     48     57     1   109.5600471 388.275200
     49     48     50     1   108.4600466 328.025600
     50     48     57     1   109.5600471 388.275200
     51     54     55     1   109.8000471 387.438400
     51     54     56     1   109.8000471 387.438400
     52     51     54     1   109.5600471 388.275200
     52     51     53     1   108.4600466 328.025600
     53     51     54     1   109.5600471 388.275200
     55     54     60     1   108.7700466 392.459200
     55     54     56     1   107.5800459 329.699200
     56     54     60     1   108.7700466 392.459200
     58     57     61     1   108.7700466 392.459200
     58     57     59     1   107.5800459 329.699200
     59     57     61     1   108.7700466 392.459200
     60    164    165     1   117.5500507 404.174400
     61    189    190     1   117.5500507 404.174400
     66     69     70     1   109.5600471 388.275200
     66     69     71     1   109.5600471 388.275200
     67     66     69     1   109.5600471 388.275200
     67     66     72     1   109.8800469 414.216000
     67     66     68     1   108.4600466 328.025600
     68     66     69     1   109.5600471 388.275200
     68     66     72     1   109.8800469 414.216000
     69     89     90     1   117.6800502 383.254400
     70     69     89     1   108.8800464 416.726400
     70     69     71     1   108.4600466 328.025600
     71     69     89     1   108.8800464 416.726400
     72     73     74     1   109.8800469 414.216000
     72     73     75     1   109.8800469 414.216000
     72     76     77     1   109.8800469 414.216000
     72     76     78     1   109.8800469 414.216000
     73     82     83     1   109.8000471 387.438400
     73     82     84     1   109.8000471 387.438400
     74     73     82     1   109.5600471 388.275200
     74     73     75     1   108.4600466 328.025600
     75     73     82     1   109.5600471 388.275200
     76     79     80     1   109.8000471 387.438400
     76     79     81     1   109.8000471 387.438400
     77     76     79     1   109.5600471 388.275200
     77     76     78     1   108.4600466 328.025600
     78     76     79     1   109.5600471 388.275200
     80     79     85     1   108.7700466 392.459200
     80     79     81     1   107.5800459 329.699200
     81     79     85     1   108.7700466 392.459200
     83     82     86     1   108.7700466 392.459200
     83     82     84     1   107.5800459 329.699200
     84     82     86     1   108.7700466 392.459200
     85    214    215     1   117.5500507 404.174400
     86    239    240     1   117.5500507 404.174400
     91     94     95     1   109.5600471 388.275200
     91     94     96     1   109.5600471 388.275200
     92     91     94     1   109.5600471 388.275200
     92     91     97     1   109.8800469 414.216000
     92     91     93     1   108.4600466 328.025600
     93     91     94     1   109.5600471 388.275200
     93     91     97     1   109.8800469 414.216000
     94    114    115     1   117.6800502 383.254400
     95     94    114     1   108.8800464 416.726400
     95     94     96     1   108.4600466 328.025600
     96     94    114     1   108.8800464 416.726400
     97     98     99     1   109.8800469 414.216000
     97     98    100     1   109.8800469 414.216000
     97    101    102     1   109.8800469 414.216000
     97    101    103     1   109.8800469 414.216000
     98    107    108     1   109.8000471 387.438400
     98    107    109     1   109.8000471 387.438400
     99     98    107     1   109.5600471 388.275200
     99     98    100     1   108.4600466 328.025600
    100     98    107     1   109.5600471 388.275200
    101    104    105     1   109.8000471 387.438400
    101    104    106     1   109.8000471 387.438400
    102    101    104     1   109.5600471 388.275200
    102    101    103     1   108.4600466 328.025600
    103    101    104     1   109.5600471 388.275200
    105    104    110     1   108.7700466 392.459200
    105    104    106     1   107.5800459 329.699200
    106    104    110     1   108.7700466 392.459200
    108    107    111     1   108.7700466 392.459200
    108    107    109     1   107.5800459 329.699200
    109    107    111     1   108.7700466 392.459200
    110    264    265     1   117.5500507 404.174400
    111    289    290     1   117.5500507 404.174400
    116    119    120     1   109.5600471 388.275200
    116    119    121     1   109.5600471 388.275200
    117    116    119     1   109.5600471 388.275200
    117    116    122     1   109.8800469 414.216000
    117    116    118     1   108.4600466 328.025600
    118    116    119     1   109.5600471 388.275200
    118    116    122     1   109.8800469 414.216000
    119    139    140     1   117.6800502 383.254400
    120    119    139     1   108.8800464 416.726400
    120    119    121     1   108.4600466 328.025600
    121    119    139     1   108.8800464 416.726400
    122    123    124     1   109.8800469 414.216000
    122    123    125     1   109.8800469 414.216000
    122    126    127     1   109.8800469 414.216000
    122    126    128     1   109.8800469 414.216000
    123    132    133     1   109.8000471 387.438400
    123    132    134     1   109.8000471 387.438400
    124    123    132     1   109.5600471 388.275200
    124    123    125     1   108.4600466 328.025600
    125    123    132     1   109.5600471 388.275200
    126    129    130     1   109.8000471 387.438400
    126    129    131     1   109.8000471 387.438400
    127    126    129     1   109.5600471 388.275200
    127    126    128     1   108.4600466 328.025600
    128    126    129     1   109.5600471 388.275200
    130    129    135     1   108.7700466 392.459200
    130    129    131     1   107.5800459 329.699200
    131    129    135     1   108.7700466 392.459200
    133    132    136     1   108.7700466 392.459200
    133    132    134     1   107.5800459 329.699200
    134    132    136     1   108.7700466 392.459200
    135    314    315     1   117.5500507 404.174400
    136    339    340     1   117.5500507 404.174400
    141    144    145     1   109.5600471 388.275200
    141    144    146     1   109.5600471 388.275200
    142    141    144     1   109.5600471 388.275200
    142    141    147     1   109.8800469 414.216000
    142    141    143     1   108.4600466 328.025600
    143    141    144     1   109.5600471 388.275200
    143    141    147     1   109.8800469 414.216000
    144    164    165     1   117.6800502 383.254400
    145    144    164     1   108.8800464 416.726400
    145    144    146     1   108.4600466 328.025600
    146    144    164     1   108.8800464 416.726400
    147    148    149     1   109.8800469 414.216000
    147    148    150     1   109.8800469 414.216000
    147    151    152     1   109.8800469 414.216000
    147    151    153     1   109.8800469 414.216000
    148    157    158     1   109.8000471 387.438400
    148    157    159     1   109.8000471 387.438400
    149    148    157     1   109.5600471 388.275200
    149    148    150     1   108.4600466 328.025600
    150    148    157     1   109.5600471 388.275200
    151    154    155     1   109.8000471 387.438400
    151    154    156     1   109.8000471 387.438400
    152    151    154     1   109.5600471 388.275200
    152    151    153     1   108.4600466 328.025600
    153    151    154     1   109.5600471 388.275200
    155    154    160     1   108.7700466 392.459200
    155    154    156     1   107.5800459 329.699200
    156    154    160     1   108.7700466 392.459200
    158    157    161     1   108.7700466 392.459200
    158    157    159     1   107.5800459 329.699200
    159    157    161     1   108.7700466 392.459200
    160    364    365     1   117.5500507 404.174400
    161    389    390     1   117.5500507 404.174400
    166    169    170     1   109.5600471 388.275200
    166    169    171     1   109.5600471 388.275200
    167    166    169     1   109.5600471 388.275200
    167    166    172     1   109.8800469 414.216000
    167    166    168     1   108.4600466 328.025600
    168    166    169     1   109.5600471 388.275200
    168    166    172     1   109.8800469 414.216000
    169    189    190     1   117.6800502 383.254400
    170    169    189     1   108.8800464 416.726400
    170    169    171     1   108.4600466 328.025600
    171    169    189     1   108.8800464 416.726400
    172    173    174     1   109.8800469 414.216000
    172    173    175     1   109.8800469 414.216000
    172    176    177     1   109.8800469 414.216000
    172    176    178     1   109.8800469 414.216000
    173    182    183     1   109.8000471 387.438400
    173    182    184     1   109.8000471 387.438400
    174    173    182     1   109.5600471 388.275200
    174    173    175     1   108.4600466 328.025600
    175    173    182     1   109.5600471 388.275200
    176    179    180     1   109.8000471 387.438400
    176    179    181     1   109.8000471 387.438400
    177    176    179     1   109.5600471 388.275200
    177    176    178     1   108.4600466 328.025600
    178    176    179     1   109.5600471 388.275200
    180    179    185     1   108.7700466 392.459200
    180    179    181     1   107.5800459 329.699200
    181    179    185     1   108.7700466 392.459200
    183    182    186     1   108.7700466 392.459200
    183    182    184     1   107.5800459 329.699200
    184    182    186     1   108.7700466 392.459200
    185    414    415     1   117.5500507 404.174400
    186    439    440     1   117.5500507 404.174400
    191    194    195     1   109.5600471 388.275200
    191    194    196     1   109.5600471 388.275200
    192    191    194     1   109.5600471 388.275200
    192    191    197     1   109.8800469 414.216000
    192    191    193     1   108.4600466 328.025600
    193    191    194     1   109.5600471 388.275200
    193    191    197     1   109.8800469 414.216000
    194    214    215     1   117.6800502 383.254400
    195    194    214     1   108.8800464 416.726400
    195    194    196     1   108.4600466 328.025600
    196    194    214     1   108.8800464 416.726400
    197    198    199     1   109.8800469 414.216000
    197    198    200     1   109.8800469 414.216000
    197    201    202     1   109.8800469 414.216000
    197    201    203     1   109.8800469 414.216000
    198    207    208     1   109.8000471 387.438400
    198    207    209     1   109.8000471 387.438400
    199    198    207     1   109.5600471 388.275200
    199    198    200     1   108.4600466 328.025600
    200    198    207     1   109.5600471 388.275200
    201    204    205     1   109.8000471 387.438400
    201    204    206     1   109.8000471 387.438400
    202    201    204     1   109.5600471 388.275200
    202    201    203     1   108.4600466 328.025600
    203    201    204     1   109.5600471 388.275200
    205    204    210     1   108.7700466 392.459200
    205    204    206     1   107.5800459 329.699200
    206    204    210     1   108.7700466 392.459200
    208    207    211     1   108.7700466 392.459200
    208    207    209     1   107.5800459 329.699200
    209    207    211     1   108.7700466 392.459200
    210    464    465     1   117.5500507 404.174400
    211    489    490     1   117.5500507 404.174400
    216    219    220     1   109.5600471 388.275200
    216    219    221     1   109.5600471 388.275200
    217    216    219     1   109.5600471 388.275200
    217    216    222     1   109.8800469 414.216000
    217    216    218     1   108.4600466 328.025600
    218    216    219     1   109.5600471 388.275200
    218    216    222     1   109.8800469 414.216000
    219    239    240     1   117.6800502 383.254400
    220    219    239     1   108.8800464 416.726400
    220    219    221     1   108.4600466 328.025600
    221    219    239     1   108.8800464 416.726400
    222    223    224     1   109.8800469 414.216000
    222    223    225     1   109.8800469 414.216000
    222    226    227     1   109.8800469 414.216000
    222    226    228     1   109.8800469 414.216000
    223    232    233     1   109.8000471 387.438400
    223    232    234     1   109.8000471 387.438400
    224    223    232     1   109.5600471 388.275200
    224    223    225     1   108.4600466 328.025600
    225    223    232     1   109.5600471 388.275200
    226    229    230     1   109.8000471 387.438400
    226    229    231     1   109.8000471 387.438400
    227    226    229     1   109.5600471 388.275200
    227    226    228     1   108.4600466 328.025600
    228    226    229     1   109.5600471 388.275200
    230    229    235     1   108.7700466 392.459200
    230    229    231     1   107.5800459 329.699200
    231    229    235     1   108.7700466 392.459200
    233    232    236     1   108.7700466 392.459200
    233    232    234     1   107.5800459 329.699200
    234    232    236     1   108.7700466 392.459200
    235    514    515     1   117.5500507 404.174400
    236    539    540     1   117.5500507 404.174400
    241    244    245     1   109.5600471 388.275200
    241    244    246     1   109.5600471 388.275200
    242    241    244     1   109.5600471 388.275200
    242    241    247     1   109.8800469 414.216000
    242    241    243     1   108.4600466 328.025600
    243    241    244     1   109.5600471 388.275200
    243    241    247     1   109.8800469 414.216000
    244    264    265     1   117.6800502 383.254400
    245    244    264     1   108.8800464 416.726400
    245    244    246     1   108.4600466 328.025600
    246    244    264     1   108.8800464 416.726400
    247    248    249     1   109.8800469 414.216000
    247    248    250     1   109.8800469 414.216000
    247    251    252     1   109.8800469 414.216000
    247    251    253     1   109.8800469 414.216000
    248    257    258     1   109.8000471 387.438400
    248    257    259     1   109.8000471 387.438400
    249    248    257     1   109.5600471 388.275200
    249    248    250     1   108.4600466 328.025600
    250    248    257     1   109.5600471 388.275200
    251    254    255     1   109.8000471 387.438400
    251    254    256     1   109.8000471 387.438400
    252    251    254     1   109.5600471 388.275200
    252    251    253     1   108.4600466 328.025600
    253    251    254     1   109.5600471 388.275200
    255    254    260     1   108.7700466 392.459200
    255    254    256     1   107.5800459 329.699200
    256    254    260     1   108.7700466 392.459200
    258    257    261     1   108.7700466 392.459200
    258    257    259     1   107.5800459 329.699200
    259    257    261     1   108.7700466 392.459200
    260    564    565     1   117.5500507 404.174400
    261    589    590     1   117.5500507 404.174400
    266    269    270     1   109.5600471 388.275200
    266    269    271     1   109.5600471 388.275200
    267    266    269     1   109.5600471 388.275200
    267    266    272     1   109.8800469 414.216000
    267    266    268     1   108.4600466 328.025600
    268    266    269     1   109.5600471 388.275200
    268    266    272     1   109.8800469 414.216000
    269    289    290     1   117.6800502 383.254400
    270    269    289     1   108.8800464 416.726400
    270    269    271     1   108.4600466 328.025600
    271    269    289     1   108.8800464 416.726400
    272    273    274     1   109.8800469 414.216000
    272    273    275     1   109.8800469 414.216000
    272    276    277     1   109.8800469 414.216000
    272    276    278     1   109.8800469 414.216000
    273    282    283     1   109.8000471 387.438400
    273    282    284     1   109.8000471 387.438400
    274    273    282     1   109.5600471 388.275200
    274    273    275     1   108.4600466 328.025600
    275    273    282     1   109.5600471 388.275200
    276    279    280     1   109.8000471 387.438400
    276    279    281     1   109.8000471 387.438400
    277    276    279     1   109.5600471 388.275200
    277    276    278     1   108.4600466 328.025600
    278    276    279     1   109.5600471 388.275200
    280    279    285     1   108.7700466 392.459200
    280    279    281     1   107.5800459 329.699200
    281    279    285     1   108.7700466 392.459200
    283    282    286     1   108.7700466 392.459200
    283    282    284     1   107.5800459 329.699200
    284    282    286     1   108.7700466 392.459200
    285    614    615     1   117.5500507 404.174400
    286    639    640     1   117.5500507 404.174400
    291    294    295     1   109.5600471 388.275200
    291    294    296     1   109.5600471 388.275200
    292    291    294     1   109.5600471 388.275200
    292    291    297     1   109.8800469 414.216000
    292    291    293     1   108.4600466 328.025600
    293    291    294     1   109.5600471 388.275200
    293    291    297     1   109.8800469 414.216000
    294    314    315     1   117.6800502 383.254400
    295    294    314     1   108.8800464 416.726400
    295    294    296     1   108.4600466 328.025600
    296    294    314     1   108.8800464 416.726400
    297    298    299     1   109.8800469 414.216000
    297    298    300     1   109.8800469 414.216000
    297    301    302     1   109.8800469 414.216000
    297    301    303     1   109.8800469 414.216000
    298    307    308     1   109.8000471 387.438400
    298    307    309     1   109.8000471 387.438400
    299    298    307     1   109.5600471 388.275200
    299    298    300     1   108.4600466 328.025600
    300    298    307     1   109.5600471 388.275200
    301    304    305     1   109.8000471 387.438400
    301    304    306     1   109.8000471 387.438400
    302    301    304     1   109.5600471 388.275200
    302    301    303     1   108.4600466 328.025600
    303    301    304     1   109.5600471 388.275200
    305    304    310     1   108.7700466 392.459200
    305    304    306     1   107.5800459 329.699200
    306    304    310     1   108.7700466 392.459200
    308    307    311     1   108.7700466 392.459200
    308    307    309     1   107.5800459 329.699200
    309    307    311     1   108.7700466 392.459200
    310    664    665     1   117.5500507 404.174400
    311    689    690     1   117.5500507 404.174400
    316    319    320     1   109.5600471 388.275200
    316    319    321     1   109.5600471 388.275200
    317    316    319     1   109.5600471 388.275200
    317    316    322     1   109.8800469 414.216000
    317    316    318     1   108.4600466 328.025600
    318    316    319     1   109.5600471 388.275200
    318    316    322     1   109.8800469 414.216000
    319    339    340     1   117.6800502 383.254400
    320    319    339     1   108.8800464 416.726400
    320    319    321     1   108.4600466 328.025600
    321    319    339     1   108.8800464 416.726400
    322    323    324     1   109.8800469 414.216000
    322    323    325     1   109.8800469 414.216000
    322    326    327     1   109.8800469 414.216000
    322    326    328     1   109.8800469 414.216000
    323    332    333     1   109.8000471 387.438400
    323    332    334     1   109.8000471 387.438400
    324    323    332     1   109.5600471 388.275200
    324    323    325     1   108.4600466 328.025600
    325    323    332     1   109.5600471 388.275200
    326    329    330     1   109.8000471 387.438400
    326    329    331     1   109.8000471 387.438400
    327    326    329     1   109.5600471 388.275200
    327    326    328     1   108.4600466 328.025600
    328    326    329     1   109.5600471 388.275200
    330    329    335     1   108.7700466 392.459200
    330    329    331     1   107.5800459 329.699200
    331    329    335     1   108.7700466 392.459200
    333    332    336     1   108.7700466 392.459200
    333    332    334     1   107.5800459 329.699200
    334    332    336     1   108.7700466 392.459200
    335    714    715     1   117.5500507 404.174400
    336    739    740     1   117.5500507 404.174400
    341    344    345     1   109.5600471 388.275200
    341    344    346     1   109.5600471 388.275200
    342    341    344     1   109.5600471 388.275200
    342    341    347     1   109.8800469 414.216000
    342    341    343     1   108.4600466 328.025600
    343    341    344     1   109.5600471 388.275200
    343    341    347     1   109.8800469 414.216000
    344    364    365     1   117.6800502 383.254400
    345    344    364     1   108.8800464 416.726400
    345    344    346     1   108.4600466 328.025600
    346    344    364     1   108.8800464 416.726400
    347    348    349     1   109.8800469 414.216000
    347    348    350     1   109.8800469 414.216000
    347    351    352     1   109.8800469 414.216000
    347    351    353     1   109.8800469 414.216000
    348    357    358     1   109.8000471 387.438400
    348    357    359     1   109.8000471 387.438400
    349    348    357     1   109.5600471 388.275200
    349    348    350     1   108.4600466 328.025600
    350    348    357     1   109.5600471 388.275200
    351    354    355     1   109.8000471 387.438400
    351    354    356     1   109.8000471 387.438400
    352    351    354     1   109.5600471 388.275200
    352    351    353     1   108.4600466 328.025600
    353    351    354     1   109.5600471 388.275200
    355    354    360     1   108.7700466 392.459200
    355    354    356     1   107.5800459 329.699200
    356    354    360     1   108.7700466 392.459200
    358    357    361     1   108.7700466 392.459200
    358    357    359     1   107.5800459 329.699200
    359    357    361     1   108.7700466 392.459200
    360    764    765     1   117.5500507 404.174400
    361    789    790     1   117.5500507 404.174400
    366    369    370     1   109.5600471 388.275200
    366    369    371     1   109.5600471 388.275200
    367    366    369     1   109.5600471 388.275200
    367    366    372     1   109.8800469 414.216000
    367    366    368     1   108.4600466 328.025600
    368    366    369     1   109.5600471 388.275200
    368    366    372     1   109.8800469 414.216000
    369    389    390     1   117.6800502 383.254400
    370    369    389     1   108.8800464 416.726400
    370    369    371     1   108.4600466 328.025600
    371    369    389     1   108.8800464 416.726400
    372    373    374     1   109.8800469 414.216000
    372    373    375     1   109.8800469 414.216000
    372    376    377     1   109.8800469 414.216000
    372    376    378     1   109.8800469 414.216000
    373    382    383     1   109.8000471 387.438400
    373    382    384     1   109.8000471 387.438400
    374    373    382     1   109.5600471 388.275200
    374    373    375     1   108.4600466 328.025600
    375    373    382     1   109.5600471 388.275200
    376    379    380     1   109.8000471 387.438400
    376    379    381     1   109.8000471 387.438400
    377    376    379     1   109.5600471 388.275200
    377    376    378     1   108.4600466 328.025600
    378    376    379     1   109.5600471 388.275200
    380    379    385     1   108.7700466 392.459200
    380    379    381     1   107.5800459 329.699200
    381    379    385     1   108.7700466 392.459200
    383    382    386     1   108.7700466 392.459200
    383    382    384     1   107.5800459 329.699200
    384    382    386     1   108.7700466 392.459200
    385    814    815     1   117.5500507 404.174400
    386    839    840     1   117.5500507 404.174400
    391    394    395     1   109.5600471 388.275200
    391    394    396     1   109.5600471 388.275200
    392    391    394     1   109.5600471 388.275200
    392    391    397     1   109.8800469 414.216000
    392    391    393     1   108.4600466 328.025600
    393    391    394     1   109.5600471 388.275200
    393    391    397     1   109.8800469 414.216000
    394    414    415     1   117.6800502 383.254400
    395    394    414     1   108.8800464 416.726400
    395    394    396     1   108.4600466 328.025600
    396    394    414     1   108.8800464 416.726400
    397    398    399     1   109.8800469 414.216000
    397    398    400     1   109.8800469 414.216000
    397    401    402     1   109.8800469 414.216000
    397    401    403     1   109.8800469 414.216000
    398    407    408     1   109.8000471 387.438400
    398    407    409     1   109.8000471 387.438400
    399    398    407     1   109.5600471 388.275200
    399    398    400     1   108.4600466 328.025600
    400    398    407     1   109.5600471 388.275200
    401    404    405     1   109.8000471 387.438400
    401    404    406     1   109.8000471 387.438400
    402    401    404     1   109.5600471 388.275200
    402    401    403     1   108.4600466 328.025600
    403    401    404     1   109.5600471 388.275200
    405    404    410     1   108.7700466 392.459200
    405    404    406     1   107.5800459 329.699200
    406    404    410     1   108.7700466 392.459200
    408    407    411     1   108.7700466 392.459200
    408    407    409     1   107.5800459 329.699200
    409    407    411     1   108.7700466 392.459200
    410    864    865     1   117.5500507 404.174400
    411    889    890     1   117.5500507 404.174400
    416    419    420     1   109.5600471 388.275200
    416    419    421     1   109.5600471 388.275200
    417    416    419     1   109.5600471 388.275200
    417    416    422     1   109.8800469 414.216000
    417    416    418     1   108.4600466 328.025600
    418    416    419     1   109.5600471 388.275200
    418    416    422     1   109.8800469 414.216000
    419    439    440     1   117.6800502 383.254400
    420    419    439     1   108.8800464 416.726400
    420    419    421     1   108.4600466 328.025600
    421    419    439     1   108.8800464 416.726400
    422    423    424     1   109.8800469 414.216000
    422    423    425     1   109.8800469 414.216000
    422    426    427     1   109.8800469 414.216000
    422    426    428     1   109.8800469 414.216000
    423    432    433     1   109.8000471 387.438400
    423    432    434     1   109.8000471 387.438400
    424    423    432     1   109.5600471 388.275200
    424    423    425     1   108.4600466 328.025600
    425    423    432     1   109.5600471 388.275200
    426    429    430     1   109.8000471 387.438400
    426    429    431     1   109.8000471 387.438400
    427    426    429     1   109.5600471 388.275200
    427    426    428     1   108.4600466 328.025600
    428    426    429     1   109.5600471 388.275200
    430    429    435     1   108.7700466 392.459200
    430    429    431     1   107.5800459 329.699200
    431    429    435     1   108.7700466 392.459200
    433    432    436     1   108.7700466 392.459200
    433    432    434     1   107.5800459 329.699200
    434    432    436     1   108.7700466 392.459200
    435    914    915     1   117.5500507 404.174400
    436    939    940     1   117.5500507 404.174400
    441    444    445     1   109.5600471 388.275200
    441    444    446     1   109.5600471 388.275200
    442    441    444     1   109.5600471 388.275200
    442    441    447     1   109.8800469 414.216000
    442    441    443     1   108.4600466 328.025600
    443    441    444     1   109.5600471 388.275200
    443    441    447     1   109.8800469 414.216000
    444    464    465     1   117.6800502 383.254400
    445    444    464     1   108.8800464 416.726400
    445    444    446     1   108.4600466 328.025600
    446    444    464     1   108.8800464 416.726400
    447    448    449     1   109.8800469 414.216000
    447    448    450     1   109.8800469 414.216000
    447    451    452     1   109.8800469 414.216000
    447    451    453     1   109.8800469 414.216000
    448    457    458     1   109.8000471 387.438400
    448    457    459     1   109.8000471 387.438400
    449    448    457     1   109.5600471 388.275200
    449    448    450     1   108.4600466 328.025600
    450    448    457     1   109.5600471 388.275200
    451    454    455     1   109.8000471 387.438400
    451    454    456     1   109.8000471 387.438400
    452    451    454     1   109.5600471 388.275200
    452    451    453     1   108.4600466 328.025600
    453    451    454     1   109.5600471 388.275200
    455    454    460     1   108.7700466 392.459200
    455    454    456     1   107.5800459 329.699200
    456    454    460     1   108.7700466 392.459200
    458    457    461     1   108.7700466 392.459200
    458    457    459     1   107.5800459 329.699200
    459    457    461     1   108.7700466 392.459200
    460    964    965     1   117.5500507 404.174400
    461    989    990     1   117.5500507 404.174400
    466    469    470     1   109.5600471 388.275200
    466    469    471     1   109.5600471 388.275200
    467    466    469     1   109.5600471 388.275200
    467    466    472     1   109.8800469 414.216000
    467    466    468     1   108.4600466 328.025600
    468    466    469     1   109.5600471 388.275200
    468    466    472     1   109.8800469 414.216000
    469    489    490     1   117.6800502 383.254400
    470    469    489     1   108.8800464 416.726400
    470    469    471     1   108.4600466 328.025600
    471    469    489     1   108.8800464 416.726400
    472    473    474     1   109.8800469 414.216000
    472    473    475     1   109.8800469 414.216000
    472    476    477     1   109.8800469 414.216000
    472    476    478     1   109.8800469 414.216000
    473    482    483     1   109.8000471 387.438400
    473    482    484     1   109.8000471 387.438400
    474    473    482     1   109.5600471 388.275200
    474    473    475     1   108.4600466 328.025600
    475    473    482     1   109.5600471 388.275200
    476    479    480     1   109.8000471 387.438400
    476    479    481     1   109.8000471 387.438400
    477    476    479     1   109.5600471 388.275200
    477    476    478     1   108.4600466 328.025600
    478    476    479     1   109.5600471 388.275200
    480    479    485     1   108.7700466 392.459200
    480    479    481     1   107.5800459 329.699200
    481    479    485     1   108.7700466 392.459200
    483    482    486     1   108.7700466 392.459200
    483    482    484     1   107.5800459 329.699200
    484    482    486     1   108.7700466 392.459200
    485   1014   1015     1   117.5500507 404.174400
    486   1039   1040     1   117.5500507 404.174400
    491    494    495     1   109.5600471 388.275200
    491    494    496     1   109.5600471 388.275200
    492    491    494     1   109.5600471 388.275200
    492    491    497     1   109.8800469 414.216000
    492    491    493     1   108.4600466 328.025600
    493    491    494     1   109.5600471 388.275200
    493    491    497     1   109.8800469 414.216000
    494    514    515     1   117.6800502 383.254400
    495    494    514     1   108.8800464 416.726400
    495    494    496     1   108.4600466 328.025600
    496    494    514     1   108.8800464 416.726400
    497    498    499     1   109.8800469 414.216000
    497    498    500     1   109.8800469 414.216000
    497    501    502     1   109.8800469 414.216000
    497    501    503     1   109.8800469 414.216000
    498    507    508     1   109.8000471 387.438400
    498    507    509     1   109.8000471 387.438400
    499    498    507     1   109.5600471 388.275200
    499    498    500     1   108.4600466 328.025600
    500    498    507     1   109.5600471 388.275200
    501    504    505     1   109.8000471 387.438400
    501    504    506     1   109.8000471 387.438400
    502    501    504     1   109.5600471 388.275200
    502    501    503     1   108.4600466 328.025600
    503    501    504     1   109.5600471 388.275200
    505    504    510     1   108.7700466 392.459200
    505    504    506     1   107.5800459 329.699200
    506    504    510     1   108.7700466 392.459200
    508    507    511     1   108.7700466 392.459200
    508    507    509     1   107.5800459 329.699200
    509    507    511     1   108.7700466 392.459200
    510   1064   1065     1   117.5500507 404.174400
    511   1089   1090     1   117.5500507 404.174400
    516    519    520     1   109.5600471 388.275200
    516    519    521     1   109.5600471 388.275200
    517    516    519     1   109.5600471 388.275200
    517    516    522     1   109.8800469 414.216000
    517    516    518     1   108.4600466 328.025600
    518    516    519     1   109.5600471 388.275200
    518    516    522     1   109.8800469 414.216000
    519    539    540     1   117.6800502 383.254400
    520    519    539     1   108.8800464 416.726400
    520    519    521     1   108.4600466 328.025600
    521    519    539     1   108.8800464 416.726400
    522    523    524     1   109.8800469 414.216000
    522    523    525     1   109.8800469 414.216000
    522    526    527     1   109.8800469 414.216000
    522    526    528     1   109.8800469 414.216000
    523    532    533     1   109.8000471 387.438400
    523    532    534     1   109.8000471 387.438400
    524    523    532     1   109.5600471 388.275200
    524    523    525     1   108.4600466 328.025600
    525    523    532     1   109.5600471 388.275200
    526    529    530     1   109.8000471 387.438400
    526    529    531     1   109.8000471 387.438400
    527    526    529     1   109.5600471 388.275200
    527    526    528     1   108.4600466 328.025600
    528    526    529     1   109.5600471 388.275200
    530    529    535     1   108.7700466 392.459200
    530    529    531     1   107.5800459 329.699200
    531    529    535     1   108.7700466 392.459200
    533    532    536     1   108.7700466 392.459200
    533    532    534     1   107.5800459 329.699200
    534    532    536     1   108.7700466 392.459200
    535   1114   1115     1   117.5500507 404.174400
    536   1139   1140     1   117.5500507 404.174400
    541    544    545     1   109.5600471 388.275200
    541    544    546     1   109.5600471 388.275200
    542    541    544     1   109.5600471 388.275200
    542    541    547     1   109.8800469 414.216000
    542    541    543     1   108.4600466 328.025600
    543    541    544     1   109.5600471 388.275200
    543    541    547     1   109.8800469 414.216000
    544    564    565     1   117.6800502 383.254400
    545    544    564     1   108.8800464 416.726400
    545    544    546     1   108.4600466 328.025600
    546    544    564     1   108.8800464 416.726400
    547    548    549     1   109.8800469 414.216000
    547    548    550     1   109.8800469 414.216000
    547    551    552     1   109.8800469 414.216000
    547    551    553     1   109.8800469 414.216000
    548    557    558     1   109.8000471 387.438400
    548    557    559     1   109.8000471 387.438400
    549    548    557     1   109.5600471 388.275200
    549    548    550     1   108.4600466 328.025600
    550    548    557     1   109.5600471 388.275200
    551    554    555     1   109.8000471 387.438400
    551    554    556     1   109.8000471 387.438400
    552    551    554     1   109.5600471 388.275200
    552    551    553     1   108.4600466 328.025600
    553    551    554     1   109.5600471 388.275200
    555    554    560     1   108.7700466 392.459200
    555    554    556     1   107.5800459 329.699200
    556    554    560     1   108.7700466 392.459200
    558    557    561     1   108.7700466 392.459200
    558    557    559     1   107.5800459 329.699200
    559    557    561     1   108.7700466 392.459200
    560   1164   1165     1   117.5500507 404.174400
    561   1189   1190     1   117.5500507 404.174400
    566    569    570     1   109.5600471 388.275200
    566    569    571     1   109.5600471 388.275200
    567    566    569     1   109.5600471 388.275200
    567    566    572     1   109.8800469 414.216000
    567    566    568     1   108.4600466 328.025600
    568    566    569     1   109.5600471 388.275200
    568    566    572     1   109.8800469 414.216000
    569    589    590     1   117.6800502 383.254400
    570    569    589     1   108.8800464 416.726400
    570    569    571     1   108.4600466 328.025600
    571    569    589     1   108.8800464 416.726400
    572    573    574     1   109.8800469 414.216000
    572    573    575     1   109.8800469 414.216000
    572    576    577     1   109.8800469 414.216000
    572    576    578     1   109.8800469 414.216000
    573    582    583     1   109.8000471 387.438400
    573    582    584     1   109.8000471 387.438400
    574    573    582     1   109.5600471 388.275200
    574    573    575     1   108.4600466 328.025600
    575    573    582     1   109.5600471 388.275200
    576    579    580     1   109.8000471 387.438400
    576    579    581     1   109.8000471 387.438400
    577    576    579     1   109.5600471 388.275200
    577    576    578     1   108.4600466 328.025600
    578    576    579     1   109.5600471 388.275200
    580    579    585     1   108.7700466 392.459200
    580    579    581     1   107.5800459 329.699200
    581    579    585     1   108.7700466 392.459200
    583    582    586     1   108.7700466 392.459200
    583    582    584     1   107.5800459 329.699200
    584    582    586     1   108.7700466 392.459200
    585   1214   1215     1   117.5500507 404.174400
    586   1239   1240     1   117.5500507 404.174400
    591    594    595     1   109.5600471 388.275200
    591    594    596     1   109.5600471 388.275200
    592    591    594     1   109.5600471 388.275200
    592    591    597     1   109.8800469 414.216000
    592    591    593     1   108.4600466 328.025600
    593    591    594     1   109.5600471 388.275200
    593    591    597     1   109.8800469 414.216000
    594    614    615     1   117.6800502 383.254400
    595    594    614     1   108.8800464 416.726400
    595    594    596     1   108.4600466 328.025600
    596    594    614     1   108.8800464 416.726400
    597    598    599     1   109.8800469 414.216000
    597    598    600     1   109.8800469 414.216000
    597    601    602     1   109.8800469 414.216000
    597    601    603     1   109.8800469 414.216000
    598    607    608     1   109.8000471 387.438400
    598    607    609     1   109.8000471 387.438400
    599    598    607     1   109.5600471 388.275200
    599    598    600     1   108.4600466 328.025600
    600    598    607     1   109.5600471 388.275200
    601    604    605     1   109.8000471 387.438400
    601    604    606     1   109.8000471 387.438400
    602    601    604     1   109.5600471 388.275200
    602    601    603     1   108.4600466 328.025600
    603    601    604     1   109.5600471 388.275200
    605    604    610     1   108.7700466 392.459200
    605    604    606     1   107.5800459 329.699200
    606    604    610     1   108.7700466 392.459200
    608    607    611     1   108.7700466 392.459200
    608    607    609     1   107.5800459 329.699200
    609    607    611     1   108.7700466 392.459200
    610   1264   1265     1   117.5500507 404.174400
    611   1289   1290     1   117.5500507 404.174400
    616    619    620     1   109.5600471 388.275200
    616    619    621     1   109.5600471 388.275200
    617    616    619     1   109.5600471 388.275200
    617    616    622     1   109.8800469 414.216000
    617    616    618     1   108.4600466 328.025600
    618    616    619     1   109.5600471 388.275200
    618    616    622     1   109.8800469 414.216000
    619    639    640     1   117.6800502 383.254400
    620    619    639     1   108.8800464 416.726400
    620    619    621     1   108.4600466 328.025600
    621    619    639     1   108.8800464 416.726400
    622    623    624     1   109.8800469 414.216000
    622    623    625     1   109.8800469 414.216000
    622    626    627     1   109.8800469 414.216000
    622    626    628     1   109.8800469 414.216000
    623    632    633     1   109.8000471 387.438400
    623    632    634     1   109.8000471 387.438400
    624    623    632     1   109.5600471 388.275200
    624    623    625     1   108.4600466 328.025600
    625    623    632     1   109.5600471 388.275200
    626    629    630     1   109.8000471 387.438400
    626    629    631     1   109.8000471 387.438400
    627    626    629     1   109.5600471 388.275200
    627    626    628     1   108.4600466 328.025600
    628    626    629     1   109.5600471 388.275200
    630    629    635     1   108.7700466 392.459200
    630    629    631     1   107.5800459 329.699200
    631    629    635     1   108.7700466 392.459200
    633    632    636     1   108.7700466 392.459200
    633    632    634     1   107.5800459 329.699200
    634    632    636     1   108.7700466 392.459200
    635   1314   1315     1   117.5500507 404.174400
    636   1339   1340     1   117.5500507 404.174400
    641    644    645     1   109.5600471 388.275200
    641    644    646     1   109.5600471 388.275200
    642    641    644     1   109.5600471 388.275200
    642    641    647     1   109.8800469 414.216000
    642    641    643     1   108.4600466 328.025600
    643    641    644     1   109.5600471 388.275200
    643    641    647     1   109.8800469 414.216000
    644    664    665     1   117.6800502 383.254400
    645    644    664     1   108.8800464 416.726400
    645    644    646     1   108.4600466 328.025600
    646    644    664     1   108.8800464 416.726400
    647    648    649     1   109.8800469 414.216000
    647    648    650     1   109.8800469 414.216000
    647    651    652     1   109.8800469 414.216000
    647    651    653     1   109.8800469 414.216000
    648    657    658     1   109.8000471 387.438400
    648    657    659     1   109.8000471 387.438400
    649    648    657     1   109.5600471 388.275200
    649    648    650     1   108.4600466 328.025600
    650    648    657     1   109.5600471 388.275200
    651    654    655     1   109.8000471 387.438400
    651    654    656     1   109.8000471 387.438400
    652    651    654     1   109.5600471 388.275200
    652    651    653     1   108.4600466 328.025600
    653    651    654     1   109.5600471 388.275200
    655    654    660     1   108.7700466 392.459200
    655    654    656     1   107.5800459 329.699200
    656    654    660     1   108.7700466 392.459200
    658    657    661     1   108.7700466 392.459200
    658    657    659     1   107.5800459 329.699200
    659    657    661     1   108.7700466 392.459200
    660   1364   1365     1   117.5500507 404.174400
    661   1389   1390     1   117.5500507 404.174400
    666    669    670     1   109.5600471 388.275200
    666    669    671     1   109.5600471 388.275200
    667    666    669     1   109.5600471 388.275200
    667    666    672     1   109.8800469 414.216000
    667    666    668     1   108.4600466 328.025600
    668    666    669     1   109.5600471 388.275200
    668    666    672     1   109.8800469 414.216000
    669    689    690     1   117.6800502 383.254400
    670    669    689     1   108.8800464 416.726400
    670    669    671     1   108.4600466 328.025600
    671    669    689     1   108.8800464 416.726400
    672    673    674     1   109.8800469 414.216000
    672    673    675     1   109.8800469 414.216000
    672    676    677     1   109.8800469 414.216000
    672    676    678     1   109.8800469 414.216000
    673    682    683     1   109.8000471 387.438400
    673    682    684     1   109.8000471 387.438400
    674    673    682     1   109.5600471 388.275200
    674    673    675     1   108.4600466 328.025600
    675    673    682     1   109.5600471 388.275200
    676    679    680     1   109.8000471 387.438400
    676    679    681     1   109.8000471 387.438400
    677    676    679     1   109.5600471 388.275200
    677    676    678     1   108.4600466 328.025600
    678    676    679     1   109.5600471 388.275200
    680    679    685     1   108.7700466 392.459200
    680    679    681     1   107.5800459 329.699200
    681    679    685     1   108.7700466 392.459200
    683    682    686     1   108.7700466 392.459200
    683    682    684     1   107.5800459 329.699200
    684    682    686     1   108.7700466 392.459200
    685   1414   1415     1   117.5500507 404.174400
    686   1439   1440     1   117.5500507 404.174400
    691    694    695     1   109.5600471 388.275200
    691    694    696     1   109.5600471 388.275200
    692    691    694     1   109.5600471 388.275200
    692    691    697     1   109.8800469 414.216000
    692    691    693     1   108.4600466 328.025600
    693    691    694     1   109.5600471 388.275200
    693    691    697     1   109.8800469 414.216000
    694    714    715     1   117.6800502 383.254400
    695    694    714     1   108.8800464 416.726400
    695    694    696     1   108.4600466 328.025600
    696    694    714     1   108.8800464 416.726400
    697    698    699     1   109.8800469 414.216000
    697    698    700     1   109.8800469 414.216000
    697    701    702     1   109.8800469 414.216000
    697    701    703     1   109.8800469 414.216000
    698    707    708     1   109.8000471 387.438400
    698    707    709     1   109.8000471 387.438400
    699    698    707     1   109.5600471 388.275200
    699    698    700     1   108.4600466 328.025600
    700    698    707     1   109.5600471 388.275200
    701    704    705     1   109.8000471 387.438400
    701    704    706     1   109.8000471 387.438400
    702    701    704     1   109.5600471 388.275200
    702    701    703     1   108.4600466 328.025600
    703    701    704     1   109.5600471 388.275200
    705    704    710     1   108.7700466 392.459200
    705    704    706     1   107.5800459 329.699200
    706    704    710     1   108.7700466 392.459200
    708    707    711     1   108.7700466 392.459200
    708    707    709     1   107.5800459 329.699200
    709    707    711     1   108.7700466 392.459200
    710   1464   1465     1   117.5500507 404.174400
    711   1489   1490     1   117.5500507 404.174400
    716    719    720     1   109.5600471 388.275200
    716    719    721     1   109.5600471 388.275200
    717    716    719     1   109.5600471 388.275200
    717    716    722     1   109.8800469 414.216000
    717    716    718     1   108.4600466 328.025600
    718    716    719     1   109.5600471 388.275200
    718    716    722     1   109.8800469 414.216000
    719    739    740     1   117.6800502 383.254400
    720    719    739     1   108.8800464 416.726400
    720    719    721     1   108.4600466 328.025600
    721    719    739     1   108.8800464 416.726400
    722    723    724     1   109.8800469 414.216000
    722    723    725     1   109.8800469 414.216000
    722    726    727     1   109.8800469 414.216000
    722    726    728     1   109.8800469 414.216000
    723    732    733     1   109.8000471 387.438400
    723    732    734     1   109.8000471 387.438400
    724    723    732     1   109.5600471 388.275200
    724    723    725     1   108.4600466 328.025600
    725    723    732     1   109.5600471 388.275200
    726    729    730     1   109.8000471 387.438400
    726    729    731     1   109.8000471 387.438400
    727    726    729     1   109.5600471 388.275200
    727    726    728     1   108.4600466 328.025600
    728    726    729     1   109.5600471 388.275200
    730    729    735     1   108.7700466 392.459200
    730    729    731     1   107.5800459 329.699200
    731    729    735     1   108.7700466 392.459200
    733    732    736     1   108.7700466 392.459200
    733    732    734     1   107.5800459 329.699200
    734    732    736     1   108.7700466 392.459200
    735   1514   1515     1   117.5500507 404.174400
    736   1539   1540     1   117.5500507 404.174400
    741    744    745     1   109.5600471 388.275200
    741    744    746     1   109.5600471 388.275200
    742    741    744     1   109.5600471 388.275200
    742    741    747     1   109.8800469 414.216000
    742    741    743     1   108.4600466 328.025600
    743    741    744     1   109.5600471 388.275200
    743    741    747     1   109.8800469 414.216000
    744    764    765     1   117.6800502 383.254400
    745    744    764     1   108.8800464 416.726400
    745    744    746     1   108.4600466 328.025600
    746    744    764     1   108.8800464 416.726400
    747    748    749     1   109.8800469 414.216000
    747    748    750     1   109.8800469 414.216000
    747    751    752     1   109.8800469 414.216000
    747    751    753     1   109.8800469 414.216000
    748    757    758     1   109.8000471 387.438400
    748    757    759     1   109.8000471 387.438400
    749    748    757     1   109.5600471 388.275200
    749    748    750     1   108.4600466 328.025600
    750    748    757     1   109.5600471 388.275200
    751    754    755     1   109.8000471 387.438400
    751    754    756     1   109.8000471 387.438400
    752    751    754     1   109.5600471 388.275200
    752    751    753     1   108.4600466 328.025600
    753    751    754     1   109.5600471 388.275200
    755    754    760     1   108.7700466 392.459200
    755    754    756     1   107.5800459 329.699200
    756    754    760     1   108.7700466 392.459200
    758    757    761     1   108.7700466 392.459200
    758    757    759     1   107.5800459 329.699200
    759    757    761     1   108.7700466 392.459200
    760   1541   1542     1   117.5500507 404.174400
    761   1614   1615     1   117.5500507 404.174400
    766    769    770     1   109.5600471 388.275200
    766    769    771     1   109.5600471 388.275200
    767    766    769     1   109.5600471 388.275200
    767    766    772     1   109.8800469 414.216000
    767    766    768     1   108.4600466 328.025600
    768    766    769     1   109.5600471 388.275200
    768    766    772     1   109.8800469 414.216000
    769    789    790     1   117.6800502 383.254400
    770    769    789     1   108.8800464 416.726400
    770    769    771     1   108.4600466 328.025600
    771    769    789     1   108.8800464 416.726400
    772    773    774     1   109.8800469 414.216000
    772    773    775     1   109.8800469 414.216000
    772    776    777     1   109.8800469 414.216000
    772    776    778     1   109.8800469 414.216000
    773    782    783     1   109.8000471 387.438400
    773    782    784     1   109.8000471 387.438400
    774    773    782     1   109.5600471 388.275200
    774    773    775     1   108.4600466 328.025600
    775    773    782     1   109.5600471 388.275200
    776    779    780     1   109.8000471 387.438400
    776    779    781     1   109.8000471 387.438400
    777    776    779     1   109.5600471 388.275200
    777    776    778     1   108.4600466 328.025600
    778    776    779     1   109.5600471 388.275200
    780    779    785     1   108.7700466 392.459200
    780    779    781     1   107.5800459 329.699200
    781    779    785     1   108.7700466 392.459200
    783    782    786     1   108.7700466 392.459200
    783    782    784     1   107.5800459 329.699200
    784    782    786     1   108.7700466 392.459200
    785   1687   1688     1   117.5500507 404.174400
    786   1760   1761     1   117.5500507 404.174400
    791    794    795     1   109.5600471 388.275200
    791    794    796     1   109.5600471 388.275200
    792    791    794     1   109.5600471 388.275200
    792    791    797     1   109.8800469 414.216000
    792    791    793     1   108.4600466 328.025600
    793    791    794     1   109.5600471 388.275200
    793    791    797     1   109.8800469 414.216000
    794    814    815     1   117.6800502 383.254400
    795    794    814     1   108.8800464 416.726400
    795    794    796     1   108.4600466 328.025600
    796    794    814     1   108.8800464 416.726400
    797    798    799     1   109.8800469 414.216000
    797    798    800     1   109.8800469 414.216000
    797    801    802     1   109.8800469 414.216000
    797    801    803     1   109.8800469 414.216000
    798    807    808     1   109.8000471 387.438400
    798    807    809     1   109.8000471 387.438400
    799    798    807     1   109.5600471 388.275200
    799    798    800     1   108.4600466 328.025600
    800    798    807     1   109.5600471 388.275200
    801    804    805     1   109.8000471 387.438400
    801    804    806     1   109.8000471 387.438400
    802    801    804     1   109.5600471 388.275200
    802    801    803     1   108.4600466 328.025600
    803    801    804     1   109.5600471 388.275200
    805    804    810     1   108.7700466 392.459200
    805    804    806     1   107.5800459 329.699200
    806    804    810     1   108.7700466 392.459200
    808    807    811     1   108.7700466 392.459200
    808    807    809     1   107.5800459 329.699200
    809    807    811     1   108.7700466 392.459200
    810   1833   1834     1   117.5500507 404.174400
    811   1906   1907     1   117.5500507 404.174400
    816    819    820     1   109.5600471 388.275200
    816    819    821     1   109.5600471 388.275200
    817    816    819     1   109.5600471 388.275200
    817    816    822     1   109.8800469 414.216000
    817    816    818     1   108.4600466 328.025600
    818    816    819     1   109.5600471 388.275200
    818    816    822     1   109.8800469 414.216000
    819    839    840     1   117.6800502 383.254400
    820    819    839     1   108.8800464 416.726400
    820    819    821     1   108.4600466 328.025600
    821    819    839     1   108.8800464 416.726400
    822    823    824     1   109.8800469 414.216000
    822    823    825     1   109.8800469 414.216000
    822    826    827     1   109.8800469 414.216000
    822    826    828     1   109.8800469 414.216000
    823    832    833     1   109.8000471 387.438400
    823    832    834     1   109.8000471 387.438400
    824    823    832     1   109.5600471 388.275200
    824    823    825     1   108.4600466 328.025600
    825    823    832     1   109.5600471 388.275200
    826    829    830     1   109.8000471 387.438400
    826    829    831     1   109.8000471 387.438400
    827    826    829     1   109.5600471 388.275200
    827    826    828     1   108.4600466 328.025600
    828    826    829     1   109.5600471 388.275200
    830    829    835     1   108.7700466 392.459200
    830    829    831     1   107.5800459 329.699200
    831    829    835     1   108.7700466 392.459200
    833    832    836     1   108.7700466 392.459200
    833    832    834     1   107.5800459 329.699200
    834    832    836     1   108.7700466 392.459200
    835   1979   1980     1   117.5500507 404.174400
    836   2052   2053     1   117.5500507 404.174400
    841    844    845     1   109.5600471 388.275200
    841    844    846     1   109.5600471 388.275200
    842    841    844     1   109.5600471 388.275200
    842    841    847     1   109.8800469 414.216000
    842    841    843     1   108.4600466 328.025600
    843    841    844     1   109.5600471 388.275200
    843    841    847     1   109.8800469 414.216000
    844    864    865     1   117.6800502 383.254400
    845    844    864     1   108.8800464 416.726400
    845    844    846     1   108.4600466 328.025600
    846    844    864     1   108.8800464 416.726400
    847    848    849     1   109.8800469 414.216000
    847    848    850     1   109.8800469 414.216000
    847    851    852     1   109.8800469 414.216000
    847    851    853     1   109.8800469 414.216000
    848    857    858     1   109.8000471 387.438400
    848    857    859     1   109.8000471 387.438400
    849    848    857     1   109.5600471 388.275200
    849    848    850     1   108.4600466 328.025600
    850    848    857     1   109.5600471 388.275200
    851    854    855     1   109.8000471 387.438400
    851    854    856     1   109.8000471 387.438400
    852    851    854     1   109.5600471 388.275200
    852    851    853     1   108.4600466 328.025600
    853    851    854     1   109.5600471 388.275200
    855    854    860     1   108.7700466 392.459200
    855    854    856     1   107.5800459 329.699200
    856    854    860     1   108.7700466 392.459200
    858    857    861     1   108.7700466 392.459200
    858    857    859     1   107.5800459 329.699200
    859    857    861     1   108.7700466 392.459200
    860   2125   2126     1   117.5500507 404.174400
    861   2198   2199     1   117.5500507 404.174400
    866    869    870     1   109.5600471 388.275200
    866    869    871     1   109.5600471 388.275200
    867    866    869     1   109.5600471 388.275200
    867    866    872     1   109.8800469 414.216000
    867    866    868     1   108.4600466 328.025600
    868    866    869     1   109.5600471 388.275200
    868    866    872     1   109.8800469 414.216000
    869    889    890     1   117.6800502 383.254400
    870    869    889     1   108.8800464 416.726400
    870    869    871     1   108.4600466 328.025600
    871    869    889     1   108.8800464 416.726400
    872    873    874     1   109.8800469 414.216000
    872    873    875     1   109.8800469 414.216000
    872    876    877     1   109.8800469 414.216000
    872    876    878     1   109.8800469 414.216000
    873    882    883     1   109.8000471 387.438400
    873    882    884     1   109.8000471 387.438400
    874    873    882     1   109.5600471 388.275200
    874    873    875     1   108.4600466 328.025600
    875    873    882     1   109.5600471 388.275200
    876    879    880     1   109.8000471 387.438400
    876    879    881     1   109.8000471 387.438400
    877    876    879     1   109.5600471 388.275200
    877    876    878     1   108.4600466 328.025600
    878    876    879     1   109.5600471 388.275200
    880    879    885     1   108.7700466 392.459200
    880    879    881     1   107.5800459 329.699200
    881    879    885     1   108.7700466 392.459200
    883    882    886     1   108.7700466 392.459200
    883    882    884     1   107.5800459 329.699200
    884    882    886     1   108.7700466 392.459200
    885   2271   2272     1   117.5500507 404.174400
    886   2344   2345     1   117.5500507 404.174400
    891    894    895     1   109.5600471 388.275200
    891    894    896     1   109.5600471 388.275200
    892    891    894     1   109.5600471 388.275200
    892    891    897     1   109.8800469 414.216000
    892    891    893     1   108.4600466 328.025600
    893    891    894     1   109.5600471 388.275200
    893    891    897     1   109.8800469 414.216000
    894    914    915     1   117.6800502 383.254400
    895    894    914     1   108.8800464 416.726400
    895    894    896     1   108.4600466 328.025600
    896    894    914     1   108.8800464 416.726400
    897    898    899     1   109.8800469 414.216000
    897    898    900     1   109.8800469 414.216000
    897    901    902     1   109.8800469 414.216000
    897    901    903     1   109.8800469 414.216000
    898    907    908     1   109.8000471 387.438400
    898    907    909     1   109.8000471 387.438400
    899    898    907     1   109.5600471 388.275200
    899    898    900     1   108.4600466 328.025600
    900    898    907     1   109.5600471 388.275200
    901    904    905     1   109.8000471 387.438400
    901    904    906     1   109.8000471 387.438400
    902    901    904     1   109.5600471 388.275200
    902    901    903     1   108.4600466 328.025600
    903    901    904     1   109.5600471 388.275200
    905    904    910     1   108.7700466 392.459200
    905    904    906     1   107.5800459 329.699200
    906    904    910     1   108.7700466 392.459200
    908    907    911     1   108.7700466 392.459200
    908    907    909     1   107.5800459 329.699200
    909    907    911     1   108.7700466 392.459200
    910   2417   2418     1   117.5500507 404.174400
    911   2490   2491     1   117.5500507 404.174400
    916    919    920     1   109.5600471 388.275200
    916    919    921     1   109.5600471 388.275200
    917    916    919     1   109.5600471 388.275200
    917    916    922     1   109.8800469 414.216000
    917    916    918     1   108.4600466 328.025600
    918    916    919     1   109.5600471 388.275200
    918    916    922     1   109.8800469 414.216000
    919    939    940     1   117.6800502 383.254400
    920    919    939     1   108.8800464 416.726400
    920    919    921     1   108.4600466 328.025600
    921    919    939     1   108.8800464 416.726400
    922    923    924     1   109.8800469 414.216000
    922    923    925     1   109.8800469 414.216000
    922    926    927     1   109.8800469 414.216000
    922    926    928     1   109.8800469 414.216000
    923    932    933     1   109.8000471 387.438400
    923    932    934     1   109.8000471 387.438400
    924    923    932     1   109.5600471 388.275200
    924    923    925     1   108.4600466 328.025600
    925    923    932     1   109.5600471 388.275200
    926    929    930     1   109.8000471 387.438400
    926    929    931     1   109.8000471 387.438400
    927    926    929     1   109.5600471 388.275200
    927    926    928     1   108.4600466 328.025600
    928    926    929     1   109.5600471 388.275200
    930    929    935     1   108.7700466 392.459200
    930    929    931     1   107.5800459 329.699200
    931    929    935     1   108.7700466 392.459200
    933    932    936     1   108.7700466 392.459200
    933    932    934     1   107.5800459 329.699200
    934    932    936     1   108.7700466 392.459200
    935   2563   2564     1   117.5500507 404.174400
    936   2636   2637     1   117.5500507 404.174400
    941    944    945     1   109.5600471 388.275200
    941    944    946     1   109.5600471 388.275200
    942    941    944     1   109.5600471 388.275200
    942    941    947     1   109.8800469 414.216000
    942    941    943     1   108.4600466 328.025600
    943    941    944     1   109.5600471 388.275200
    943    941    947     1   109.8800469 414.216000
    944    964    965     1   117.6800502 383.254400
    945    944    964     1   108.8800464 416.726400
    945    944    946     1   108.4600466 328.025600
    946    944    964     1   108.8800464 416.726400
    947    948    949     1   109.8800469 414.216000
    947    948    950     1   109.8800469 414.216000
    947    951    952     1   109.8800469 414.216000
    947    951    953     1   109.8800469 414.216000
    948    957    958     1   109.8000471 387.438400
    948    957    959     1   109.8000471 387.438400
    949    948    957     1   109.5600471 388.275200
    949    948    950     1   108.4600466 328.025600
    950    948    957     1   109.5600471 388.275200
    951    954    955     1   109.8000471 387.438400
    951    954    956     1   109.8000471 387.438400
    952    951    954     1   109.5600471 388.275200
    952    951    953     1   108.4600466 328.025600
    953    951    954     1   109.5600471 388.275200
    955    954    960     1   108.7700466 392.459200
    955    954    956     1   107.5800459 329.699200
    956    954    960     1   108.7700466 392.459200
    958    957    961     1   108.7700466 392.459200
    958    957    959     1   107.5800459 329.699200
    959    957    961     1   108.7700466 392.459200
    960   2709   2710     1   117.5500507 404.174400
    961   2782   2783     1   117.5500507 404.174400
    966    969    970     1   109.5600471 388.275200
    966    969    971     1   109.5600471 388.275200
    967    966    969     1   109.5600471 388.275200
    967    966    972     1   109.8800469 414.216000
    967    966    968     1   108.4600466 328.025600
    968    966    969     1   109.5600471 388.275200
    968    966    972     1   109.8800469 414.216000
    969    989    990     1   117.6800502 383.254400
    970    969    989     1   108.8800464 416.726400
    970    969    971     1   108.4600466 328.025600
    971    969    989     1   108.8800464 416.726400
    972    973    974     1   109.8800469 414.216000
    972    973    975     1   109.8800469 414.216000
    972    976    977     1   109.8800469 414.216000
    972    976    978     1   109.8800469 414.216000
    973    982    983     1   109.8000471 387.438400
    973    982    984     1   109.8000471 387.438400
    974    973    982     1   109.5600471 388.275200
    974    973    975     1   108.4600466 328.025600
    975    973    982     1   109.5600471 388.275200
    976    979    980     1   109.8000471 387.438400
    976    979    981     1   109.8000471 387.438400
    977    976    979     1   109.5600471 388.275200
    977    976    978     1   108.4600466 328.025600
    978    976    979     1   109.5600471 388.275200
    980    979    985     1   108.7700466 392.459200
    980    979    981     1   107.5800459 329.699200
    981    979    985     1   108.7700466 392.459200
    983    982    986     1   108.7700466 392.459200
    983    982    984     1   107.5800459 329.699200
    984    982    986     1   108.7700466 392.459200
    985   2855   2856     1   117.5500507 404.174400
    986   2928   2929     1   117.5500507 404.174400
    991    994    995     1   109.5600471 388.275200
    991    994    996     1   109.5600471 388.275200
    992    991    994     1   109.5600471 388.275200
    992    991    997     1   109.8800469 414.216000
    992    991    993     1   108.4600466 328.025600
    993    991    994     1   109.5600471 388.275200
    993    991    997     1   109.8800469 414.216000
    994   1014   1015     1   117.6800502 383.254400
    995    994   1014     1   108.8800464 416.726400
    995    994    996     1   108.4600466 328.025600
    996    994   1014     1   108.8800464 416.726400
    997    998    999     1   109.8800469 414.216000
    997    998   1000     1   109.8800469 414.216000
    997   1001   1002     1   109.8800469 414.216000
    997   1001   1003     1   109.8800469 414.216000
    998   1007   1008     1   109.8000471 387.438400
    998   1007   1009     1   109.8000471 387.438400
    999    998   1007     1   109.5600471 388.275200
    999    998   1000     1   108.4600466 328.025600
   1000    998   1007     1   109.5600471 388.275200
   1001   1004   1005     1   109.8000471 387.438400
   1001   1004   1006     1   109.8000471 387.438400
   1002   1001   1004     1   109.5600471 388.275200
   1002   1001   1003     1   108.4600466 328.025600
   1003   1001   1004     1   109.5600471 388.275200
   1005   1004   1010     1   108.7700466 392.459200
   1005   1004   1006     1   107.5800459 329.699200
   1006   1004   1010     1   108.7700466 392.459200
   1008   1007   1011     1   108.7700466 392.459200
   1008   1007   1009     1   107.5800459 329.699200
   1009   1007   1011     1   108.7700466 392.459200
   1010   3001   3002     1   117.5500507 404.174400
   1011   3074   3075     1   117.5500507 404.174400
   1016   1019   1020     1   109.5600471 388.275200
   1016   1019   1021     1   109.5600471 388.275200
   1017   1016   1019     1   109.5600471 388.275200
   1017   1016   1022     1   109.8800469 414.216000
   1017   1016   1018     1   108.4600466 328.025600
   1018   1016   1019     1   109.5600471 388.275200
   1018   1016   1022     1   109.8800469 414.216000
   1019   1039   1040     1   117.6800502 383.254400
   1020   1019   1039     1   108.8800464 416.726400
   1020   1019   1021     1   108.4600466 328.025600
   1021   1019   1039     1   108.8800464 416.726400
   1022   1023   1024     1   109.8800469 414.216000
   1022   1023   1025     1   109.8800469 414.216000
   1022   1026   1027     1   109.8800469 414.216000
   1022   1026   1028     1   109.8800469 414.216000
   1023   1032   1033     1   109.8000471 387.438400
   1023   1032   1034     1   109.8000471 387.438400
   1024   1023   1032     1   109.5600471 388.275200
   1024   1023   1025     1   108.4600466 328.025600
   1025   1023   1032     1   109.5600471 388.275200
   1026   1029   1030     1   109.8000471 387.438400
   1026   1029   1031     1   109.8000471 387.438400
   1027   1026   1029     1   109.5600471 388.275200
   1027   1026   1028     1   108.4600466 328.025600
   1028   1026   1029     1   109.5600471 388.275200
   1030   1029   1035     1   108.7700466 392.459200
   1030   1029   1031     1   107.5800459 329.699200
   1031   1029   1035     1   108.7700466 392.459200
   1033   1032   1036     1   108.7700466 392.459200
   1033   1032   1034     1   107.5800459 329.699200
   1034   1032   1036     1   108.7700466 392.459200
   1035   3147   3148     1   117.5500507 404.174400
   1036   3220   3221     1   117.5500507 404.174400
   1041   1044   1045     1   109.5600471 388.275200
   1041   1044   1046     1   109.5600471 388.275200
   1042   1041   1044     1   109.5600471 388.275200
   1042   1041   1047     1   109.8800469 414.216000
   1042   1041   1043     1   108.4600466 328.025600
   1043   1041   1044     1   109.5600471 388.275200
   1043   1041   1047     1   109.8800469 414.216000
   1044   1064   1065     1   117.6800502 383.254400
   1045   1044   1064     1   108.8800464 416.726400
   1045   1044   1046     1   108.4600466 328.025600
   1046   1044   1064     1   108.8800464 416.726400
   1047   1048   1049     1   109.8800469 414.216000
   1047   1048   1050     1   109.8800469 414.216000
   1047   1051   1052     1   109.8800469 414.216000
   1047   1051   1053     1   109.8800469 414.216000
   1048   1057   1058     1   109.8000471 387.438400
   1048   1057   1059     1   109.8000471 387.438400
   1049   1048   1057     1   109.5600471 388.275200
   1049   1048   1050     1   108.4600466 328.025600
   1050   1048   1057     1   109.5600471 388.275200
   1051   1054   1055     1   109.8000471 387.438400
   1051   1054   1056     1   109.8000471 387.438400
   1052   1051   1054     1   109.5600471 388.275200
   1052   1051   1053     1   108.4600466 328.025600
   1053   1051   1054     1   109.5600471 388.275200
   1055   1054   1060     1   108.7700466 392.459200
   1055   1054   1056     1   107.5800459 329.699200
   1056   1054   1060     1   108.7700466 392.459200
   1058   1057   1061     1   108.7700466 392.459200
   1058   1057   1059     1   107.5800459 329.699200
   1059   1057   1061     1   108.7700466 392.459200
   1060   3293   3294     1   117.5500507 404.174400
   1061   3366   3367     1   117.5500507 404.174400
   1066   1069   1070     1   109.5600471 388.275200
   1066   1069   1071     1   109.5600471 388.275200
   1067   1066   1069     1   109.5600471 388.275200
   1067   1066   1072     1   109.8800469 414.216000
   1067   1066   1068     1   108.4600466 328.025600
   1068   1066   1069     1   109.5600471 388.275200
   1068   1066   1072     1   109.8800469 414.216000
   1069   1089   1090     1   117.6800502 383.254400
   1070   1069   1089     1   108.8800464 416.726400
   1070   1069   1071     1   108.4600466 328.025600
   1071   1069   1089     1   108.8800464 416.726400
   1072   1073   1074     1   109.8800469 414.216000
   1072   1073   1075     1   109.8800469 414.216000
   1072   1076   1077     1   109.8800469 414.216000
   1072   1076   1078     1   109.8800469 414.216000
   1073   1082   1083     1   109.8000471 387.438400
   1073   1082   1084     1   109.8000471 387.438400
   1074   1073   1082     1   109.5600471 388.275200
   1074   1073   1075     1   108.4600466 328.025600
   1075   1073   1082     1   109.5600471 388.275200
   1076   1079   1080     1   109.8000471 387.438400
   1076   1079   1081     1   109.8000471 387.438400
   1077   1076   1079     1   109.5600471 388.275200
   1077   1076   1078     1   108.4600466 328.025600
   1078   1076   1079     1   109.5600471 388.275200
   1080   1079   1085     1   108.7700466 392.459200
   1080   1079   1081     1   107.5800459 329.699200
   1081   1079   1085     1   108.7700466 392.459200
   1083   1082   1086     1   108.7700466 392.459200
   1083   1082   1084     1   107.5800459 329.699200
   1084   1082   1086     1   108.7700466 392.459200
   1085   3439   3440     1   117.5500507 404.174400
   1086   3512   3513     1   117.5500507 404.174400
   1091   1094   1095     1   109.5600471 388.275200
   1091   1094   1096     1   109.5600471 388.275200
   1092   1091   1094     1   109.5600471 388.275200
   1092   1091   1097     1   109.8800469 414.216000
   1092   1091   1093     1   108.4600466 328.025600
   1093   1091   1094     1   109.5600471 388.275200
   1093   1091   1097     1   109.8800469 414.216000
   1094   1114   1115     1   117.6800502 383.254400
   1095   1094   1114     1   108.8800464 416.726400
   1095   1094   1096     1   108.4600466 328.025600
   1096   1094   1114     1   108.8800464 416.726400
   1097   1098   1099     1   109.8800469 414.216000
   1097   1098   1100     1   109.8800469 414.216000
   1097   1101   1102     1   109.8800469 414.216000
   1097   1101   1103     1   109.8800469 414.216000
   1098   1107   1108     1   109.8000471 387.438400
   1098   1107   1109     1   109.8000471 387.438400
   1099   1098   1107     1   109.5600471 388.275200
   1099   1098   1100     1   108.4600466 328.025600
   1100   1098   1107     1   109.5600471 388.275200
   1101   1104   1105     1   109.8000471 387.438400
   1101   1104   1106     1   109.8000471 387.438400
   1102   1101   1104     1   109.5600471 388.275200
   1102   1101   1103     1   108.4600466 328.025600
   1103   1101   1104     1   109.5600471 388.275200
   1105   1104   1110     1   108.7700466 392.459200
   1105   1104   1106     1   107.5800459 329.699200
   1106   1104   1110     1   108.7700466 392.459200
   1108   1107   1111     1   108.7700466 392.459200
   1108   1107   1109     1   107.5800459 329.699200
   1109   1107   1111     1   108.7700466 392.459200
   1110   3585   3586     1   117.5500507 404.174400
   1111   3658   3659     1   117.5500507 404.174400
   1116   1119   1120     1   109.5600471 388.275200
   1116   1119   1121     1   109.5600471 388.275200
   1117   1116   1119     1   109.5600471 388.275200
   1117   1116   1122     1   109.8800469 414.216000
   1117   1116   1118     1   108.4600466 328.025600
   1118   1116   1119     1   109.5600471 388.275200
   1118   1116   1122     1   109.8800469 414.216000
   1119   1139   1140     1   117.6800502 383.254400
   1120   1119   1139     1   108.8800464 416.726400
   1120   1119   1121     1   108.4600466 328.025600
   1121   1119   1139     1   108.8800464 416.726400
   1122   1123   1124     1   109.8800469 414.216000
   1122   1123   1125     1   109.8800469 414.216000
   1122   1126   1127     1   109.8800469 414.216000
   1122   1126   1128     1   109.8800469 414.216000
   1123   1132   1133     1   109.8000471 387.438400
   1123   1132   1134     1   109.8000471 387.438400
   1124   1123   1132     1   109.5600471 388.275200
   1124   1123   1125     1   108.4600466 328.025600
   1125   1123   1132     1   109.5600471 388.275200
   1126   1129   1130     1   109.8000471 387.438400
   1126   1129   1131     1   109.8000471 387.438400
   1127   1126   1129     1   109.5600471 388.275200
   1127   1126   1128     1   108.4600466 328.025600
   1128   1126   1129     1   109.5600471 388.275200
   1130   1129   1135     1   108.7700466 392.459200
   1130   1129   1131     1   107.5800459 329.699200
   1131   1129   1135     1   108.7700466 392.459200
   1133   1132   1136     1   108.7700466 392.459200
   1133   1132   1134     1   107.5800459 329.699200
   1134   1132   1136     1   108.7700466 392.459200
   1135   3731   3732     1   117.5500507 404.174400
   1136   3804   3805     1   117.5500507 404.174400
   1141   1144   1145     1   109.5600471 388.275200
   1141   1144   1146     1   109.5600471 388.275200
   1142   1141   1144     1   109.5600471 388.275200
   1142   1141   1147     1   109.8800469 414.216000
   1142   1141   1143     1   108.4600466 328.025600
   1143   1141   1144     1   109.5600471 388.275200
   1143   1141   1147     1   109.8800469 414.216000
   1144   1164   1165     1   117.6800502 383.254400
   1145   1144   1164     1   108.8800464 416.726400
   1145   1144   1146     1   108.4600466 328.025600
   1146   1144   1164     1   108.8800464 416.726400
   1147   1148   1149     1   109.8800469 414.216000
   1147   1148   1150     1   109.8800469 414.216000
   1147   1151   1152     1   109.8800469 414.216000
   1147   1151   1153     1   109.8800469 414.216000
   1148   1157   1158     1   109.8000471 387.438400
   1148   1157   1159     1   109.8000471 387.438400
   1149   1148   1157     1   109.5600471 388.275200
   1149   1148   1150     1   108.4600466 328.025600
   1150   1148   1157     1   109.5600471 388.275200
   1151   1154   1155     1   109.8000471 387.438400
   1151   1154   1156     1   109.8000471 387.438400
   1152   1151   1154     1   109.5600471 388.275200
   1152   1151   1153     1   108.4600466 328.025600
   1153   1151   1154     1   109.5600471 388.275200
   1155   1154   1160     1   108.7700466 392.459200
   1155   1154   1156     1   107.5800459 329.699200
   1156   1154   1160     1   108.7700466 392.459200
   1158   1157   1161     1   108.7700466 392.459200
   1158   1157   1159     1   107.5800459 329.699200
   1159   1157   1161     1   108.7700466 392.459200
   1160   3877   3878     1   117.5500507 404.174400
   1161   3950   3951     1   117.5500507 404.174400
   1166   1169   1170     1   109.5600471 388.275200
   1166   1169   1171     1   109.5600471 388.275200
   1167   1166   1169     1   109.5600471 388.275200
   1167   1166   1172     1   109.8800469 414.216000
   1167   1166   1168     1   108.4600466 328.025600
   1168   1166   1169     1   109.5600471 388.275200
   1168   1166   1172     1   109.8800469 414.216000
   1169   1189   1190     1   117.6800502 383.254400
   1170   1169   1189     1   108.8800464 416.726400
   1170   1169   1171     1   108.4600466 328.025600
   1171   1169   1189     1   108.8800464 416.726400
   1172   1173   1174     1   109.8800469 414.216000
   1172   1173   1175     1   109.8800469 414.216000
   1172   1176   1177     1   109.8800469 414.216000
   1172   1176   1178     1   109.8800469 414.216000
   1173   1182   1183     1   109.8000471 387.438400
   1173   1182   1184     1   109.8000471 387.438400
   1174   1173   1182     1   109.5600471 388.275200
   1174   1173   1175     1   108.4600466 328.025600
   1175   1173   1182     1   109.5600471 388.275200
   1176   1179   1180     1   109.8000471 387.438400
   1176   1179   1181     1   109.8000471 387.438400
   1177   1176   1179     1   109.5600471 388.275200
   1177   1176   1178     1   108.4600466 328.025600
   1178   1176   1179     1   109.5600471 388.275200
   1180   1179   1185     1   108.7700466 392.459200
   1180   1179   1181     1   107.5800459 329.699200
   1181   1179   1185     1   108.7700466 392.459200
   1183   1182   1186     1   108.7700466 392.459200
   1183   1182   1184     1   107.5800459 329.699200
   1184   1182   1186     1   108.7700466 392.459200
   1185   4023   4024     1   117.5500507 404.174400
   1186   4096   4097     1   117.5500507 404.174400
   1191   1194   1195     1   109.5600471 388.275200
   1191   1194   1196     1   109.5600471 388.275200
   1192   1191   1194     1   109.5600471 388.275200
   1192   1191   1197     1   109.8800469 414.216000
   1192   1191   1193     1   108.4600466 328.025600
   1193   1191   1194     1   109.5600471 388.275200
   1193   1191   1197     1   109.8800469 414.216000
   1194   1214   1215     1   117.6800502 383.254400
   1195   1194   1214     1   108.8800464 416.726400
   1195   1194   1196     1   108.4600466 328.025600
   1196   1194   1214     1   108.8800464 416.726400
   1197   1198   1199     1   109.8800469 414.216000
   1197   1198   1200     1   109.8800469 414.216000
   1197   1201   1202     1   109.8800469 414.216000
   1197   1201   1203     1   109.8800469 414.216000
   1198   1207   1208     1   109.8000471 387.438400
   1198   1207   1209     1   109.8000471 387.438400
   1199   1198   1207     1   109.5600471 388.275200
   1199   1198   1200     1   108.4600466 328.025600
   1200   1198   1207     1   109.5600471 388.275200
   1201   1204   1205     1   109.8000471 387.438400
   1201   1204   1206     1   109.8000471 387.438400
   1202   1201   1204     1   109.5600471 388.275200
   1202   1201   1203     1   108.4600466 328.025600
   1203   1201   1204     1   109.5600471 388.275200
   1205   1204   1210     1   108.7700466 392.459200
   1205   1204   1206     1   107.5800459 329.699200
   1206   1204   1210     1   108.7700466 392.459200
   1208   1207   1211     1   108.7700466 392.459200
   1208   1207   1209     1   107.5800459 329.699200
   1209   1207   1211     1   108.7700466 392.459200
   1210   4169   4170     1   117.5500507 404.174400
   1211   4242   4243     1   117.5500507 404.174400
   1216   1219   1220     1   109.5600471 388.275200
   1216   1219   1221     1   109.5600471 388.275200
   1217   1216   1219     1   109.5600471 388.275200
   1217   1216   1222     1   109.8800469 414.216000
   1217   1216   1218     1   108.4600466 328.025600
   1218   1216   1219     1   109.5600471 388.275200
   1218   1216   1222     1   109.8800469 414.216000
   1219   1239   1240     1   117.6800502 383.254400
   1220   1219   1239     1   108.8800464 416.726400
   1220   1219   1221     1   108.4600466 328.025600
   1221   1219   1239     1   108.8800464 416.726400
   1222   1223   1224     1   109.8800469 414.216000
   1222   1223   1225     1   109.8800469 414.216000
   1222   1226   1227     1   109.8800469 414.216000
   1222   1226   1228     1   109.8800469 414.216000
   1223   1232   1233     1   109.8000471 387.438400
   1223   1232   1234     1   109.8000471 387.438400
   1224   1223   1232     1   109.5600471 388.275200
   1224   1223   1225     1   108.4600466 328.025600
   1225   1223   1232     1   109.5600471 388.275200
   1226   1229   1230     1   109.8000471 387.438400
   1226   1229   1231     1   109.8000471 387.438400
   1227   1226   1229     1   109.5600471 388.275200
   1227   1226   1228     1   108.4600466 328.025600
   1228   1226   1229     1   109.5600471 388.275200
   1230   1229   1235     1   108.7700466 392.459200
   1230   1229   1231     1   107.5800459 329.699200
   1231   1229   1235     1   108.7700466 392.459200
   1233   1232   1236     1   108.7700466 392.459200
   1233   1232   1234     1   107.5800459 329.699200
   1234   1232   1236     1   108.7700466 392.459200
   1235   4315   4316     1   117.5500507 404.174400
   1236   4388   4389     1   117.5500507 404.174400
   1241   1244   1245     1   109.5600471 388.275200
   1241   1244   1246     1   109.5600471 388.275200
   1242   1241   1244     1   109.5600471 388.275200
   1242   1241   1247     1   109.8800469 414.216000
   1242   1241   1243     1   108.4600466 328.025600
   1243   1241   1244     1   109.5600471 388.275200
   1243   1241   1247     1   109.8800469 414.216000
   1244   1264   1265     1   117.6800502 383.254400
   1245   1244   1264     1   108.8800464 416.726400
   1245   1244   1246     1   108.4600466 328.025600
   1246   1244   1264     1   108.8800464 416.726400
   1247   1248   1249     1   109.8800469 414.216000
   1247   1248   1250     1   109.8800469 414.216000
   1247   1251   1252     1   109.8800469 414.216000
   1247   1251   1253     1   109.8800469 414.216000
   1248   1257   1258     1   109.8000471 387.438400
   1248   1257   1259     1   109.8000471 387.438400
   1249   1248   1257     1   109.5600471 388.275200
   1249   1248   1250     1   108.4600466 328.025600
   1250   1248   1257     1   109.5600471 388.275200
   1251   1254   1255     1   109.8000471 387.438400
   1251   1254   1256     1   109.8000471 387.438400
   1252   1251   1254     1   109.5600471 388.275200
   1252   1251   1253     1   108.4600466 328.025600
   1253   1251   1254     1   109.5600471 388.275200
   1255   1254   1260     1   108.7700466 392.459200
   1255   1254   1256     1   107.5800459 329.699200
   1256   1254   1260     1   108.7700466 392.459200
   1258   1257   1261     1   108.7700466 392.459200
   1258   1257   1259     1   107.5800459 329.699200
   1259   1257   1261     1   108.7700466 392.459200
   1260   4461   4462     1   117.5500507 404.174400
   1261   4534   4535     1   117.5500507 404.174400
   1266   1269   1270     1   109.5600471 388.275200
   1266   1269   1271     1   109.5600471 388.275200
   1267   1266   1269     1   109.5600471 388.275200
   1267   1266   1272     1   109.8800469 414.216000
   1267   1266   1268     1   108.4600466 328.025600
   1268   1266   1269     1   109.5600471 388.275200
   1268   1266   1272     1   109.8800469 414.216000
   1269   1289   1290     1   117.6800502 383.254400
   1270   1269   1289     1   108.8800464 416.726400
   1270   1269   1271     1   108.4600466 328.025600
   1271   1269   1289     1   108.8800464 416.726400
   1272   1273   1274     1   109.8800469 414.216000
   1272   1273   1275     1   109.8800469 414.216000
   1272   1276   1277     1   109.8800469 414.216000
   1272   1276   1278     1   109.8800469 414.216000
   1273   1282   1283     1   109.8000471 387.438400
   1273   1282   1284     1   109.8000471 387.438400
   1274   1273   1282     1   109.5600471 388.275200
   1274   1273   1275     1   108.4600466 328.025600
   1275   1273   1282     1   109.5600471 388.275200
   1276   1279   1280     1   109.8000471 387.438400
   1276   1279   1281     1   109.8000471 387.438400
   1277   1276   1279     1   109.5600471 388.275200
   1277   1276   1278     1   108.4600466 328.025600
   1278   1276   1279     1   109.5600471 388.275200
   1280   1279   1285     1   108.7700466 392.459200
   1280   1279   1281     1   107.5800459 329.699200
   1281   1279   1285     1   108.7700466 392.459200
   1283   1282   1286     1   108.7700466 392.459200
   1283   1282   1284     1   107.5800459 329.699200
   1284   1282   1286     1   108.7700466 392.459200
   1285   4607   4608     1   117.5500507 404.174400
   1286   4680   4681     1   117.5500507 404.174400
   1291   1294   1295     1   109.5600471 388.275200
   1291   1294   1296     1   109.5600471 388.275200
   1292   1291   1294     1   109.5600471 388.275200
   1292   1291   1297     1   109.8800469 414.216000
   1292   1291   1293     1   108.4600466 328.025600
   1293   1291   1294     1   109.5600471 388.275200
   1293   1291   1297     1   109.8800469 414.216000
   1294   1314   1315     1   117.6800502 383.254400
   1295   1294   1314     1   108.8800464 416.726400
   1295   1294   1296     1   108.4600466 328.025600
   1296   1294   1314     1   108.8800464 416.726400
   1297   1298   1299     1   109.8800469 414.216000
   1297   1298   1300     1   109.8800469 414.216000
   1297   1301   1302     1   109.8800469 414.216000
   1297   1301   1303     1   109.8800469 414.216000
   1298   1307   1308     1   109.8000471 387.438400
   1298   1307   1309     1   109.8000471 387.438400
   1299   1298   1307     1   109.5600471 388.275200
   1299   1298   1300     1   108.4600466 328.025600
   1300   1298   1307     1   109.5600471 388.275200
   1301   1304   1305     1   109.8000471 387.438400
   1301   1304   1306     1   109.8000471 387.438400
   1302   1301   1304     1   109.5600471 388.275200
   1302   1301   1303     1   108.4600466 328.025600
   1303   1301   1304     1   109.5600471 388.275200
   1305   1304   1310     1   108.7700466 392.459200
   1305   1304   1306     1   107.5800459 329.699200
   1306   1304   1310     1   108.7700466 392.459200
   1308   1307   1311     1   108.7700466 392.459200
   1308   1307   1309     1   107.5800459 329.699200
   1309   1307   1311     1   108.7700466 392.459200
   1310   4753   4754     1   117.5500507 404.174400
   1311   4826   4827     1   117.5500507 404.174400
   1316   1319   1320     1   109.5600471 388.275200
   1316   1319   1321     1   109.5600471 388.275200
   1317   1316   1319     1   109.5600471 388.275200
   1317   1316   1322     1   109.8800469 414.216000
   1317   1316   1318     1   108.4600466 328.025600
   1318   1316   1319     1   109.5600471 388.275200
   1318   1316   1322     1   109.8800469 414.216000
   1319   1339   1340     1   117.6800502 383.254400
   1320   1319   1339     1   108.8800464 416.726400
   1320   1319   1321     1   108.4600466 328.025600
   1321   1319   1339     1   108.8800464 416.726400
   1322   1323   1324     1   109.8800469 414.216000
   1322   1323   1325     1   109.8800469 414.216000
   1322   1326   1327     1   109.8800469 414.216000
   1322   1326   1328     1   109.8800469 414.216000
   1323   1332   1333     1   109.8000471 387.438400
   1323   1332   1334     1   109.8000471 387.438400
   1324   1323   1332     1   109.5600471 388.275200
   1324   1323   1325     1   108.4600466 328.025600
   1325   1323   1332     1   109.5600471 388.275200
   1326   1329   1330     1   109.8000471 387.438400
   1326   1329   1331     1   109.8000471 387.438400
   1327   1326   1329     1   109.5600471 388.275200
   1327   1326   1328     1   108.4600466 328.025600
   1328   1326   1329     1   109.5600471 388.275200
   1330   1329   1335     1   108.7700466 392.459200
   1330   1329   1331     1   107.5800459 329.699200
   1331   1329   1335     1   108.7700466 392.459200
   1333   1332   1336     1   108.7700466 392.459200
   1333   1332   1334     1   107.5800459 329.699200
   1334   1332   1336     1   108.7700466 392.459200
   1335   4899   4900     1   117.5500507 404.174400
   1336   4972   4973     1   117.5500507 404.174400
   1341   1344   1345     1   109.5600471 388.275200
   1341   1344   1346     1   109.5600471 388.275200
   1342   1341   1344     1   109.5600471 388.275200
   1342   1341   1347     1   109.8800469 414.216000
   1342   1341   1343     1   108.4600466 328.025600
   1343   1341   1344     1   109.5600471 388.275200
   1343   1341   1347     1   109.8800469 414.216000
   1344   1364   1365     1   117.6800502 383.254400
   1345   1344   1364     1   108.8800464 416.726400
   1345   1344   1346     1   108.4600466 328.025600
   1346   1344   1364     1   108.8800464 416.726400
   1347   1348   1349     1   109.8800469 414.216000
   1347   1348   1350     1   109.8800469 414.216000
   1347   1351   1352     1   109.8800469 414.216000
   1347   1351   1353     1   109.8800469 414.216000
   1348   1357   1358     1   109.8000471 387.438400
   1348   1357   1359     1   109.8000471 387.438400
   1349   1348   1357     1   109.5600471 388.275200
   1349   1348   1350     1   108.4600466 328.025600
   1350   1348   1357     1   109.5600471 388.275200
   1351   1354   1355     1   109.8000471 387.438400
   1351   1354   1356     1   109.8000471 387.438400
   1352   1351   1354     1   109.5600471 388.275200
   1352   1351   1353     1   108.4600466 328.025600
   1353   1351   1354     1   109.5600471 388.275200
   1355   1354   1360     1   108.7700466 392.459200
   1355   1354   1356     1   107.5800459 329.699200
   1356   1354   1360     1   108.7700466 392.459200
   1358   1357   1361     1   108.7700466 392.459200
   1358   1357   1359     1   107.5800459 329.699200
   1359   1357   1361     1   108.7700466 392.459200
   1360   5045   5046     1   117.5500507 404.174400
   1361   5118   5119     1   117.5500507 404.174400
   1366   1369   1370     1   109.5600471 388.275200
   1366   1369   1371     1   109.5600471 388.275200
   1367   1366   1369     1   109.5600471 388.275200
   1367   1366   1372     1   109.8800469 414.216000
   1367   1366   1368     1   108.4600466 328.025600
   1368   1366   1369     1   109.5600471 388.275200
   1368   1366   1372     1   109.8800469 414.216000
   1369   1389   1390     1   117.6800502 383.254400
   1370   1369   1389     1   108.8800464 416.726400
   1370   1369   1371     1   108.4600466 328.025600
   1371   1369   1389     1   108.8800464 416.726400
   1372   1373   1374     1   109.8800469 414.216000
   1372   1373   1375     1   109.8800469 414.216000
   1372   1376   1377     1   109.8800469 414.216000
   1372   1376   1378     1   109.8800469 414.216000
   1373   1382   1383     1   109.8000471 387.438400
   1373   1382   1384     1   109.8000471 387.438400
   1374   1373   1382     1   109.5600471 388.275200
   1374   1373   1375     1   108.4600466 328.025600
   1375   1373   1382     1   109.5600471 388.275200
   1376   1379   1380     1   109.8000471 387.438400
   1376   1379   1381     1   109.8000471 387.438400
   1377   1376   1379     1   109.5600471 388.275200
   1377   1376   1378     1   108.4600466 328.025600
   1378   1376   1379     1   109.5600471 388.275200
   1380   1379   1385     1   108.7700466 392.459200
   1380   1379   1381     1   107.5800459 329.699200
   1381   1379   1385     1   108.7700466 392.459200
   1383   1382   1386     1   108.7700466 392.459200
   1383   1382   1384     1   107.5800459 329.699200
   1384   1382   1386     1   108.7700466 392.459200
   1385   5191   5192     1   117.5500507 404.174400
   1386   5264   5265     1   117.5500507 404.174400
   1391   1394   1395     1   109.5600471 388.275200
   1391   1394   1396     1   109.5600471 388.275200
   1392   1391   1394     1   109.5600471 388.275200
   1392   1391   1397     1   109.8800469 414.216000
   1392   1391   1393     1   108.4600466 328.025600
   1393   1391   1394     1   109.5600471 388.275200
   1393   1391   1397     1   109.8800469 414.216000
   1394   1414   1415     1   117.6800502 383.254400
   1395   1394   1414     1   108.8800464 416.726400
   1395   1394   1396     1   108.4600466 328.025600
   1396   1394   1414     1   108.8800464 416.726400
   1397   1398   1399     1   109.8800469 414.216000
   1397   1398   1400     1   109.8800469 414.216000
   1397   1401   1402     1   109.8800469 414.216000
   1397   1401   1403     1   109.8800469 414.216000
   1398   1407   1408     1   109.8000471 387.438400
   1398   1407   1409     1   109.8000471 387.438400
   1399   1398   1407     1   109.5600471 388.275200
   1399   1398   1400     1   108.4600466 328.025600
   1400   1398   1407     1   109.5600471 388.275200
   1401   1404   1405     1   109.8000471 387.438400
   1401   1404   1406     1   109.8000471 387.438400
   1402   1401   1404     1   109.5600471 388.275200
   1402   1401   1403     1   108.4600466 328.025600
   1403   1401   1404     1   109.5600471 388.275200
   1405   1404   1410     1   108.7700466 392.459200
   1405   1404   1406     1   107.5800459 329.699200
   1406   1404   1410     1   108.7700466 392.459200
   1408   1407   1411     1   108.7700466 392.459200
   1408   1407   1409     1   107.5800459 329.699200
   1409   1407   1411     1   108.7700466 392.459200
   1410   5337   5338     1   117.5500507 404.174400
   1411   5410   5411     1   117.5500507 404.174400
   1416   1419   1420     1   109.5600471 388.275200
   1416   1419   1421     1   109.5600471 388.275200
   1417   1416   1419     1   109.5600471 388.275200
   1417   1416   1422     1   109.8800469 414.216000
   1417   1416   1418     1   108.4600466 328.025600
   1418   1416   1419     1   109.5600471 388.275200
   1418   1416   1422     1   109.8800469 414.216000
   1419   1439   1440     1   117.6800502 383.254400
   1420   1419   1439     1   108.8800464 416.726400
   1420   1419   1421     1   108.4600466 328.025600
   1421   1419   1439     1   108.8800464 416.726400
   1422   1423   1424     1   109.8800469 414.216000
   1422   1423   1425     1   109.8800469 414.216000
   1422   1426   1427     1   109.8800469 414.216000
   1422   1426   1428     1   109.8800469 414.216000
   1423   1432   1433     1   109.8000471 387.438400
   1423   1432   1434     1   109.8000471 387.438400
   1424   1423   1432     1   109.5600471 388.275200
   1424   1423   1425     1   108.4600466 328.025600
   1425   1423   1432     1   109.5600471 388.275200
   1426   1429   1430     1   109.8000471 387.438400
   1426   1429   1431     1   109.8000471 387.438400
   1427   1426   1429     1   109.5600471 388.275200
   1427   1426   1428     1   108.4600466 328.025600
   1428   1426   1429     1   109.5600471 388.275200
   1430   1429   1435     1   108.7700466 392.459200
   1430   1429   1431     1   107.5800459 329.699200
   1431   1429   1435     1   108.7700466 392.459200
   1433   1432   1436     1   108.7700466 392.459200
   1433   1432   1434     1   107.5800459 329.699200
   1434   1432   1436     1   108.7700466 392.459200
   1435   5483   5484     1   117.5500507 404.174400
   1436   5556   5557     1   117.5500507 404.174400
   1441   1444   1445     1   109.5600471 388.275200
   1441   1444   1446     1   109.5600471 388.275200
   1442   1441   1444     1   109.5600471 388.275200
   1442   1441   1447     1   109.8800469 414.216000
   1442   1441   1443     1   108.4600466 328.025600
   1443   1441   1444     1   109.5600471 388.275200
   1443   1441   1447     1   109.8800469 414.216000
   1444   1464   1465     1   117.6800502 383.254400
   1445   1444   1464     1   108.8800464 416.726400
   1445   1444   1446     1   108.4600466 328.025600
   1446   1444   1464     1   108.8800464 416.726400
   1447   1448   1449     1   109.8800469 414.216000
   1447   1448   1450     1   109.8800469 414.216000
   1447   1451   1452     1   109.8800469 414.216000
   1447   1451   1453     1   109.8800469 414.216000
   1448   1457   1458     1   109.8000471 387.438400
   1448   1457   1459     1   109.8000471 387.438400
   1449   1448   1457     1   109.5600471 388.275200
   1449   1448   1450     1   108.4600466 328.025600
   1450   1448   1457     1   109.5600471 388.275200
   1451   1454   1455     1   109.8000471 387.438400
   1451   1454   1456     1   109.8000471 387.438400
   1452   1451   1454     1   109.5600471 388.275200
   1452   1451   1453     1   108.4600466 328.025600
   1453   1451   1454     1   109.5600471 388.275200
   1455   1454   1460     1   108.7700466 392.459200
   1455   1454   1456     1   107.5800459 329.699200
   1456   1454   1460     1   108.7700466 392.459200
   1458   1457   1461     1   108.7700466 392.459200
   1458   1457   1459     1   107.5800459 329.699200
   1459   1457   1461     1   108.7700466 392.459200
   1460   5629   5630     1   117.5500507 404.174400
   1461   5702   5703     1   117.5500507 404.174400
   1466   1469   1470     1   109.5600471 388.275200
   1466   1469   1471     1   109.5600471 388.275200
   1467   1466   1469     1   109.5600471 388.275200
   1467   1466   1472     1   109.8800469 414.216000
   1467   1466   1468     1   108.4600466 328.025600
   1468   1466   1469     1   109.5600471 388.275200
   1468   1466   1472     1   109.8800469 414.216000
   1469   1489   1490     1   117.6800502 383.254400
   1470   1469   1489     1   108.8800464 416.726400
   1470   1469   1471     1   108.4600466 328.025600
   1471   1469   1489     1   108.8800464 416.726400
   1472   1473   1474     1   109.8800469 414.216000
   1472   1473   1475     1   109.8800469 414.216000
   1472   1476   1477     1   109.8800469 414.216000
   1472   1476   1478     1   109.8800469 414.216000
   1473   1482   1483     1   109.8000471 387.438400
   1473   1482   1484     1   109.8000471 387.438400
   1474   1473   1482     1   109.5600471 388.275200
   1474   1473   1475     1   108.4600466 328.025600
   1475   1473   1482     1   109.5600471 388.275200
   1476   1479   1480     1   109.8000471 387.438400
   1476   1479   1481     1   109.8000471 387.438400
   1477   1476   1479     1   109.5600471 388.275200
   1477   1476   1478     1   108.4600466 328.025600
   1478   1476   1479     1   109.5600471 388.275200
   1480   1479   1485     1   108.7700466 392.459200
   1480   1479   1481     1   107.5800459 329.699200
   1481   1479   1485     1   108.7700466 392.459200
   1483   1482   1486     1   108.7700466 392.459200
   1483   1482   1484     1   107.5800459 329.699200
   1484   1482   1486     1   108.7700466 392.459200
   1485   5775   5776     1   117.5500507 404.174400
   1486   5848   5849     1   117.5500507 404.174400
   1491   1494   1495     1   109.5600471 388.275200
   1491   1494   1496     1   109.5600471 388.275200
   1492   1491   1494     1   109.5600471 388.275200
   1492   1491   1497     1   109.8800469 414.216000
   1492   1491   1493     1   108.4600466 328.025600
   1493   1491   1494     1   109.5600471 388.275200
   1493   1491   1497     1   109.8800469 414.216000
   1494   1514   1515     1   117.6800502 383.254400
   1495   1494   1514     1   108.8800464 416.726400
   1495   1494   1496     1   108.4600466 328.025600
   1496   1494   1514     1   108.8800464 416.726400
   1497   1498   1499     1   109.8800469 414.216000
   1497   1498   1500     1   109.8800469 414.216000
   1497   1501   1502     1   109.8800469 414.216000
   1497   1501   1503     1   109.8800469 414.216000
   1498   1507   1508     1   109.8000471 387.438400
   1498   1507   1509     1   109.8000471 387.438400
   1499   1498   1507     1   109.5600471 388.275200
   1499   1498   1500     1   108.4600466 328.025600
   1500   1498   1507     1   109.5600471 388.275200
   1501   1504   1505     1   109.8000471 387.438400
   1501   1504   1506     1   109.8000471 387.438400
   1502   1501   1504     1   109.5600471 388.275200
   1502   1501   1503     1   108.4600466 328.025600
   1503   1501   1504     1   109.5600471 388.275200
   1505   1504   1510     1   108.7700466 392.459200
   1505   1504   1506     1   107.5800459 329.699200
   1506   1504   1510     1   108.7700466 392.459200
   1508   1507   1511     1   108.7700466 392.459200
   1508   1507   1509     1   107.5800459 329.699200
   1509   1507   1511     1   108.7700466 392.459200
   1510   5921   5922     1   117.5500507 404.174400
   1511   5994   5995     1   117.5500507 404.174400
   1516   1519   1520     1   109.5600471 388.275200
   1516   1519   1521     1   109.5600471 388.275200
   1517   1516   1519     1   109.5600471 388.275200
   1517   1516   1522     1   109.8800469 414.216000
   1517   1516   1518     1   108.4600466 328.025600
   1518   1516   1519     1   109.5600471 388.275200
   1518   1516   1522     1   109.8800469 414.216000
   1519   1539   1540     1   117.6800502 383.254400
   1520   1519   1539     1   108.8800464 416.726400
   1520   1519   1521     1   108.4600466 328.025600
   1521   1519   1539     1   108.8800464 416.726400
   1522   1523   1524     1   109.8800469 414.216000
   1522   1523   1525     1   109.8800469 414.216000
   1522   1526   1527     1   109.8800469 414.216000
   1522   1526   1528     1   109.8800469 414.216000
   1523   1532   1533     1   109.8000471 387.438400
   1523   1532   1534     1   109.8000471 387.438400
   1524   1523   1532     1   109.5600471 388.275200
   1524   1523   1525     1   108.4600466 328.025600
   1525   1523   1532     1   109.5600471 388.275200
   1526   1529   1530     1   109.8000471 387.438400
   1526   1529   1531     1   109.8000471 387.438400
   1527   1526   1529     1   109.5600471 388.275200
   1527   1526   1528     1   108.4600466 328.025600
   1528   1526   1529     1   109.5600471 388.275200
   1530   1529   1535     1   108.7700466 392.459200
   1530   1529   1531     1   107.5800459 329.699200
   1531   1529   1535     1   108.7700466 392.459200
   1533   1532   1536     1   108.7700466 392.459200
   1533   1532   1534     1   107.5800459 329.699200
   1534   1532   1536     1   108.7700466 392.459200
   1535   6067   6068     1   117.5500507 404.174400
   1536   6140   6141     1   117.5500507 404.174400
   1541   1543   1544     1   108.8800464 416.726400
   1541   1543   1546     1   108.8800464 416.726400
   1542   1541   1543     1   117.6800502 383.254400
   1543   1545   1547     1   109.5600471 388.275200
   1543   1545   1548     1   109.5600471 388.275200
   1544   1543   1545     1   109.5600471 388.275200
   1544   1543   1546     1   108.4600466 328.025600
   1545   1543   1546     1   109.5600471 388.275200
   1547   1545   1549     1   109.8800469 414.216000
   1547   1545   1548     1   108.4600466 328.025600
   1548   1545   1549     1   109.8800469 414.216000
   1549   1550   1559     1   109.8800469 414.216000
   1549   1550   1560     1   109.8800469 414.216000
   1549   1551   1552     1   109.8800469 414.216000
   1549   1551   1554     1   109.8800469 414.216000
   1550   1561   1562     1   109.8000471 387.438400
   1550   1561   1563     1   109.8000471 387.438400
   1551   1553   1555     1   109.8000471 387.438400
   1551   1553   1556     1   109.8000471 387.438400
   1552   1551   1553     1   109.5600471 388.275200
   1552   1551   1554     1   108.4600466 328.025600
   1553   1551   1554     1   109.5600471 388.275200
   1555   1553   1557     1   108.7700466 392.459200
   1555   1553   1556     1   107.5800459 329.699200
   1556   1553   1557     1   108.7700466 392.459200
   1557   1589   1579     1   119.3800509 410.868800
   1559   1550   1561     1   109.5600471 388.275200
   1559   1550   1560     1   108.4600466 328.025600
   1560   1550   1561     1   109.5600471 388.275200
   1562   1561   1564     1   108.7700466 392.459200
   1562   1561   1563     1   107.5800459 329.699200
   1563   1561   1564     1   108.7700466 392.459200
   1564   1613   1603     1   119.3800509 410.868800
   1566   1567   1586     1   109.5600471 388.275200
   1566   1577   1580     1   109.5600471 388.275200
   1566   1577   1581     1   109.5600471 388.275200
   1567   1566   1568     1   109.5600471 388.275200
   1567   1569   1573     1   109.5600471 388.275200
   1567   1587   1588     1   107.2600461 396.643200
   1568   1566   1577     1   109.5600471 388.275200
   1568   1566   1584     1   109.7800468 425.094400
   1569   1567   1586     1   109.5600471 388.275200
   1569   1570   1572     1   109.5600471 388.275200
   1569   1576   1578     1   107.2600461 396.643200
   1570   1569   1573     1   109.5600471 388.275200
   1570   1571   1574     1   110.2200475 386.601600
   1570   1589   1579     1   109.2900470 396.643200
   1571   1570   1572     1   109.5600471 388.275200
   1571   1575   1585     1   107.2600461 396.643200
   1572   1570   1589     1   109.8800469 414.216000
   1573   1569   1576     1   110.2600474 425.931200
   1574   1571   1575     1   109.4300470 427.604800
   1574   1571   1584     1   109.5800467 425.931200
   1577   1582   1583     1   107.2600461 396.643200
   1580   1577   1582     1   110.2600474 425.931200
   1580   1577   1581     1   108.4600466 328.025600
   1581   1577   1582     1   110.2600474 425.931200
   1586   1567   1587     1   110.2600474 425.931200
   1590   1591   1610     1   109.5600471 388.275200
   1590   1601   1604     1   109.5600471 388.275200
   1590   1601   1605     1   109.5600471 388.275200
   1591   1590   1592     1   109.5600471 388.275200
   1591   1593   1597     1   109.5600471 388.275200
   1591   1611   1612     1   107.2600461 396.643200
   1592   1590   1601     1   109.5600471 388.275200
   1592   1590   1608     1   109.7800468 425.094400
   1593   1591   1610     1   109.5600471 388.275200
   1593   1594   1596     1   109.5600471 388.275200
   1593   1600   1602     1   107.2600461 396.643200
   1594   1593   1597     1   109.5600471 388.275200
   1594   1595   1598     1   110.2200475 386.601600
   1594   1613   1603     1   109.2900470 396.643200
   1595   1594   1596     1   109.5600471 388.275200
   1595   1599   1609     1   107.2600461 396.643200
   1596   1594   1613     1   109.8800469 414.216000
   1597   1593   1600     1   110.2600474 425.931200
   1598   1595   1599     1   109.4300470 427.604800
   1598   1595   1608     1   109.5800467 425.931200
   1601   1606   1607     1   107.2600461 396.643200
   1604   1601   1606     1   110.2600474 425.931200
   1604   1601   1605     1   108.4600466 328.025600
   1605   1601   1606     1   110.2600474 425.931200
   1610   1591   1611     1   110.2600474 425.931200
   1614   1616   1617     1   108.8800464 416.726400
   1614   1616   1619     1   108.8800464 416.726400
   1615   1614   1616     1   117.6800502 383.254400
   1616   1618   1620     1   109.5600471 388.275200
   1616   1618   1621     1   109.5600471 388.275200
   1617   1616   1618     1   109.5600471 388.275200
   1617   1616   1619     1   108.4600466 328.025600
   1618   1616   1619     1   109.5600471 388.275200
   1620   1618   1622     1   109.8800469 414.216000
   1620   1618   1621     1   108.4600466 328.025600
   1621   1618   1622     1   109.8800469 414.216000
   1622   1623   1632     1   109.8800469 414.216000
   1622   1623   1633     1   109.8800469 414.216000
   1622   1624   1625     1   109.8800469 414.216000
   1622   1624   1627     1   109.8800469 414.216000
   1623   1634   1635     1   109.8000471 387.438400
   1623   1634   1636     1   109.8000471 387.438400
   1624   1626   1628     1   109.8000471 387.438400
   1624   1626   1629     1   109.8000471 387.438400
   1625   1624   1626     1   109.5600471 388.275200
   1625   1624   1627     1   108.4600466 328.025600
   1626   1624   1627     1   109.5600471 388.275200
   1628   1626   1630     1   108.7700466 392.459200
   1628   1626   1629     1   107.5800459 329.699200
   1629   1626   1630     1   108.7700466 392.459200
   1630   1662   1652     1   119.3800509 410.868800
   1632   1623   1634     1   109.5600471 388.275200
   1632   1623   1633     1   108.4600466 328.025600
   1633   1623   1634     1   109.5600471 388.275200
   1635   1634   1637     1   108.7700466 392.459200
   1635   1634   1636     1   107.5800459 329.699200
   1636   1634   1637     1   108.7700466 392.459200
   1637   1686   1676     1   119.3800509 410.868800
   1639   1640   1659     1   109.5600471 388.275200
   1639   1650   1653     1   109.5600471 388.275200
   1639   1650   1654     1   109.5600471 388.275200
   1640   1642   1646     1   109.5600471 388.275200
   1640   1660   1661     1   107.2600461 396.643200
   1640   1639   1641     1   109.5600471 388.275200
   1641   1639   1650     1   109.5600471 388.275200
   1641   1639   1657     1   109.7800468 425.094400
   1642   1643   1645     1   109.5600471 388.275200
   1642   1649   1651     1   107.2600461 396.643200
   1642   1640   1659     1   109.5600471 388.275200
   1643   1644   1647     1   110.2200475 386.601600
   1643   1662   1652     1   109.2900470 396.643200
   1643   1642   1646     1   109.5600471 388.275200
   1644   1648   1658     1   107.2600461 396.643200
   1644   1643   1645     1   109.5600471 388.275200
   1645   1643   1662     1   109.8800469 414.216000
   1646   1642   1649     1   110.2600474 425.931200
   1647   1644   1648     1   109.4300470 427.604800
   1647   1644   1657     1   109.5800467 425.931200
   1650   1655   1656     1   107.2600461 396.643200
   1653   1650   1655     1   110.2600474 425.931200
   1653   1650   1654     1   108.4600466 328.025600
   1654   1650   1655     1   110.2600474 425.931200
   1659   1640   1660     1   110.2600474 425.931200
   1663   1664   1683     1   109.5600471 388.275200
   1663   1674   1677     1   109.5600471 388.275200
   1663   1674   1678     1   109.5600471 388.275200
   1664   1666   1670     1   109.5600471 388.275200
   1664   1684   1685     1   107.2600461 396.643200
   1664   1663   1665     1   109.5600471 388.275200
   1665   1663   1674     1   109.5600471 388.275200
   1665   1663   1681     1   109.7800468 425.094400
   1666   1667   1669     1   109.5600471 388.275200
   1666   1673   1675     1   107.2600461 396.643200
   1666   1664   1683     1   109.5600471 388.275200
   1667   1668   1671     1   110.2200475 386.601600
   1667   1686   1676     1   109.2900470 396.643200
   1667   1666   1670     1   109.5600471 388.275200
   1668   1672   1682     1   107.2600461 396.643200
   1668   1667   1669     1   109.5600471 388.275200
   1669   1667   1686     1   109.8800469 414.216000
   1670   1666   1673     1   110.2600474 425.931200
   1671   1668   1672     1   109.4300470 427.604800
   1671   1668   1681     1   109.5800467 425.931200
   1674   1679   1680     1   107.2600461 396.643200
   1677   1674   1679     1   110.2600474 425.931200
   1677   1674   1678     1   108.4600466 328.025600
   1678   1674   1679     1   110.2600474 425.931200
   1683   1664   1684     1   110.2600474 425.931200
   1687   1689   1690     1   108.8800464 416.726400
   1687   1689   1692     1   108.8800464 416.726400
   1688   1687   1689     1   117.6800502 383.254400
   1689   1691   1693     1   109.5600471 388.275200
   1689   1691   1694     1   109.5600471 388.275200
   1690   1689   1691     1   109.5600471 388.275200
   1690   1689   1692     1   108.4600466 328.025600
   1691   1689   1692     1   109.5600471 388.275200
   1693   1691   1695     1   109.8800469 414.216000
   1693   1691   1694     1   108.4600466 328.025600
   1694   1691   1695     1   109.8800469 414.216000
   1695   1696   1705     1   109.8800469 414.216000
   1695   1696   1706     1   109.8800469 414.216000
   1695   1697   1698     1   109.8800469 414.216000
   1695   1697   1700     1   109.8800469 414.216000
   1696   1707   1708     1   109.8000471 387.438400
   1696   1707   1709     1   109.8000471 387.438400
   1697   1699   1701     1   109.8000471 387.438400
   1697   1699   1702     1   109.8000471 387.438400
   1698   1697   1699     1   109.5600471 388.275200
   1698   1697   1700     1   108.4600466 328.025600
   1699   1697   1700     1   109.5600471 388.275200
   1701   1699   1703     1   108.7700466 392.459200
   1701   1699   1702     1   107.5800459 329.699200
   1702   1699   1703     1   108.7700466 392.459200
   1703   1735   1725     1   119.3800509 410.868800
   1705   1696   1707     1   109.5600471 388.275200
   1705   1696   1706     1   108.4600466 328.025600
   1706   1696   1707     1   109.5600471 388.275200
   1708   1707   1710     1   108.7700466 392.459200
   1708   1707   1709     1   107.5800459 329.699200
   1709   1707   1710     1   108.7700466 392.459200
   1710   1759   1749     1   119.3800509 410.868800
   1712   1713   1732     1   109.5600471 388.275200
   1712   1723   1726     1   109.5600471 388.275200
   1712   1723   1727     1   109.5600471 388.275200
   1713   1712   1714     1   109.5600471 388.275200
   1713   1715   1719     1   109.5600471 388.275200
   1713   1733   1734     1   107.2600461 396.643200
   1714   1712   1723     1   109.5600471 388.275200
   1714   1712   1730     1   109.7800468 425.094400
   1715   1713   1732     1   109.5600471 388.275200
   1715   1716   1718     1   109.5600471 388.275200
   1715   1722   1724     1   107.2600461 396.643200
   1716   1715   1719     1   109.5600471 388.275200
   1716   1717   1720     1   110.2200475 386.601600
   1716   1735   1725     1   109.2900470 396.643200
   1717   1716   1718     1   109.5600471 388.275200
   1717   1721   1731     1   107.2600461 396.643200
   1718   1716   1735     1   109.8800469 414.216000
   1719   1715   1722     1   110.2600474 425.931200
   1720   1717   1721     1   109.4300470 427.604800
   1720   1717   1730     1   109.5800467 425.931200
   1723   1728   1729     1   107.2600461 396.643200
   1726   1723   1728     1   110.2600474 425.931200
   1726   1723   1727     1   108.4600466 328.025600
   1727   1723   1728     1   110.2600474 425.931200
   1732   1713   1733     1   110.2600474 425.931200
   1736   1737   1756     1   109.5600471 388.275200
   1736   1747   1750     1   109.5600471 388.275200
   1736   1747   1751     1   109.5600471 388.275200
   1737   1736   1738     1   109.5600471 388.275200
   1737   1739   1743     1   109.5600471 388.275200
   1737   1757   1758     1   107.2600461 396.643200
   1738   1736   1747     1   109.5600471 388.275200
   1738   1736   1754     1   109.7800468 425.094400
   1739   1737   1756     1   109.5600471 388.275200
   1739   1740   1742     1   109.5600471 388.275200
   1739   1746   1748     1   107.2600461 396.643200
   1740   1739   1743     1   109.5600471 388.275200
   1740   1741   1744     1   110.2200475 386.601600
   1740   1759   1749     1   109.2900470 396.643200
   1741   1740   1742     1   109.5600471 388.275200
   1741   1745   1755     1   107.2600461 396.643200
   1742   1740   1759     1   109.8800469 414.216000
   1743   1739   1746     1   110.2600474 425.931200
   1744   1741   1745     1   109.4300470 427.604800
   1744   1741   1754     1   109.5800467 425.931200
   1747   1752   1753     1   107.2600461 396.643200
   1750   1747   1752     1   110.2600474 425.931200
   1750   1747   1751     1   108.4600466 328.025600
   1751   1747   1752     1   110.2600474 425.931200
   1756   1737   1757     1   110.2600474 425.931200
   1760   1762   1763     1   108.8800464 416.726400
   1760   1762   1765     1   108.8800464 416.726400
   1761   1760   1762     1   117.6800502 383.254400
   1762   1764   1766     1   109.5600471 388.275200
   1762   1764   1767     1   109.5600471 388.275200
   1763   1762   1764     1   109.5600471 388.275200
   1763   1762   1765     1   108.4600466 328.025600
   1764   1762   1765     1   109.5600471 388.275200
   1766   1764   1768     1   109.8800469 414.216000
   1766   1764   1767     1   108.4600466 328.025600
   1767   1764   1768     1   109.8800469 414.216000
   1768   1769   1778     1   109.8800469 414.216000
   1768   1769   1779     1   109.8800469 414.216000
   1768   1770   1771     1   109.8800469 414.216000
   1768   1770   1773     1   109.8800469 414.216000
   1769   1780   1781     1   109.8000471 387.438400
   1769   1780   1782     1   109.8000471 387.438400
   1770   1772   1774     1   109.8000471 387.438400
   1770   1772   1775     1   109.8000471 387.438400
   1771   1770   1772     1   109.5600471 388.275200
   1771   1770   1773     1   108.4600466 328.025600
   1772   1770   1773     1   109.5600471 388.275200
   1774   1772   1776     1   108.7700466 392.459200
   1774   1772   1775     1   107.5800459 329.699200
   1775   1772   1776     1   108.7700466 392.459200
   1776   1808   1798     1   119.3800509 410.868800
   1778   1769   1780     1   109.5600471 388.275200
   1778   1769   1779     1   108.4600466 328.025600
   1779   1769   1780     1   109.5600471 388.275200
   1781   1780   1783     1   108.7700466 392.459200
   1781   1780   1782     1   107.5800459 329.699200
   1782   1780   1783     1   108.7700466 392.459200
   1783   1832   1822     1   119.3800509 410.868800
   1785   1786   1805     1   109.5600471 388.275200
   1785   1796   1799     1   109.5600471 388.275200
   1785   1796   1800     1   109.5600471 388.275200
   1786   1788   1792     1   109.5600471 388.275200
   1786   1806   1807     1   107.2600461 396.643200
   1786   1785   1787     1   109.5600471 388.275200
   1787   1785   1796     1   109.5600471 388.275200
   1787   1785   1803     1   109.7800468 425.094400
   1788   1789   1791     1   109.5600471 388.275200
   1788   1795   1797     1   107.2600461 396.643200
   1788   1786   1805     1   109.5600471 388.275200
   1789   1790   1793     1   110.2200475 386.601600
   1789   1808   1798     1   109.2900470 396.643200
   1789   1788   1792     1   109.5600471 388.275200
   1790   1794   1804     1   107.2600461 396.643200
   1790   1789   1791     1   109.5600471 388.275200
   1791   1789   1808     1   109.8800469 414.216000
   1792   1788   1795     1   110.2600474 425.931200
   1793   1790   1794     1   109.4300470 427.604800
   1793   1790   1803     1   109.5800467 425.931200
   1796   1801   1802     1   107.2600461 396.643200
   1799   1796   1801     1   110.2600474 425.931200
   1799   1796   1800     1   108.4600466 328.025600
   1800   1796   1801     1   110.2600474 425.931200
   1805   1786   1806     1   110.2600474 425.931200
   1809   1810   1829     1   109.5600471 388.275200
   1809   1820   1823     1   109.5600471 388.275200
   1809   1820   1824     1   109.5600471 388.275200
   1810   1812   1816     1   109.5600471 388.275200
   1810   1830   1831     1   107.2600461 396.643200
   1810   1809   1811     1   109.5600471 388.275200
   1811   1809   1820     1   109.5600471 388.275200
   1811   1809   1827     1   109.7800468 425.094400
   1812   1813   1815     1   109.5600471 388.275200
   1812   1819   1821     1   107.2600461 396.643200
   1812   1810   1829     1   109.5600471 388.275200
   1813   1814   1817     1   110.2200475 386.601600
   1813   1832   1822     1   109.2900470 396.643200
   1813   1812   1816     1   109.5600471 388.275200
   1814   1818   1828     1   107.2600461 396.643200
   1814   1813   1815     1   109.5600471 388.275200
   1815   1813   1832     1   109.8800469 414.216000
   1816   1812   1819     1   110.2600474 425.931200
   1817   1814   1818     1   109.4300470 427.604800
   1817   1814   1827     1   109.5800467 425.931200
   1820   1825   1826     1   107.2600461 396.643200
   1823   1820   1825     1   110.2600474 425.931200
   1823   1820   1824     1   108.4600466 328.025600
   1824   1820   1825     1   110.2600474 425.931200
   1829   1810   1830     1   110.2600474 425.931200
   1833   1835   1836     1   108.8800464 416.726400
   1833   1835   1838     1   108.8800464 416.726400
   1834   1833   1835     1   117.6800502 383.254400
   1835   1837   1839     1   109.5600471 388.275200
   1835   1837   1840     1   109.5600471 388.275200
   1836   1835   1837     1   109.5600471 388.275200
   1836   1835   1838     1   108.4600466 328.025600
   1837   1835   1838     1   109.5600471 388.275200
   1839   1837   1841     1   109.8800469 414.216000
   1839   1837   1840     1   108.4600466 328.025600
   1840   1837   1841     1   109.8800469 414.216000
   1841   1842   1851     1   109.8800469 414.216000
   1841   1842   1852     1   109.8800469 414.216000
   1841   1843   1844     1   109.8800469 414.216000
   1841   1843   1846     1   109.8800469 414.216000
   1842   1853   1854     1   109.8000471 387.438400
   1842   1853   1855     1   109.8000471 387.438400
   1843   1845   1847     1   109.8000471 387.438400
   1843   1845   1848     1   109.8000471 387.438400
   1844   1843   1845     1   109.5600471 388.275200
   1844   1843   1846     1   108.4600466 328.025600
   1845   1843   1846     1   109.5600471 388.275200
   1847   1845   1849     1   108.7700466 392.459200
   1847   1845   1848     1   107.5800459 329.699200
   1848   1845   1849     1   108.7700466 392.459200
   1849   1881   1871     1   119.3800509 410.868800
   1851   1842   1853     1   109.5600471 388.275200
   1851   1842   1852     1   108.4600466 328.025600
   1852   1842   1853     1   109.5600471 388.275200
   1854   1853   1856     1   108.7700466 392.459200
   1854   1853   1855     1   107.5800459 329.699200
   1855   1853   1856     1   108.7700466 392.459200
   1856   1905   1895     1   119.3800509 410.868800
   1858   1859   1878     1   109.5600471 388.275200
   1858   1869   1872     1   109.5600471 388.275200
   1858   1869   1873     1   109.5600471 388.275200
   1859   1858   1860     1   109.5600471 388.275200
   1859   1861   1865     1   109.5600471 388.275200
   1859   1879   1880     1   107.2600461 396.643200
   1860   1858   1869     1   109.5600471 388.275200
   1860   1858   1876     1   109.7800468 425.094400
   1861   1859   1878     1   109.5600471 388.275200
   1861   1862   1864     1   109.5600471 388.275200
   1861   1868   1870     1   107.2600461 396.643200
   1862   1861   1865     1   109.5600471 388.275200
   1862   1863   1866     1   110.2200475 386.601600
   1862   1881   1871     1   109.2900470 396.643200
   1863   1862   1864     1   109.5600471 388.275200
   1863   1867   1877     1   107.2600461 396.643200
   1864   1862   1881     1   109.8800469 414.216000
   1865   1861   1868     1   110.2600474 425.931200
   1866   1863   1867     1   109.4300470 427.604800
   1866   1863   1876     1   109.5800467 425.931200
   1869   1874   1875     1   107.2600461 396.643200
   1872   1869   1874     1   110.2600474 425.931200
   1872   1869   1873     1   108.4600466 328.025600
   1873   1869   1874     1   110.2600474 425.931200
   1878   1859   1879     1   110.2600474 425.931200
   1882   1883   1902     1   109.5600471 388.275200
   1882   1893   1896     1   109.5600471 388.275200
   1882   1893   1897     1   109.5600471 388.275200
   1883   1882   1884     1   109.5600471 388.275200
   1883   1885   1889     1   109.5600471 388.275200
   1883   1903   1904     1   107.2600461 396.643200
   1884   1882   1893     1   109.5600471 388.275200
   1884   1882   1900     1   109.7800468 425.094400
   1885   1883   1902     1   109.5600471 388.275200
   1885   1886   1888     1   109.5600471 388.275200
   1885   1892   1894     1   107.2600461 396.643200
   1886   1885   1889     1   109.5600471 388.275200
   1886   1887   1890     1   110.2200475 386.601600
   1886   1905   1895     1   109.2900470 396.643200
   1887   1886   1888     1   109.5600471 388.275200
   1887   1891   1901     1   107.2600461 396.643200
   1888   1886   1905     1   109.8800469 414.216000
   1889   1885   1892     1   110.2600474 425.931200
   1890   1887   1891     1   109.4300470 427.604800
   1890   1887   1900     1   109.5800467 425.931200
   1893   1898   1899     1   107.2600461 396.643200
   1896   1893   1898     1   110.2600474 425.931200
   1896   1893   1897     1   108.4600466 328.025600
   1897   1893   1898     1   110.2600474 425.931200
   1902   1883   1903     1   110.2600474 425.931200
   1906   1908   1909     1   108.8800464 416.726400
   1906   1908   1911     1   108.8800464 416.726400
   1907   1906   1908     1   117.6800502 383.254400
   1908   1910   1912     1   109.5600471 388.275200
   1908   1910   1913     1   109.5600471 388.275200
   1909   1908   1910     1   109.5600471 388.275200
   1909   1908   1911     1   108.4600466 328.025600
   1910   1908   1911     1   109.5600471 388.275200
   1912   1910   1914     1   109.8800469 414.216000
   1912   1910   1913     1   108.4600466 328.025600
   1913   1910   1914     1   109.8800469 414.216000
   1914   1915   1924     1   109.8800469 414.216000
   1914   1915   1925     1   109.8800469 414.216000
   1914   1916   1917     1   109.8800469 414.216000
   1914   1916   1919     1   109.8800469 414.216000
   1915   1926   1927     1   109.8000471 387.438400
   1915   1926   1928     1   109.8000471 387.438400
   1916   1918   1920     1   109.8000471 387.438400
   1916   1918   1921     1   109.8000471 387.438400
   1917   1916   1918     1   109.5600471 388.275200
   1917   1916   1919     1   108.4600466 328.025600
   1918   1916   1919     1   109.5600471 388.275200
   1920   1918   1922     1   108.7700466 392.459200
   1920   1918   1921     1   107.5800459 329.699200
   1921   1918   1922     1   108.7700466 392.459200
   1922   1954   1944     1   119.3800509 410.868800
   1924   1915   1926     1   109.5600471 388.275200
   1924   1915   1925     1   108.4600466 328.025600
   1925   1915   1926     1   109.5600471 388.275200
   1927   1926   1929     1   108.7700466 392.459200
   1927   1926   1928     1   107.5800459 329.699200
   1928   1926   1929     1   108.7700466 392.459200
   1929   1978   1968     1   119.3800509 410.868800
   1931   1932   1951     1   109.5600471 388.275200
   1931   1942   1945     1   109.5600471 388.275200
   1931   1942   1946     1   109.5600471 388.275200
   1932   1934   1938     1   109.5600471 388.275200
   1932   1952   1953     1   107.2600461 396.643200
   1932   1931   1933     1   109.5600471 388.275200
   1933   1931   1942     1   109.5600471 388.275200
   1933   1931   1949     1   109.7800468 425.094400
   1934   1935   1937     1   109.5600471 388.275200
   1934   1941   1943     1   107.2600461 396.643200
   1934   1932   1951     1   109.5600471 388.275200
   1935   1936   1939     1   110.2200475 386.601600
   1935   1954   1944     1   109.2900470 396.643200
   1935   1934   1938     1   109.5600471 388.275200
   1936   1940   1950     1   107.2600461 396.643200
   1936   1935   1937     1   109.5600471 388.275200
   1937   1935   1954     1   109.8800469 414.216000
   1938   1934   1941     1   110.2600474 425.931200
   1939   1936   1940     1   109.4300470 427.604800
   1939   1936   1949     1   109.5800467 425.931200
   1942   1947   1948     1   107.2600461 396.643200
   1945   1942   1947     1   110.2600474 425.931200
   1945   1942   1946     1   108.4600466 328.025600
   1946   1942   1947     1   110.2600474 425.931200
   1951   1932   1952     1   110.2600474 425.931200
   1955   1956   1975     1   109.5600471 388.275200
   1955   1966   1969     1   109.5600471 388.275200
   1955   1966   1970     1   109.5600471 388.275200
   1956   1958   1962     1   109.5600471 388.275200
   1956   1976   1977     1   107.2600461 396.643200
   1956   1955   1957     1   109.5600471 388.275200
   1957   1955   1966     1   109.5600471 388.275200
   1957   1955   1973     1   109.7800468 425.094400
   1958   1959   1961     1   109.5600471 388.275200
   1958   1965   1967     1   107.2600461 396.643200
   1958   1956   1975     1   109.5600471 388.275200
   1959   1960   1963     1   110.2200475 386.601600
   1959   1978   1968     1   109.2900470 396.643200
   1959   1958   1962     1   109.5600471 388.275200
   1960   1964   1974     1   107.2600461 396.643200
   1960   1959   1961     1   109.5600471 388.275200
   1961   1959   1978     1   109.8800469 414.216000
   1962   1958   1965     1   110.2600474 425.931200
   1963   1960   1964     1   109.4300470 427.604800
   1963   1960   1973     1   109.5800467 425.931200
   1966   1971   1972     1   107.2600461 396.643200
   1969   1966   1971     1   110.2600474 425.931200
   1969   1966   1970     1   108.4600466 328.025600
   1970   1966   1971     1   110.2600474 425.931200
   1975   1956   1976     1   110.2600474 425.931200
   1979   1981   1982     1   108.8800464 416.726400
   1979   1981   1984     1   108.8800464 416.726400
   1980   1979   1981     1   117.6800502 383.254400
   1981   1983   1985     1   109.5600471 388.275200
   1981   1983   1986     1   109.5600471 388.275200
   1982   1981   1983     1   109.5600471 388.275200
   1982   1981   1984     1   108.4600466 328.025600
   1983   1981   1984     1   109.5600471 388.275200
   1985   1983   1987     1   109.8800469 414.216000
   1985   1983   1986     1   108.4600466 328.025600
   1986   1983   1987     1   109.8800469 414.216000
   1987   1988   1997     1   109.8800469 414.216000
   1987   1988   1998     1   109.8800469 414.216000
   1987   1989   1990     1   109.8800469 414.216000
   1987   1989   1992     1   109.8800469 414.216000
   1988   1999   2000     1   109.8000471 387.438400
   1988   1999   2001     1   109.8000471 387.438400
   1989   1991   1993     1   109.8000471 387.438400
   1989   1991   1994     1   109.8000471 387.438400
   1990   1989   1991     1   109.5600471 388.275200
   1990   1989   1992     1   108.4600466 328.025600
   1991   1989   1992     1   109.5600471 388.275200
   1993   1991   1995     1   108.7700466 392.459200
   1993   1991   1994     1   107.5800459 329.699200
   1994   1991   1995     1   108.7700466 392.459200
   1995   2027   2017     1   119.3800509 410.868800
   1997   1988   1999     1   109.5600471 388.275200
   1997   1988   1998     1   108.4600466 328.025600
   1998   1988   1999     1   109.5600471 388.275200
   2000   1999   2002     1   108.7700466 392.459200
   2000   1999   2001     1   107.5800459 329.699200
   2001   1999   2002     1   108.7700466 392.459200
   2002   2051   2041     1   119.3800509 410.868800
   2004   2005   2024     1   109.5600471 388.275200
   2004   2015   2018     1   109.5600471 388.275200
   2004   2015   2019     1   109.5600471 388.275200
   2005   2004   2006     1   109.5600471 388.275200
   2005   2007   2011     1   109.5600471 388.275200
   2005   2025   2026     1   107.2600461 396.643200
   2006   2004   2015     1   109.5600471 388.275200
   2006   2004   2022     1   109.7800468 425.094400
   2007   2005   2024     1   109.5600471 388.275200
   2007   2008   2010     1   109.5600471 388.275200
   2007   2014   2016     1   107.2600461 396.643200
   2008   2007   2011     1   109.5600471 388.275200
   2008   2009   2012     1   110.2200475 386.601600
   2008   2027   2017     1   109.2900470 396.643200
   2009   2008   2010     1   109.5600471 388.275200
   2009   2013   2023     1   107.2600461 396.643200
   2010   2008   2027     1   109.8800469 414.216000
   2011   2007   2014     1   110.2600474 425.931200
   2012   2009   2013     1   109.4300470 427.604800
   2012   2009   2022     1   109.5800467 425.931200
   2015   2020   2021     1   107.2600461 396.643200
   2018   2015   2020     1   110.2600474 425.931200
   2018   2015   2019     1   108.4600466 328.025600
   2019   2015   2020     1   110.2600474 425.931200
   2024   2005   2025     1   110.2600474 425.931200
   2028   2029   2048     1   109.5600471 388.275200
   2028   2039   2042     1   109.5600471 388.275200
   2028   2039   2043     1   109.5600471 388.275200
   2029   2028   2030     1   109.5600471 388.275200
   2029   2031   2035     1   109.5600471 388.275200
   2029   2049   2050     1   107.2600461 396.643200
   2030   2028   2039     1   109.5600471 388.275200
   2030   2028   2046     1   109.7800468 425.094400
   2031   2029   2048     1   109.5600471 388.275200
   2031   2032   2034     1   109.5600471 388.275200
   2031   2038   2040     1   107.2600461 396.643200
   2032   2031   2035     1   109.5600471 388.275200
   2032   2033   2036     1   110.2200475 386.601600
   2032   2051   2041     1   109.2900470 396.643200
   2033   2032   2034     1   109.5600471 388.275200
   2033   2037   2047     1   107.2600461 396.643200
   2034   2032   2051     1   109.8800469 414.216000
   2035   2031   2038     1   110.2600474 425.931200
   2036   2033   2037     1   109.4300470 427.604800
   2036   2033   2046     1   109.5800467 425.931200
   2039   2044   2045     1   107.2600461 396.643200
   2042   2039   2044     1   110.2600474 425.931200
   2042   2039   2043     1   108.4600466 328.025600
   2043   2039   2044     1   110.2600474 425.931200
   2048   2029   2049     1   110.2600474 425.931200
   2052   2054   2055     1   108.8800464 416.726400
   2052   2054   2057     1   108.8800464 416.726400
   2053   2052   2054     1   117.6800502 383.254400
   2054   2056   2058     1   109.5600471 388.275200
   2054   2056   2059     1   109.5600471 388.275200
   2055   2054   2056     1   109.5600471 388.275200
   2055   2054   2057     1   108.4600466 328.025600
   2056   2054   2057     1   109.5600471 388.275200
   2058   2056   2060     1   109.8800469 414.216000
   2058   2056   2059     1   108.4600466 328.025600
   2059   2056   2060     1   109.8800469 414.216000
   2060   2061   2070     1   109.8800469 414.216000
   2060   2061   2071     1   109.8800469 414.216000
   2060   2062   2063     1   109.8800469 414.216000
   2060   2062   2065     1   109.8800469 414.216000
   2061   2072   2073     1   109.8000471 387.438400
   2061   2072   2074     1   109.8000471 387.438400
   2062   2064   2066     1   109.8000471 387.438400
   2062   2064   2067     1   109.8000471 387.438400
   2063   2062   2064     1   109.5600471 388.275200
   2063   2062   2065     1   108.4600466 328.025600
   2064   2062   2065     1   109.5600471 388.275200
   2066   2064   2068     1   108.7700466 392.459200
   2066   2064   2067     1   107.5800459 329.699200
   2067   2064   2068     1   108.7700466 392.459200
   2068   2100   2090     1   119.3800509 410.868800
   2070   2061   2072     1   109.5600471 388.275200
   2070   2061   2071     1   108.4600466 328.025600
   2071   2061   2072     1   109.5600471 388.275200
   2073   2072   2075     1   108.7700466 392.459200
   2073   2072   2074     1   107.5800459 329.699200
   2074   2072   2075     1   108.7700466 392.459200
   2075   2124   2114     1   119.3800509 410.868800
   2077   2078   2097     1   109.5600471 388.275200
   2077   2088   2091     1   109.5600471 388.275200
   2077   2088   2092     1   109.5600471 388.275200
   2078   2080   2084     1   109.5600471 388.275200
   2078   2098   2099     1   107.2600461 396.643200
   2078   2077   2079     1   109.5600471 388.275200
   2079   2077   2088     1   109.5600471 388.275200
   2079   2077   2095     1   109.7800468 425.094400
   2080   2081   2083     1   109.5600471 388.275200
   2080   2087   2089     1   107.2600461 396.643200
   2080   2078   2097     1   109.5600471 388.275200
   2081   2082   2085     1   110.2200475 386.601600
   2081   2100   2090     1   109.2900470 396.643200
   2081   2080   2084     1   109.5600471 388.275200
   2082   2086   2096     1   107.2600461 396.643200
   2082   2081   2083     1   109.5600471 388.275200
   2083   2081   2100     1   109.8800469 414.216000
   2084   2080   2087     1   110.2600474 425.931200
   2085   2082   2086     1   109.4300470 427.604800
   2085   2082   2095     1   109.5800467 425.931200
   2088   2093   2094     1   107.2600461 396.643200
   2091   2088   2093     1   110.2600474 425.931200
   2091   2088   2092     1   108.4600466 328.025600
   2092   2088   2093     1   110.2600474 425.931200
   2097   2078   2098     1   110.2600474 425.931200
   2101   2102   2121     1   109.5600471 388.275200
   2101   2112   2115     1   109.5600471 388.275200
   2101   2112   2116     1   109.5600471 388.275200
   2102   2104   2108     1   109.5600471 388.275200
   2102   2122   2123     1   107.2600461 396.643200
   2102   2101   2103     1   109.5600471 388.275200
   2103   2101   2112     1   109.5600471 388.275200
   2103   2101   2119     1   109.7800468 425.094400
   2104   2105   2107     1   109.5600471 388.275200
   2104   2111   2113     1   107.2600461 396.643200
   2104   2102   2121     1   109.5600471 388.275200
   2105   2106   2109     1   110.2200475 386.601600
   2105   2124   2114     1   109.2900470 396.643200
   2105   2104   2108     1   109.5600471 388.275200
   2106   2110   2120     1   107.2600461 396.643200
   2106   2105   2107     1   109.5600471 388.275200
   2107   2105   2124     1   109.8800469 414.216000
   2108   2104   2111     1   110.2600474 425.931200
   2109   2106   2110     1   109.4300470 427.604800
   2109   2106   2119     1   109.5800467 425.931200
   2112   2117   2118     1   107.2600461 396.643200
   2115   2112   2117     1   110.2600474 425.931200
   2115   2112   2116     1   108.4600466 328.025600
   2116   2112   2117     1   110.2600474 425.931200
   2121   2102   2122     1   110.2600474 425.931200
   2125   2127   2128     1   108.8800464 416.726400
   2125   2127   2130     1   108.8800464 416.726400
   2126   2125   2127     1   117.6800502 383.254400
   2127   2129   2131     1   109.5600471 388.275200
   2127   2129   2132     1   109.5600471 388.275200
   2128   2127   2129     1   109.5600471 388.275200
   2128   2127   2130     1   108.4600466 328.025600
   2129   2127   2130     1   109.5600471 388.275200
   2131   2129   2133     1   109.8800469 414.216000
   2131   2129   2132     1   108.4600466 328.025600
   2132   2129   2133     1   109.8800469 414.216000
   2133   2134   2143     1   109.8800469 414.216000
   2133   2134   2144     1   109.8800469 414.216000
   2133   2135   2136     1   109.8800469 414.216000
   2133   2135   2138     1   109.8800469 414.216000
   2134   2145   2146     1   109.8000471 387.438400
   2134   2145   2147     1   109.8000471 387.438400
   2135   2137   2139     1   109.8000471 387.438400
   2135   2137   2140     1   109.8000471 387.438400
   2136   2135   2137     1   109.5600471 388.275200
   2136   2135   2138     1   108.4600466 328.025600
   2137   2135   2138     1   109.5600471 388.275200
   2139   2137   2141     1   108.7700466 392.459200
   2139   2137   2140     1   107.5800459 329.699200
   2140   2137   2141     1   108.7700466 392.459200
   2141   2173   2163     1   119.3800509 410.868800
   2143   2134   2145     1   109.5600471 388.275200
   2143   2134   2144     1   108.4600466 328.025600
   2144   2134   2145     1   109.5600471 388.275200
   2146   2145   2148     1   108.7700466 392.459200
   2146   2145   2147     1   107.5800459 329.699200
   2147   2145   2148     1   108.7700466 392.459200
   2148   2197   2187     1   119.3800509 410.868800
   2150   2151   2170     1   109.5600471 388.275200
   2150   2161   2164     1   109.5600471 388.275200
   2150   2161   2165     1   109.5600471 388.275200
   2151   2150   2152     1   109.5600471 388.275200
   2151   2153   2157     1   109.5600471 388.275200
   2151   2171   2172     1   107.2600461 396.643200
   2152   2150   2161     1   109.5600471 388.275200
   2152   2150   2168     1   109.7800468 425.094400
   2153   2151   2170     1   109.5600471 388.275200
   2153   2154   2156     1   109.5600471 388.275200
   2153   2160   2162     1   107.2600461 396.643200
   2154   2153   2157     1   109.5600471 388.275200
   2154   2155   2158     1   110.2200475 386.601600
   2154   2173   2163     1   109.2900470 396.643200
   2155   2154   2156     1   109.5600471 388.275200
   2155   2159   2169     1   107.2600461 396.643200
   2156   2154   2173     1   109.8800469 414.216000
   2157   2153   2160     1   110.2600474 425.931200
   2158   2155   2159     1   109.4300470 427.604800
   2158   2155   2168     1   109.5800467 425.931200
   2161   2166   2167     1   107.2600461 396.643200
   2164   2161   2166     1   110.2600474 425.931200
   2164   2161   2165     1   108.4600466 328.025600
   2165   2161   2166     1   110.2600474 425.931200
   2170   2151   2171     1   110.2600474 425.931200
   2174   2175   2194     1   109.5600471 388.275200
   2174   2185   2188     1   109.5600471 388.275200
   2174   2185   2189     1   109.5600471 388.275200
   2175   2174   2176     1   109.5600471 388.275200
   2175   2177   2181     1   109.5600471 388.275200
   2175   2195   2196     1   107.2600461 396.643200
   2176   2174   2185     1   109.5600471 388.275200
   2176   2174   2192     1   109.7800468 425.094400
   2177   2175   2194     1   109.5600471 388.275200
   2177   2178   2180     1   109.5600471 388.275200
   2177   2184   2186     1   107.2600461 396.643200
   2178   2177   2181     1   109.5600471 388.275200
   2178   2179   2182     1   110.2200475 386.601600
   2178   2197   2187     1   109.2900470 396.643200
   2179   2178   2180     1   109.5600471 388.275200
   2179   2183   2193     1   107.2600461 396.643200
   2180   2178   2197     1   109.8800469 414.216000
   2181   2177   2184     1   110.2600474 425.931200
   2182   2179   2183     1   109.4300470 427.604800
   2182   2179   2192     1   109.5800467 425.931200
   2185   2190   2191     1   107.2600461 396.643200
   2188   2185   2190     1   110.2600474 425.931200
   2188   2185   2189     1   108.4600466 328.025600
   2189   2185   2190     1   110.2600474 425.931200
   2194   2175   2195     1   110.2600474 425.931200
   2198   2200   2201     1   108.8800464 416.726400
   2198   2200   2203     1   108.8800464 416.726400
   2199   2198   2200     1   117.6800502 383.254400
   2200   2202   2204     1   109.5600471 388.275200
   2200   2202   2205     1   109.5600471 388.275200
   2201   2200   2202     1   109.5600471 388.275200
   2201   2200   2203     1   108.4600466 328.025600
   2202   2200   2203     1   109.5600471 388.275200
   2204   2202   2206     1   109.8800469 414.216000
   2204   2202   2205     1   108.4600466 328.025600
   2205   2202   2206     1   109.8800469 414.216000
   2206   2207   2216     1   109.8800469 414.216000
   2206   2207   2217     1   109.8800469 414.216000
   2206   2208   2209     1   109.8800469 414.216000
   2206   2208   2211     1   109.8800469 414.216000
   2207   2218   2219     1   109.8000471 387.438400
   2207   2218   2220     1   109.8000471 387.438400
   2208   2210   2212     1   109.8000471 387.438400
   2208   2210   2213     1   109.8000471 387.438400
   2209   2208   2210     1   109.5600471 388.275200
   2209   2208   2211     1   108.4600466 328.025600
   2210   2208   2211     1   109.5600471 388.275200
   2212   2210   2214     1   108.7700466 392.459200
   2212   2210   2213     1   107.5800459 329.699200
   2213   2210   2214     1   108.7700466 392.459200
   2214   2246   2236     1   119.3800509 410.868800
   2216   2207   2218     1   109.5600471 388.275200
   2216   2207   2217     1   108.4600466 328.025600
   2217   2207   2218     1   109.5600471 388.275200
   2219   2218   2221     1   108.7700466 392.459200
   2219   2218   2220     1   107.5800459 329.699200
   2220   2218   2221     1   108.7700466 392.459200
   2221   2270   2260     1   119.3800509 410.868800
   2223   2224   2243     1   109.5600471 388.275200
   2223   2234   2237     1   109.5600471 388.275200
   2223   2234   2238     1   109.5600471 388.275200
   2224   2226   2230     1   109.5600471 388.275200
   2224   2244   2245     1   107.2600461 396.643200
   2224   2223   2225     1   109.5600471 388.275200
   2225   2223   2234     1   109.5600471 388.275200
   2225   2223   2241     1   109.7800468 425.094400
   2226   2227   2229     1   109.5600471 388.275200
   2226   2233   2235     1   107.2600461 396.643200
   2226   2224   2243     1   109.5600471 388.275200
   2227   2228   2231     1   110.2200475 386.601600
   2227   2246   2236     1   109.2900470 396.643200
   2227   2226   2230     1   109.5600471 388.275200
   2228   2232   2242     1   107.2600461 396.643200
   2228   2227   2229     1   109.5600471 388.275200
   2229   2227   2246     1   109.8800469 414.216000
   2230   2226   2233     1   110.2600474 425.931200
   2231   2228   2232     1   109.4300470 427.604800
   2231   2228   2241     1   109.5800467 425.931200
   2234   2239   2240     1   107.2600461 396.643200
   2237   2234   2239     1   110.2600474 425.931200
   2237   2234   2238     1   108.4600466 328.025600
   2238   2234   2239     1   110.2600474 425.931200
   2243   2224   2244     1   110.2600474 425.931200
   2247   2248   2267     1   109.5600471 388.275200
   2247   2258   2261     1   109.5600471 388.275200
   2247   2258   2262     1   109.5600471 388.275200
   2248   2250   2254     1   109.5600471 388.275200
   2248   2268   2269     1   107.2600461 396.643200
   2248   2247   2249     1   109.5600471 388.275200
   2249   2247   2258     1   109.5600471 388.275200
   2249   2247   2265     1   109.7800468 425.094400
   2250   2251   2253     1   109.5600471 388.275200
   2250   2257   2259     1   107.2600461 396.643200
   2250   2248   2267     1   109.5600471 388.275200
   2251   2252   2255     1   110.2200475 386.601600
   2251   2270   2260     1   109.2900470 396.643200
   2251   2250   2254     1   109.5600471 388.275200
   2252   2256   2266     1   107.2600461 396.643200
   2252   2251   2253     1   109.5600471 388.275200
   2253   2251   2270     1   109.8800469 414.216000
   2254   2250   2257     1   110.2600474 425.931200
   2255   2252   2256     1   109.4300470 427.604800
   2255   2252   2265     1   109.5800467 425.931200
   2258   2263   2264     1   107.2600461 396.643200
   2261   2258   2263     1   110.2600474 425.931200
   2261   2258   2262     1   108.4600466 328.025600
   2262   2258   2263     1   110.2600474 425.931200
   2267   2248   2268     1   110.2600474 425.931200
   2271   2273   2274     1   108.8800464 416.726400
   2271   2273   2276     1   108.8800464 416.726400
   2272   2271   2273     1   117.6800502 383.254400
   2273   2275   2277     1   109.5600471 388.275200
   2273   2275   2278     1   109.5600471 388.275200
   2274   2273   2275     1   109.5600471 388.275200
   2274   2273   2276     1   108.4600466 328.025600
   2275   2273   2276     1   109.5600471 388.275200
   2277   2275   2279     1   109.8800469 414.216000
   2277   2275   2278     1   108.4600466 328.025600
   2278   2275   2279     1   109.8800469 414.216000
   2279   2280   2289     1   109.8800469 414.216000
   2279   2280   2290     1   109.8800469 414.216000
   2279   2281   2282     1   109.8800469 414.216000
   2279   2281   2284     1   109.8800469 414.216000
   2280   2291   2292     1   109.8000471 387.438400
   2280   2291   2293     1   109.8000471 387.438400
   2281   2283   2285     1   109.8000471 387.438400
   2281   2283   2286     1   109.8000471 387.438400
   2282   2281   2283     1   109.5600471 388.275200
   2282   2281   2284     1   108.4600466 328.025600
   2283   2281   2284     1   109.5600471 388.275200
   2285   2283   2287     1   108.7700466 392.459200
   2285   2283   2286     1   107.5800459 329.699200
   2286   2283   2287     1   108.7700466 392.459200
   2287   2319   2309     1   119.3800509 410.868800
   2289   2280   2291     1   109.5600471 388.275200
   2289   2280   2290     1   108.4600466 328.025600
   2290   2280   2291     1   109.5600471 388.275200
   2292   2291   2294     1   108.7700466 392.459200
   2292   2291   2293     1   107.5800459 329.699200
   2293   2291   2294     1   108.7700466 392.459200
   2294   2343   2333     1   119.3800509 410.868800
   2296   2297   2316     1   109.5600471 388.275200
   2296   2307   2310     1   109.5600471 388.275200
   2296   2307   2311     1   109.5600471 388.275200
   2297   2296   2298     1   109.5600471 388.275200
   2297   2299   2303     1   109.5600471 388.275200
   2297   2317   2318     1   107.2600461 396.643200
   2298   2296   2307     1   109.5600471 388.275200
   2298   2296   2314     1   109.7800468 425.094400
   2299   2297   2316     1   109.5600471 388.275200
   2299   2300   2302     1   109.5600471 388.275200
   2299   2306   2308     1   107.2600461 396.643200
   2300   2299   2303     1   109.5600471 388.275200
   2300   2301   2304     1   110.2200475 386.601600
   2300   2319   2309     1   109.2900470 396.643200
   2301   2300   2302     1   109.5600471 388.275200
   2301   2305   2315     1   107.2600461 396.643200
   2302   2300   2319     1   109.8800469 414.216000
   2303   2299   2306     1   110.2600474 425.931200
   2304   2301   2305     1   109.4300470 427.604800
   2304   2301   2314     1   109.5800467 425.931200
   2307   2312   2313     1   107.2600461 396.643200
   2310   2307   2312     1   110.2600474 425.931200
   2310   2307   2311     1   108.4600466 328.025600
   2311   2307   2312     1   110.2600474 425.931200
   2316   2297   2317     1   110.2600474 425.931200
   2320   2321   2340     1   109.5600471 388.275200
   2320   2331   2334     1   109.5600471 388.275200
   2320   2331   2335     1   109.5600471 388.275200
   2321   2320   2322     1   109.5600471 388.275200
   2321   2323   2327     1   109.5600471 388.275200
   2321   2341   2342     1   107.2600461 396.643200
   2322   2320   2331     1   109.5600471 388.275200
   2322   2320   2338     1   109.7800468 425.094400
   2323   2321   2340     1   109.5600471 388.275200
   2323   2324   2326     1   109.5600471 388.275200
   2323   2330   2332     1   107.2600461 396.643200
   2324   2323   2327     1   109.5600471 388.275200
   2324   2325   2328     1   110.2200475 386.601600
   2324   2343   2333     1   109.2900470 396.643200
   2325   2324   2326     1   109.5600471 388.275200
   2325   2329   2339     1   107.2600461 396.643200
   2326   2324   2343     1   109.8800469 414.216000
   2327   2323   2330     1   110.2600474 425.931200
   2328   2325   2329     1   109.4300470 427.604800
   2328   2325   2338     1   109.5800467 425.931200
   2331   2336   2337     1   107.2600461 396.643200
   2334   2331   2336     1   110.2600474 425.931200
   2334   2331   2335     1   108.4600466 328.025600
   2335   2331   2336     1   110.2600474 425.931200
   2340   2321   2341     1   110.2600474 425.931200
   2344   2346   2347     1   108.8800464 416.726400
   2344   2346   2349     1   108.8800464 416.726400
   2345   2344   2346     1   117.6800502 383.254400
   2346   2348   2350     1   109.5600471 388.275200
   2346   2348   2351     1   109.5600471 388.275200
   2347   2346   2348     1   109.5600471 388.275200
   2347   2346   2349     1   108.4600466 328.025600
   2348   2346   2349     1   109.5600471 388.275200
   2350   2348   2352     1   109.8800469 414.216000
   2350   2348   2351     1   108.4600466 328.025600
   2351   2348   2352     1   109.8800469 414.216000
   2352   2353   2362     1   109.8800469 414.216000
   2352   2353   2363     1   109.8800469 414.216000
   2352   2354   2355     1   109.8800469 414.216000
   2352   2354   2357     1   109.8800469 414.216000
   2353   2364   2365     1   109.8000471 387.438400
   2353   2364   2366     1   109.8000471 387.438400
   2354   2356   2358     1   109.8000471 387.438400
   2354   2356   2359     1   109.8000471 387.438400
   2355   2354   2356     1   109.5600471 388.275200
   2355   2354   2357     1   108.4600466 328.025600
   2356   2354   2357     1   109.5600471 388.275200
   2358   2356   2360     1   108.7700466 392.459200
   2358   2356   2359     1   107.5800459 329.699200
   2359   2356   2360     1   108.7700466 392.459200
   2360   2392   2382     1   119.3800509 410.868800
   2362   2353   2364     1   109.5600471 388.275200
   2362   2353   2363     1   108.4600466 328.025600
   2363   2353   2364     1   109.5600471 388.275200
   2365   2364   2367     1   108.7700466 392.459200
   2365   2364   2366     1   107.5800459 329.699200
   2366   2364   2367     1   108.7700466 392.459200
   2367   2416   2406     1   119.3800509 410.868800
   2369   2370   2389     1   109.5600471 388.275200
   2369   2380   2383     1   109.5600471 388.275200
   2369   2380   2384     1   109.5600471 388.275200
   2370   2372   2376     1   109.5600471 388.275200
   2370   2390   2391     1   107.2600461 396.643200
   2370   2369   2371     1   109.5600471 388.275200
   2371   2369   2380     1   109.5600471 388.275200
   2371   2369   2387     1   109.7800468 425.094400
   2372   2373   2375     1   109.5600471 388.275200
   2372   2379   2381     1   107.2600461 396.643200
   2372   2370   2389     1   109.5600471 388.275200
   2373   2374   2377     1   110.2200475 386.601600
   2373   2392   2382     1   109.2900470 396.643200
   2373   2372   2376     1   109.5600471 388.275200
   2374   2378   2388     1   107.2600461 396.643200
   2374   2373   2375     1   109.5600471 388.275200
   2375   2373   2392     1   109.8800469 414.216000
   2376   2372   2379     1   110.2600474 425.931200
   2377   2374   2378     1   109.4300470 427.604800
   2377   2374   2387     1   109.5800467 425.931200
   2380   2385   2386     1   107.2600461 396.643200
   2383   2380   2385     1   110.2600474 425.931200
   2383   2380   2384     1   108.4600466 328.025600
   2384   2380   2385     1   110.2600474 425.931200
   2389   2370   2390     1   110.2600474 425.931200
   2393   2394   2413     1   109.5600471 388.275200
   2393   2404   2407     1   109.5600471 388.275200
   2393   2404   2408     1   109.5600471 388.275200
   2394   2396   2400     1   109.5600471 388.275200
   2394   2414   2415     1   107.2600461 396.643200
   2394   2393   2395     1   109.5600471 388.275200
   2395   2393   2404     1   109.5600471 388.275200
   2395   2393   2411     1   109.7800468 425.094400
   2396   2397   2399     1   109.5600471 388.275200
   2396   2403   2405     1   107.2600461 396.643200
   2396   2394   2413     1   109.5600471 388.275200
   2397   2398   2401     1   110.2200475 386.601600
   2397   2416   2406     1   109.2900470 396.643200
   2397   2396   2400     1   109.5600471 388.275200
   2398   2402   2412     1   107.2600461 396.643200
   2398   2397   2399     1   109.5600471 388.275200
   2399   2397   2416     1   109.8800469 414.216000
   2400   2396   2403     1   110.2600474 425.931200
   2401   2398   2402     1   109.4300470 427.604800
   2401   2398   2411     1   109.5800467 425.931200
   2404   2409   2410     1   107.2600461 396.643200
   2407   2404   2409     1   110.2600474 425.931200
   2407   2404   2408     1   108.4600466 328.025600
   2408   2404   2409     1   110.2600474 425.931200
   2413   2394   2414     1   110.2600474 425.931200
   2417   2419   2420     1   108.8800464 416.726400
   2417   2419   2422     1   108.8800464 416.726400
   2418   2417   2419     1   117.6800502 383.254400
   2419   2421   2423     1   109.5600471 388.275200
   2419   2421   2424     1   109.5600471 388.275200
   2420   2419   2421     1   109.5600471 388.275200
   2420   2419   2422     1   108.4600466 328.025600
   2421   2419   2422     1   109.5600471 388.275200
   2423   2421   2425     1   109.8800469 414.216000
   2423   2421   2424     1   108.4600466 328.025600
   2424   2421   2425     1   109.8800469 414.216000
   2425   2426   2435     1   109.8800469 414.216000
   2425   2426   2436     1   109.8800469 414.216000
   2425   2427   2428     1   109.8800469 414.216000
   2425   2427   2430     1   109.8800469 414.216000
   2426   2437   2438     1   109.8000471 387.438400
   2426   2437   2439     1   109.8000471 387.438400
   2427   2429   2431     1   109.8000471 387.438400
   2427   2429   2432     1   109.8000471 387.438400
   2428   2427   2429     1   109.5600471 388.275200
   2428   2427   2430     1   108.4600466 328.025600
   2429   2427   2430     1   109.5600471 388.275200
   2431   2429   2433     1   108.7700466 392.459200
   2431   2429   2432     1   107.5800459 329.699200
   2432   2429   2433     1   108.7700466 392.459200
   2433   2465   2455     1   119.3800509 410.868800
   2435   2426   2437     1   109.5600471 388.275200
   2435   2426   2436     1   108.4600466 328.025600
   2436   2426   2437     1   109.5600471 388.275200
   2438   2437   2440     1   108.7700466 392.459200
   2438   2437   2439     1   107.5800459 329.699200
   2439   2437   2440     1   108.7700466 392.459200
   2440   2489   2479     1   119.3800509 410.868800
   2442   2443   2462     1   109.5600471 388.275200
   2442   2453   2456     1   109.5600471 388.275200
   2442   2453   2457     1   109.5600471 388.275200
   2443   2442   2444     1   109.5600471 388.275200
   2443   2445   2449     1   109.5600471 388.275200
   2443   2463   2464     1   107.2600461 396.643200
   2444   2442   2453     1   109.5600471 388.275200
   2444   2442   2460     1   109.7800468 425.094400
   2445   2443   2462     1   109.5600471 388.275200
   2445   2446   2448     1   109.5600471 388.275200
   2445   2452   2454     1   107.2600461 396.643200
   2446   2445   2449     1   109.5600471 388.275200
   2446   2447   2450     1   110.2200475 386.601600
   2446   2465   2455     1   109.2900470 396.643200
   2447   2446   2448     1   109.5600471 388.275200
   2447   2451   2461     1   107.2600461 396.643200
   2448   2446   2465     1   109.8800469 414.216000
   2449   2445   2452     1   110.2600474 425.931200
   2450   2447   2451     1   109.4300470 427.604800
   2450   2447   2460     1   109.5800467 425.931200
   2453   2458   2459     1   107.2600461 396.643200
   2456   2453   2458     1   110.2600474 425.931200
   2456   2453   2457     1   108.4600466 328.025600
   2457   2453   2458     1   110.2600474 425.931200
   2462   2443   2463     1   110.2600474 425.931200
   2466   2467   2486     1   109.5600471 388.275200
   2466   2477   2480     1   109.5600471 388.275200
   2466   2477   2481     1   109.5600471 388.275200
   2467   2466   2468     1   109.5600471 388.275200
   2467   2469   2473     1   109.5600471 388.275200
   2467   2487   2488     1   107.2600461 396.643200
   2468   2466   2477     1   109.5600471 388.275200
   2468   2466   2484     1   109.7800468 425.094400
   2469   2467   2486     1   109.5600471 388.275200
   2469   2470   2472     1   109.5600471 388.275200
   2469   2476   2478     1   107.2600461 396.643200
   2470   2469   2473     1   109.5600471 388.275200
   2470   2471   2474     1   110.2200475 386.601600
   2470   2489   2479     1   109.2900470 396.643200
   2471   2470   2472     1   109.5600471 388.275200
   2471   2475   2485     1   107.2600461 396.643200
   2472   2470   2489     1   109.8800469 414.216000
   2473   2469   2476     1   110.2600474 425.931200
   2474   2471   2475     1   109.4300470 427.604800
   2474   2471   2484     1   109.5800467 425.931200
   2477   2482   2483     1   107.2600461 396.643200
   2480   2477   2482     1   110.2600474 425.931200
   2480   2477   2481     1   108.4600466 328.025600
   2481   2477   2482     1   110.2600474 425.931200
   2486   2467   2487     1   110.2600474 425.931200
   2490   2492   2493     1   108.8800464 416.726400
   2490   2492   2495     1   108.8800464 416.726400
   2491   2490   2492     1   117.6800502 383.254400
   2492   2494   2496     1   109.5600471 388.275200
   2492   2494   2497     1   109.5600471 388.275200
   2493   2492   2494     1   109.5600471 388.275200
   2493   2492   2495     1   108.4600466 328.025600
   2494   2492   2495     1   109.5600471 388.275200
   2496   2494   2498     1   109.8800469 414.216000
   2496   2494   2497     1   108.4600466 328.025600
   2497   2494   2498     1   109.8800469 414.216000
   2498   2499   2508     1   109.8800469 414.216000
   2498   2499   2509     1   109.8800469 414.216000
   2498   2500   2501     1   109.8800469 414.216000
   2498   2500   2503     1   109.8800469 414.216000
   2499   2510   2511     1   109.8000471 387.438400
   2499   2510   2512     1   109.8000471 387.438400
   2500   2502   2504     1   109.8000471 387.438400
   2500   2502   2505     1   109.8000471 387.438400
   2501   2500   2502     1   109.5600471 388.275200
   2501   2500   2503     1   108.4600466 328.025600
   2502   2500   2503     1   109.5600471 388.275200
   2504   2502   2506     1   108.7700466 392.459200
   2504   2502   2505     1   107.5800459 329.699200
   2505   2502   2506     1   108.7700466 392.459200
   2506   2538   2528     1   119.3800509 410.868800
   2508   2499   2510     1   109.5600471 388.275200
   2508   2499   2509     1   108.4600466 328.025600
   2509   2499   2510     1   109.5600471 388.275200
   2511   2510   2513     1   108.7700466 392.459200
   2511   2510   2512     1   107.5800459 329.699200
   2512   2510   2513     1   108.7700466 392.459200
   2513   2562   2552     1   119.3800509 410.868800
   2515   2516   2535     1   109.5600471 388.275200
   2515   2526   2529     1   109.5600471 388.275200
   2515   2526   2530     1   109.5600471 388.275200
   2516   2518   2522     1   109.5600471 388.275200
   2516   2536   2537     1   107.2600461 396.643200
   2516   2515   2517     1   109.5600471 388.275200
   2517   2515   2526     1   109.5600471 388.275200
   2517   2515   2533     1   109.7800468 425.094400
   2518   2519   2521     1   109.5600471 388.275200
   2518   2525   2527     1   107.2600461 396.643200
   2518   2516   2535     1   109.5600471 388.275200
   2519   2520   2523     1   110.2200475 386.601600
   2519   2538   2528     1   109.2900470 396.643200
   2519   2518   2522     1   109.5600471 388.275200
   2520   2524   2534     1   107.2600461 396.643200
   2520   2519   2521     1   109.5600471 388.275200
   2521   2519   2538     1   109.8800469 414.216000
   2522   2518   2525     1   110.2600474 425.931200
   2523   2520   2524     1   109.4300470 427.604800
   2523   2520   2533     1   109.5800467 425.931200
   2526   2531   2532     1   107.2600461 396.643200
   2529   2526   2531     1   110.2600474 425.931200
   2529   2526   2530     1   108.4600466 328.025600
   2530   2526   2531     1   110.2600474 425.931200
   2535   2516   2536     1   110.2600474 425.931200
   2539   2540   2559     1   109.5600471 388.275200
   2539   2550   2553     1   109.5600471 388.275200
   2539   2550   2554     1   109.5600471 388.275200
   2540   2542   2546     1   109.5600471 388.275200
   2540   2560   2561     1   107.2600461 396.643200
   2540   2539   2541     1   109.5600471 388.275200
   2541   2539   2550     1   109.5600471 388.275200
   2541   2539   2557     1   109.7800468 425.094400
   2542   2543   2545     1   109.5600471 388.275200
   2542   2549   2551     1   107.2600461 396.643200
   2542   2540   2559     1   109.5600471 388.275200
   2543   2544   2547     1   110.2200475 386.601600
   2543   2562   2552     1   109.2900470 396.643200
   2543   2542   2546     1   109.5600471 388.275200
   2544   2548   2558     1   107.2600461 396.643200
   2544   2543   2545     1   109.5600471 388.275200
   2545   2543   2562     1   109.8800469 414.216000
   2546   2542   2549     1   110.2600474 425.931200
   2547   2544   2548     1   109.4300470 427.604800
   2547   2544   2557     1   109.5800467 425.931200
   2550   2555   2556     1   107.2600461 396.643200
   2553   2550   2555     1   110.2600474 425.931200
   2553   2550   2554     1   108.4600466 328.025600
   2554   2550   2555     1   110.2600474 425.931200
   2559   2540   2560     1   110.2600474 425.931200
   2563   2565   2566     1   108.8800464 416.726400
   2563   2565   2568     1   108.8800464 416.726400
   2564   2563   2565     1   117.6800502 383.254400
   2565   2567   2569     1   109.5600471 388.275200
   2565   2567   2570     1   109.5600471 388.275200
   2566   2565   2567     1   109.5600471 388.275200
   2566   2565   2568     1   108.4600466 328.025600
   2567   2565   2568     1   109.5600471 388.275200
   2569   2567   2571     1   109.8800469 414.216000
   2569   2567   2570     1   108.4600466 328.025600
   2570   2567   2571     1   109.8800469 414.216000
   2571   2572   2581     1   109.8800469 414.216000
   2571   2572   2582     1   109.8800469 414.216000
   2571   2573   2574     1   109.8800469 414.216000
   2571   2573   2576     1   109.8800469 414.216000
   2572   2583   2584     1   109.8000471 387.438400
   2572   2583   2585     1   109.8000471 387.438400
   2573   2575   2577     1   109.8000471 387.438400
   2573   2575   2578     1   109.8000471 387.438400
   2574   2573   2575     1   109.5600471 388.275200
   2574   2573   2576     1   108.4600466 328.025600
   2575   2573   2576     1   109.5600471 388.275200
   2577   2575   2579     1   108.7700466 392.459200
   2577   2575   2578     1   107.5800459 329.699200
   2578   2575   2579     1   108.7700466 392.459200
   2579   2611   2601     1   119.3800509 410.868800
   2581   2572   2583     1   109.5600471 388.275200
   2581   2572   2582     1   108.4600466 328.025600
   2582   2572   2583     1   109.5600471 388.275200
   2584   2583   2586     1   108.7700466 392.459200
   2584   2583   2585     1   107.5800459 329.699200
   2585   2583   2586     1   108.7700466 392.459200
   2586   2635   2625     1   119.3800509 410.868800
   2588   2589   2608     1   109.5600471 388.275200
   2588   2599   2602     1   109.5600471 388.275200
   2588   2599   2603     1   109.5600471 388.275200
   2589   2588   2590     1   109.5600471 388.275200
   2589   2591   2595     1   109.5600471 388.275200
   2589   2609   2610     1   107.2600461 396.643200
   2590   2588   2599     1   109.5600471 388.275200
   2590   2588   2606     1   109.7800468 425.094400
   2591   2589   2608     1   109.5600471 388.275200
   2591   2592   2594     1   109.5600471 388.275200
   2591   2598   2600     1   107.2600461 396.643200
   2592   2591   2595     1   109.5600471 388.275200
   2592   2593   2596     1   110.2200475 386.601600
   2592   2611   2601     1   109.2900470 396.643200
   2593   2592   2594     1   109.5600471 388.275200
   2593   2597   2607     1   107.2600461 396.643200
   2594   2592   2611     1   109.8800469 414.216000
   2595   2591   2598     1   110.2600474 425.931200
   2596   2593   2597     1   109.4300470 427.604800
   2596   2593   2606     1   109.5800467 425.931200
   2599   2604   2605     1   107.2600461 396.643200
   2602   2599   2604     1   110.2600474 425.931200
   2602   2599   2603     1   108.4600466 328.025600
   2603   2599   2604     1   110.2600474 425.931200
   2608   2589   2609     1   110.2600474 425.931200
   2612   2613   2632     1   109.5600471 388.275200
   2612   2623   2626     1   109.5600471 388.275200
   2612   2623   2627     1   109.5600471 388.275200
   2613   2612   2614     1   109.5600471 388.275200
   2613   2615   2619     1   109.5600471 388.275200
   2613   2633   2634     1   107.2600461 396.643200
   2614   2612   2623     1   109.5600471 388.275200
   2614   2612   2630     1   109.7800468 425.094400
   2615   2613   2632     1   109.5600471 388.275200
   2615   2616   2618     1   109.5600471 388.275200
   2615   2622   2624     1   107.2600461 396.643200
   2616   2615   2619     1   109.5600471 388.275200
   2616   2617   2620     1   110.2200475 386.601600
   2616   2635   2625     1   109.2900470 396.643200
   2617   2616   2618     1   109.5600471 388.275200
   2617   2621   2631     1   107.2600461 396.643200
   2618   2616   2635     1   109.8800469 414.216000
   2619   2615   2622     1   110.2600474 425.931200
   2620   2617   2621     1   109.4300470 427.604800
   2620   2617   2630     1   109.5800467 425.931200
   2623   2628   2629     1   107.2600461 396.643200
   2626   2623   2628     1   110.2600474 425.931200
   2626   2623   2627     1   108.4600466 328.025600
   2627   2623   2628     1   110.2600474 425.931200
   2632   2613   2633     1   110.2600474 425.931200
   2636   2638   2639     1   108.8800464 416.726400
   2636   2638   2641     1   108.8800464 416.726400
   2637   2636   2638     1   117.6800502 383.254400
   2638   2640   2642     1   109.5600471 388.275200
   2638   2640   2643     1   109.5600471 388.275200
   2639   2638   2640     1   109.5600471 388.275200
   2639   2638   2641     1   108.4600466 328.025600
   2640   2638   2641     1   109.5600471 388.275200
   2642   2640   2644     1   109.8800469 414.216000
   2642   2640   2643     1   108.4600466 328.025600
   2643   2640   2644     1   109.8800469 414.216000
   2644   2645   2654     1   109.8800469 414.216000
   2644   2645   2655     1   109.8800469 414.216000
   2644   2646   2647     1   109.8800469 414.216000
   2644   2646   2649     1   109.8800469 414.216000
   2645   2656   2657     1   109.8000471 387.438400
   2645   2656   2658     1   109.8000471 387.438400
   2646   2648   2650     1   109.8000471 387.438400
   2646   2648   2651     1   109.8000471 387.438400
   2647   2646   2648     1   109.5600471 388.275200
   2647   2646   2649     1   108.4600466 328.025600
   2648   2646   2649     1   109.5600471 388.275200
   2650   2648   2652     1   108.7700466 392.459200
   2650   2648   2651     1   107.5800459 329.699200
   2651   2648   2652     1   108.7700466 392.459200
   2652   2684   2674     1   119.3800509 410.868800
   2654   2645   2656     1   109.5600471 388.275200
   2654   2645   2655     1   108.4600466 328.025600
   2655   2645   2656     1   109.5600471 388.275200
   2657   2656   2659     1   108.7700466 392.459200
   2657   2656   2658     1   107.5800459 329.699200
   2658   2656   2659     1   108.7700466 392.459200
   2659   2708   2698     1   119.3800509 410.868800
   2661   2662   2681     1   109.5600471 388.275200
   2661   2672   2675     1   109.5600471 388.275200
   2661   2672   2676     1   109.5600471 388.275200
   2662   2664   2668     1   109.5600471 388.275200
   2662   2682   2683     1   107.2600461 396.643200
   2662   2661   2663     1   109.5600471 388.275200
   2663   2661   2672     1   109.5600471 388.275200
   2663   2661   2679     1   109.7800468 425.094400
   2664   2665   2667     1   109.5600471 388.275200
   2664   2671   2673     1   107.2600461 396.643200
   2664   2662   2681     1   109.5600471 388.275200
   2665   2666   2669     1   110.2200475 386.601600
   2665   2684   2674     1   109.2900470 396.643200
   2665   2664   2668     1   109.5600471 388.275200
   2666   2670   2680     1   107.2600461 396.643200
   2666   2665   2667     1   109.5600471 388.275200
   2667   2665   2684     1   109.8800469 414.216000
   2668   2664   2671     1   110.2600474 425.931200
   2669   2666   2670     1   109.4300470 427.604800
   2669   2666   2679     1   109.5800467 425.931200
   2672   2677   2678     1   107.2600461 396.643200
   2675   2672   2677     1   110.2600474 425.931200
   2675   2672   2676     1   108.4600466 328.025600
   2676   2672   2677     1   110.2600474 425.931200
   2681   2662   2682     1   110.2600474 425.931200
   2685   2686   2705     1   109.5600471 388.275200
   2685   2696   2699     1   109.5600471 388.275200
   2685   2696   2700     1   109.5600471 388.275200
   2686   2688   2692     1   109.5600471 388.275200
   2686   2706   2707     1   107.2600461 396.643200
   2686   2685   2687     1   109.5600471 388.275200
   2687   2685   2696     1   109.5600471 388.275200
   2687   2685   2703     1   109.7800468 425.094400
   2688   2689   2691     1   109.5600471 388.275200
   2688   2695   2697     1   107.2600461 396.643200
   2688   2686   2705     1   109.5600471 388.275200
   2689   2690   2693     1   110.2200475 386.601600
   2689   2708   2698     1   109.2900470 396.643200
   2689   2688   2692     1   109.5600471 388.275200
   2690   2694   2704     1   107.2600461 396.643200
   2690   2689   2691     1   109.5600471 388.275200
   2691   2689   2708     1   109.8800469 414.216000
   2692   2688   2695     1   110.2600474 425.931200
   2693   2690   2694     1   109.4300470 427.604800
   2693   2690   2703     1   109.5800467 425.931200
   2696   2701   2702     1   107.2600461 396.643200
   2699   2696   2701     1   110.2600474 425.931200
   2699   2696   2700     1   108.4600466 328.025600
   2700   2696   2701     1   110.2600474 425.931200
   2705   2686   2706     1   110.2600474 425.931200
   2709   2711   2712     1   108.8800464 416.726400
   2709   2711   2714     1   108.8800464 416.726400
   2710   2709   2711     1   117.6800502 383.254400
   2711   2713   2715     1   109.5600471 388.275200
   2711   2713   2716     1   109.5600471 388.275200
   2712   2711   2713     1   109.5600471 388.275200
   2712   2711   2714     1   108.4600466 328.025600
   2713   2711   2714     1   109.5600471 388.275200
   2715   2713   2717     1   109.8800469 414.216000
   2715   2713   2716     1   108.4600466 328.025600
   2716   2713   2717     1   109.8800469 414.216000
   2717   2718   2727     1   109.8800469 414.216000
   2717   2718   2728     1   109.8800469 414.216000
   2717   2719   2720     1   109.8800469 414.216000
   2717   2719   2722     1   109.8800469 414.216000
   2718   2729   2730     1   109.8000471 387.438400
   2718   2729   2731     1   109.8000471 387.438400
   2719   2721   2723     1   109.8000471 387.438400
   2719   2721   2724     1   109.8000471 387.438400
   2720   2719   2721     1   109.5600471 388.275200
   2720   2719   2722     1   108.4600466 328.025600
   2721   2719   2722     1   109.5600471 388.275200
   2723   2721   2725     1   108.7700466 392.459200
   2723   2721   2724     1   107.5800459 329.699200
   2724   2721   2725     1   108.7700466 392.459200
   2725   2757   2747     1   119.3800509 410.868800
   2727   2718   2729     1   109.5600471 388.275200
   2727   2718   2728     1   108.4600466 328.025600
   2728   2718   2729     1   109.5600471 388.275200
   2730   2729   2732     1   108.7700466 392.459200
   2730   2729   2731     1   107.5800459 329.699200
   2731   2729   2732     1   108.7700466 392.459200
   2732   2781   2771     1   119.3800509 410.868800
   2734   2735   2754     1   109.5600471 388.275200
   2734   2745   2748     1   109.5600471 388.275200
   2734   2745   2749     1   109.5600471 388.275200
   2735   2734   2736     1   109.5600471 388.275200
   2735   2737   2741     1   109.5600471 388.275200
   2735   2755   2756     1   107.2600461 396.643200
   2736   2734   2745     1   109.5600471 388.275200
   2736   2734   2752     1   109.7800468 425.094400
   2737   2735   2754     1   109.5600471 388.275200
   2737   2738   2740     1   109.5600471 388.275200
   2737   2744   2746     1   107.2600461 396.643200
   2738   2737   2741     1   109.5600471 388.275200
   2738   2739   2742     1   110.2200475 386.601600
   2738   2757   2747     1   109.2900470 396.643200
   2739   2738   2740     1   109.5600471 388.275200
   2739   2743   2753     1   107.2600461 396.643200
   2740   2738   2757     1   109.8800469 414.216000
   2741   2737   2744     1   110.2600474 425.931200
   2742   2739   2743     1   109.4300470 427.604800
   2742   2739   2752     1   109.5800467 425.931200
   2745   2750   2751     1   107.2600461 396.643200
   2748   2745   2750     1   110.2600474 425.931200
   2748   2745   2749     1   108.4600466 328.025600
   2749   2745   2750     1   110.2600474 425.931200
   2754   2735   2755     1   110.2600474 425.931200
   2758   2759   2778     1   109.5600471 388.275200
   2758   2769   2772     1   109.5600471 388.275200
   2758   2769   2773     1   109.5600471 388.275200
   2759   2758   2760     1   109.5600471 388.275200
   2759   2761   2765     1   109.5600471 388.275200
   2759   2779   2780     1   107.2600461 396.643200
   2760   2758   2769     1   109.5600471 388.275200
   2760   2758   2776     1   109.7800468 425.094400
   2761   2759   2778     1   109.5600471 388.275200
   2761   2762   2764     1   109.5600471 388.275200
   2761   2768   2770     1   107.2600461 396.643200
   2762   2761   2765     1   109.5600471 388.275200
   2762   2763   2766     1   110.2200475 386.601600
   2762   2781   2771     1   109.2900470 396.643200
   2763   2762   2764     1   109.5600471 388.275200
   2763   2767   2777     1   107.2600461 396.643200
   2764   2762   2781     1   109.8800469 414.216000
   2765   2761   2768     1   110.2600474 425.931200
   2766   2763   2767     1   109.4300470 427.604800
   2766   2763   2776     1   109.5800467 425.931200
   2769   2774   2775     1   107.2600461 396.643200
   2772   2769   2774     1   110.2600474 425.931200
   2772   2769   2773     1   108.4600466 328.025600
   2773   2769   2774     1   110.2600474 425.931200
   2778   2759   2779     1   110.2600474 425.931200
   2782   2784   2785     1   108.8800464 416.726400
   2782   2784   2787     1   108.8800464 416.726400
   2783   2782   2784     1   117.6800502 383.254400
   2784   2786   2788     1   109.5600471 388.275200
   2784   2786   2789     1   109.5600471 388.275200
   2785   2784   2786     1   109.5600471 388.275200
   2785   2784   2787     1   108.4600466 328.025600
   2786   2784   2787     1   109.5600471 388.275200
   2788   2786   2790     1   109.8800469 414.216000
   2788   2786   2789     1   108.4600466 328.025600
   2789   2786   2790     1   109.8800469 414.216000
   2790   2791   2800     1   109.8800469 414.216000
   2790   2791   2801     1   109.8800469 414.216000
   2790   2792   2793     1   109.8800469 414.216000
   2790   2792   2795     1   109.8800469 414.216000
   2791   2802   2803     1   109.8000471 387.438400
   2791   2802   2804     1   109.8000471 387.438400
   2792   2794   2796     1   109.8000471 387.438400
   2792   2794   2797     1   109.8000471 387.438400
   2793   2792   2794     1   109.5600471 388.275200
   2793   2792   2795     1   108.4600466 328.025600
   2794   2792   2795     1   109.5600471 388.275200
   2796   2794   2798     1   108.7700466 392.459200
   2796   2794   2797     1   107.5800459 329.699200
   2797   2794   2798     1   108.7700466 392.459200
   2798   2830   2820     1   119.3800509 410.868800
   2800   2791   2802     1   109.5600471 388.275200
   2800   2791   2801     1   108.4600466 328.025600
   2801   2791   2802     1   109.5600471 388.275200
   2803   2802   2805     1   108.7700466 392.459200
   2803   2802   2804     1   107.5800459 329.699200
   2804   2802   2805     1   108.7700466 392.459200
   2805   2854   2844     1   119.3800509 410.868800
   2807   2808   2827     1   109.5600471 388.275200
   2807   2818   2821     1   109.5600471 388.275200
   2807   2818   2822     1   109.5600471 388.275200
   2808   2810   2814     1   109.5600471 388.275200
   2808   2828   2829     1   107.2600461 396.643200
   2808   2807   2809     1   109.5600471 388.275200
   2809   2807   2818     1   109.5600471 388.275200
   2809   2807   2825     1   109.7800468 425.094400
   2810   2811   2813     1   109.5600471 388.275200
   2810   2817   2819     1   107.2600461 396.643200
   2810   2808   2827     1   109.5600471 388.275200
   2811   2812   2815     1   110.2200475 386.601600
   2811   2830   2820     1   109.2900470 396.643200
   2811   2810   2814     1   109.5600471 388.275200
   2812   2816   2826     1   107.2600461 396.643200
   2812   2811   2813     1   109.5600471 388.275200
   2813   2811   2830     1   109.8800469 414.216000
   2814   2810   2817     1   110.2600474 425.931200
   2815   2812   2816     1   109.4300470 427.604800
   2815   2812   2825     1   109.5800467 425.931200
   2818   2823   2824     1   107.2600461 396.643200
   2821   2818   2823     1   110.2600474 425.931200
   2821   2818   2822     1   108.4600466 328.025600
   2822   2818   2823     1   110.2600474 425.931200
   2827   2808   2828     1   110.2600474 425.931200
   2831   2832   2851     1   109.5600471 388.275200
   2831   2842   2845     1   109.5600471 388.275200
   2831   2842   2846     1   109.5600471 388.275200
   2832   2834   2838     1   109.5600471 388.275200
   2832   2852   2853     1   107.2600461 396.643200
   2832   2831   2833     1   109.5600471 388.275200
   2833   2831   2842     1   109.5600471 388.275200
   2833   2831   2849     1   109.7800468 425.094400
   2834   2835   2837     1   109.5600471 388.275200
   2834   2841   2843     1   107.2600461 396.643200
   2834   2832   2851     1   109.5600471 388.275200
   2835   2836   2839     1   110.2200475 386.601600
   2835   2854   2844     1   109.2900470 396.643200
   2835   2834   2838     1   109.5600471 388.275200
   2836   2840   2850     1   107.2600461 396.643200
   2836   2835   2837     1   109.5600471 388.275200
   2837   2835   2854     1   109.8800469 414.216000
   2838   2834   2841     1   110.2600474 425.931200
   2839   2836   2840     1   109.4300470 427.604800
   2839   2836   2849     1   109.5800467 425.931200
   2842   2847   2848     1   107.2600461 396.643200
   2845   2842   2847     1   110.2600474 425.931200
   2845   2842   2846     1   108.4600466 328.025600
   2846   2842   2847     1   110.2600474 425.931200
   2851   2832   2852     1   110.2600474 425.931200
   2855   2857   2858     1   108.8800464 416.726400
   2855   2857   2860     1   108.8800464 416.726400
   2856   2855   2857     1   117.6800502 383.254400
   2857   2859   2861     1   109.5600471 388.275200
   2857   2859   2862     1   109.5600471 388.275200
   2858   2857   2859     1   109.5600471 388.275200
   2858   2857   2860     1   108.4600466 328.025600
   2859   2857   2860     1   109.5600471 388.275200
   2861   2859   2863     1   109.8800469 414.216000
   2861   2859   2862     1   108.4600466 328.025600
   2862   2859   2863     1   109.8800469 414.216000
   2863   2864   2873     1   109.8800469 414.216000
   2863   2864   2874     1   109.8800469 414.216000
   2863   2865   2866     1   109.8800469 414.216000
   2863   2865   2868     1   109.8800469 414.216000
   2864   2875   2876     1   109.8000471 387.438400
   2864   2875   2877     1   109.8000471 387.438400
   2865   2867   2869     1   109.8000471 387.438400
   2865   2867   2870     1   109.8000471 387.438400
   2866   2865   2867     1   109.5600471 388.275200
   2866   2865   2868     1   108.4600466 328.025600
   2867   2865   2868     1   109.5600471 388.275200
   2869   2867   2871     1   108.7700466 392.459200
   2869   2867   2870     1   107.5800459 329.699200
   2870   2867   2871     1   108.7700466 392.459200
   2871   2903   2893     1   119.3800509 410.868800
   2873   2864   2875     1   109.5600471 388.275200
   2873   2864   2874     1   108.4600466 328.025600
   2874   2864   2875     1   109.5600471 388.275200
   2876   2875   2878     1   108.7700466 392.459200
   2876   2875   2877     1   107.5800459 329.699200
   2877   2875   2878     1   108.7700466 392.459200
   2878   2927   2917     1   119.3800509 410.868800
   2880   2881   2900     1   109.5600471 388.275200
   2880   2891   2894     1   109.5600471 388.275200
   2880   2891   2895     1   109.5600471 388.275200
   2881   2880   2882     1   109.5600471 388.275200
   2881   2883   2887     1   109.5600471 388.275200
   2881   2901   2902     1   107.2600461 396.643200
   2882   2880   2891     1   109.5600471 388.275200
   2882   2880   2898     1   109.7800468 425.094400
   2883   2881   2900     1   109.5600471 388.275200
   2883   2884   2886     1   109.5600471 388.275200
   2883   2890   2892     1   107.2600461 396.643200
   2884   2883   2887     1   109.5600471 388.275200
   2884   2885   2888     1   110.2200475 386.601600
   2884   2903   2893     1   109.2900470 396.643200
   2885   2884   2886     1   109.5600471 388.275200
   2885   2889   2899     1   107.2600461 396.643200
   2886   2884   2903     1   109.8800469 414.216000
   2887   2883   2890     1   110.2600474 425.931200
   2888   2885   2889     1   109.4300470 427.604800
   2888   2885   2898     1   109.5800467 425.931200
   2891   2896   2897     1   107.2600461 396.643200
   2894   2891   2896     1   110.2600474 425.931200
   2894   2891   2895     1   108.4600466 328.025600
   2895   2891   2896     1   110.2600474 425.931200
   2900   2881   2901     1   110.2600474 425.931200
   2904   2905   2924     1   109.5600471 388.275200
   2904   2915   2918     1   109.5600471 388.275200
   2904   2915   2919     1   109.5600471 388.275200
   2905   2904   2906     1   109.5600471 388.275200
   2905   2907   2911     1   109.5600471 388.275200
   2905   2925   2926     1   107.2600461 396.643200
   2906   2904   2915     1   109.5600471 388.275200
   2906   2904   2922     1   109.7800468 425.094400
   2907   2905   2924     1   109.5600471 388.275200
   2907   2908   2910     1   109.5600471 388.275200
   2907   2914   2916     1   107.2600461 396.643200
   2908   2907   2911     1   109.5600471 388.275200
   2908   2909   2912     1   110.2200475 386.601600
   2908   2927   2917     1   109.2900470 396.643200
   2909   2908   2910     1   109.5600471 388.275200
   2909   2913   2923     1   107.2600461 396.643200
   2910   2908   2927     1   109.8800469 414.216000
   2911   2907   2914     1   110.2600474 425.931200
   2912   2909   2913     1   109.4300470 427.604800
   2912   2909   2922     1   109.5800467 425.931200
   2915   2920   2921     1   107.2600461 396.643200
   2918   2915   2920     1   110.2600474 425.931200
   2918   2915   2919     1   108.4600466 328.025600
   2919   2915   2920     1   110.2600474 425.931200
   2924   2905   2925     1   110.2600474 425.931200
   2928   2930   2931     1   108.8800464 416.726400
   2928   2930   2933     1   108.8800464 416.726400
   2929   2928   2930     1   117.6800502 383.254400
   2930   2932   2934     1   109.5600471 388.275200
   2930   2932   2935     1   109.5600471 388.275200
   2931   2930   2932     1   109.5600471 388.275200
   2931   2930   2933     1   108.4600466 328.025600
   2932   2930   2933     1   109.5600471 388.275200
   2934   2932   2936     1   109.8800469 414.216000
   2934   2932   2935     1   108.4600466 328.025600
   2935   2932   2936     1   109.8800469 414.216000
   2936   2937   2946     1   109.8800469 414.216000
   2936   2937   2947     1   109.8800469 414.216000
   2936   2938   2939     1   109.8800469 414.216000
   2936   2938   2941     1   109.8800469 414.216000
   2937   2948   2949     1   109.8000471 387.438400
   2937   2948   2950     1   109.8000471 387.438400
   2938   2940   2942     1   109.8000471 387.438400
   2938   2940   2943     1   109.8000471 387.438400
   2939   2938   2940     1   109.5600471 388.275200
   2939   2938   2941     1   108.4600466 328.025600
   2940   2938   2941     1   109.5600471 388.275200
   2942   2940   2944     1   108.7700466 392.459200
   2942   2940   2943     1   107.5800459 329.699200
   2943   2940   2944     1   108.7700466 392.459200
   2944   2976   2966     1   119.3800509 410.868800
   2946   2937   2948     1   109.5600471 388.275200
   2946   2937   2947     1   108.4600466 328.025600
   2947   2937   2948     1   109.5600471 388.275200
   2949   2948   2951     1   108.7700466 392.459200
   2949   2948   2950     1   107.5800459 329.699200
   2950   2948   2951     1   108.7700466 392.459200
   2951   3000   2990     1   119.3800509 410.868800
   2953   2954   2973     1   109.5600471 388.275200
   2953   2964   2967     1   109.5600471 388.275200
   2953   2964   2968     1   109.5600471 388.275200
   2954   2956   2960     1   109.5600471 388.275200
   2954   2974   2975     1   107.2600461 396.643200
   2954   2953   2955     1   109.5600471 388.275200
   2955   2953   2964     1   109.5600471 388.275200
   2955   2953   2971     1   109.7800468 425.094400
   2956   2957   2959     1   109.5600471 388.275200
   2956   2963   2965     1   107.2600461 396.643200
   2956   2954   2973     1   109.5600471 388.275200
   2957   2958   2961     1   110.2200475 386.601600
   2957   2976   2966     1   109.2900470 396.643200
   2957   2956   2960     1   109.5600471 388.275200
   2958   2962   2972     1   107.2600461 396.643200
   2958   2957   2959     1   109.5600471 388.275200
   2959   2957   2976     1   109.8800469 414.216000
   2960   2956   2963     1   110.2600474 425.931200
   2961   2958   2962     1   109.4300470 427.604800
   2961   2958   2971     1   109.5800467 425.931200
   2964   2969   2970     1   107.2600461 396.643200
   2967   2964   2969     1   110.2600474 425.931200
   2967   2964   2968     1   108.4600466 328.025600
   2968   2964   2969     1   110.2600474 425.931200
   2973   2954   2974     1   110.2600474 425.931200
   2977   2978   2997     1   109.5600471 388.275200
   2977   2988   2991     1   109.5600471 388.275200
   2977   2988   2992     1   109.5600471 388.275200
   2978   2980   2984     1   109.5600471 388.275200
   2978   2998   2999     1   107.2600461 396.643200
   2978   2977   2979     1   109.5600471 388.275200
   2979   2977   2988     1   109.5600471 388.275200
   2979   2977   2995     1   109.7800468 425.094400
   2980   2981   2983     1   109.5600471 388.275200
   2980   2987   2989     1   107.2600461 396.643200
   2980   2978   2997     1   109.5600471 388.275200
   2981   2982   2985     1   110.2200475 386.601600
   2981   3000   2990     1   109.2900470 396.643200
   2981   2980   2984     1   109.5600471 388.275200
   2982   2986   2996     1   107.2600461 396.643200
   2982   2981   2983     1   109.5600471 388.275200
   2983   2981   3000     1   109.8800469 414.216000
   2984   2980   2987     1   110.2600474 425.931200
   2985   2982   2986     1   109.4300470 427.604800
   2985   2982   2995     1   109.5800467 425.931200
   2988   2993   2994     1   107.2600461 396.643200
   2991   2988   2993     1   110.2600474 425.931200
   2991   2988   2992     1   108.4600466 328.025600
   2992   2988   2993     1   110.2600474 425.931200
   2997   2978   2998     1   110.2600474 425.931200
   3001   3003   3004     1   108.8800464 416.726400
   3001   3003   3006     1   108.8800464 416.726400
   3002   3001   3003     1   117.6800502 383.254400
   3003   3005   3007     1   109.5600471 388.275200
   3003   3005   3008     1   109.5600471 388.275200
   3004   3003   3005     1   109.5600471 388.275200
   3004   3003   3006     1   108.4600466 328.025600
   3005   3003   3006     1   109.5600471 388.275200
   3007   3005   3009     1   109.8800469 414.216000
   3007   3005   3008     1   108.4600466 328.025600
   3008   3005   3009     1   109.8800469 414.216000
   3009   3010   3019     1   109.8800469 414.216000
   3009   3010   3020     1   109.8800469 414.216000
   3009   3011   3012     1   109.8800469 414.216000
   3009   3011   3014     1   109.8800469 414.216000
   3010   3021   3022     1   109.8000471 387.438400
   3010   3021   3023     1   109.8000471 387.438400
   3011   3013   3015     1   109.8000471 387.438400
   3011   3013   3016     1   109.8000471 387.438400
   3012   3011   3013     1   109.5600471 388.275200
   3012   3011   3014     1   108.4600466 328.025600
   3013   3011   3014     1   109.5600471 388.275200
   3015   3013   3017     1   108.7700466 392.459200
   3015   3013   3016     1   107.5800459 329.699200
   3016   3013   3017     1   108.7700466 392.459200
   3017   3049   3039     1   119.3800509 410.868800
   3019   3010   3021     1   109.5600471 388.275200
   3019   3010   3020     1   108.4600466 328.025600
   3020   3010   3021     1   109.5600471 388.275200
   3022   3021   3024     1   108.7700466 392.459200
   3022   3021   3023     1   107.5800459 329.699200
   3023   3021   3024     1   108.7700466 392.459200
   3024   3073   3063     1   119.3800509 410.868800
   3026   3027   3046     1   109.5600471 388.275200
   3026   3037   3040     1   109.5600471 388.275200
   3026   3037   3041     1   109.5600471 388.275200
   3027   3026   3028     1   109.5600471 388.275200
   3027   3029   3033     1   109.5600471 388.275200
   3027   3047   3048     1   107.2600461 396.643200
   3028   3026   3037     1   109.5600471 388.275200
   3028   3026   3044     1   109.7800468 425.094400
   3029   3027   3046     1   109.5600471 388.275200
   3029   3030   3032     1   109.5600471 388.275200
   3029   3036   3038     1   107.2600461 396.643200
   3030   3029   3033     1   109.5600471 388.275200
   3030   3031   3034     1   110.2200475 386.601600
   3030   3049   3039     1   109.2900470 396.643200
   3031   3030   3032     1   109.5600471 388.275200
   3031   3035   3045     1   107.2600461 396.643200
   3032   3030   3049     1   109.8800469 414.216000
   3033   3029   3036     1   110.2600474 425.931200
   3034   3031   3035     1   109.4300470 427.604800
   3034   3031   3044     1   109.5800467 425.931200
   3037   3042   3043     1   107.2600461 396.643200
   3040   3037   3042     1   110.2600474 425.931200
   3040   3037   3041     1   108.4600466 328.025600
   3041   3037   3042     1   110.2600474 425.931200
   3046   3027   3047     1   110.2600474 425.931200
   3050   3051   3070     1   109.5600471 388.275200
   3050   3061   3064     1   109.5600471 388.275200
   3050   3061   3065     1   109.5600471 388.275200
   3051   3050   3052     1   109.5600471 388.275200
   3051   3053   3057     1   109.5600471 388.275200
   3051   3071   3072     1   107.2600461 396.643200
   3052   3050   3061     1   109.5600471 388.275200
   3052   3050   3068     1   109.7800468 425.094400
   3053   3051   3070     1   109.5600471 388.275200
   3053   3054   3056     1   109.5600471 388.275200
   3053   3060   3062     1   107.2600461 396.643200
   3054   3053   3057     1   109.5600471 388.275200
   3054   3055   3058     1   110.2200475 386.601600
   3054   3073   3063     1   109.2900470 396.643200
   3055   3054   3056     1   109.5600471 388.275200
   3055   3059   3069     1   107.2600461 396.643200
   3056   3054   3073     1   109.8800469 414.216000
   3057   3053   3060     1   110.2600474 425.931200
   3058   3055   3059     1   109.4300470 427.604800
   3058   3055   3068     1   109.5800467 425.931200
   3061   3066   3067     1   107.2600461 396.643200
   3064   3061   3066     1   110.2600474 425.931200
   3064   3061   3065     1   108.4600466 328.025600
   3065   3061   3066     1   110.2600474 425.931200
   3070   3051   3071     1   110.2600474 425.931200
   3074   3076   3077     1   108.8800464 416.726400
   3074   3076   3079     1   108.8800464 416.726400
   3075   3074   3076     1   117.6800502 383.254400
   3076   3078   3080     1   109.5600471 388.275200
   3076   3078   3081     1   109.5600471 388.275200
   3077   3076   3078     1   109.5600471 388.275200
   3077   3076   3079     1   108.4600466 328.025600
   3078   3076   3079     1   109.5600471 388.275200
   3080   3078   3082     1   109.8800469 414.216000
   3080   3078   3081     1   108.4600466 328.025600
   3081   3078   3082     1   109.8800469 414.216000
   3082   3083   3092     1   109.8800469 414.216000
   3082   3083   3093     1   109.8800469 414.216000
   3082   3084   3085     1   109.8800469 414.216000
   3082   3084   3087     1   109.8800469 414.216000
   3083   3094   3095     1   109.8000471 387.438400
   3083   3094   3096     1   109.8000471 387.438400
   3084   3086   3088     1   109.8000471 387.438400
   3084   3086   3089     1   109.8000471 387.438400
   3085   3084   3086     1   109.5600471 388.275200
   3085   3084   3087     1   108.4600466 328.025600
   3086   3084   3087     1   109.5600471 388.275200
   3088   3086   3090     1   108.7700466 392.459200
   3088   3086   3089     1   107.5800459 329.699200
   3089   3086   3090     1   108.7700466 392.459200
   3090   3122   3112     1   119.3800509 410.868800
   3092   3083   3094     1   109.5600471 388.275200
   3092   3083   3093     1   108.4600466 328.025600
   3093   3083   3094     1   109.5600471 388.275200
   3095   3094   3097     1   108.7700466 392.459200
   3095   3094   3096     1   107.5800459 329.699200
   3096   3094   3097     1   108.7700466 392.459200
   3097   3146   3136     1   119.3800509 410.868800
   3099   3100   3119     1   109.5600471 388.275200
   3099   3110   3113     1   109.5600471 388.275200
   3099   3110   3114     1   109.5600471 388.275200
   3100   3102   3106     1   109.5600471 388.275200
   3100   3120   3121     1   107.2600461 396.643200
   3100   3099   3101     1   109.5600471 388.275200
   3101   3099   3110     1   109.5600471 388.275200
   3101   3099   3117     1   109.7800468 425.094400
   3102   3103   3105     1   109.5600471 388.275200
   3102   3109   3111     1   107.2600461 396.643200
   3102   3100   3119     1   109.5600471 388.275200
   3103   3104   3107     1   110.2200475 386.601600
   3103   3122   3112     1   109.2900470 396.643200
   3103   3102   3106     1   109.5600471 388.275200
   3104   3108   3118     1   107.2600461 396.643200
   3104   3103   3105     1   109.5600471 388.275200
   3105   3103   3122     1   109.8800469 414.216000
   3106   3102   3109     1   110.2600474 425.931200
   3107   3104   3108     1   109.4300470 427.604800
   3107   3104   3117     1   109.5800467 425.931200
   3110   3115   3116     1   107.2600461 396.643200
   3113   3110   3115     1   110.2600474 425.931200
   3113   3110   3114     1   108.4600466 328.025600
   3114   3110   3115     1   110.2600474 425.931200
   3119   3100   3120     1   110.2600474 425.931200
   3123   3124   3143     1   109.5600471 388.275200
   3123   3134   3137     1   109.5600471 388.275200
   3123   3134   3138     1   109.5600471 388.275200
   3124   3126   3130     1   109.5600471 388.275200
   3124   3144   3145     1   107.2600461 396.643200
   3124   3123   3125     1   109.5600471 388.275200
   3125   3123   3134     1   109.5600471 388.275200
   3125   3123   3141     1   109.7800468 425.094400
   3126   3127   3129     1   109.5600471 388.275200
   3126   3133   3135     1   107.2600461 396.643200
   3126   3124   3143     1   109.5600471 388.275200
   3127   3128   3131     1   110.2200475 386.601600
   3127   3146   3136     1   109.2900470 396.643200
   3127   3126   3130     1   109.5600471 388.275200
   3128   3132   3142     1   107.2600461 396.643200
   3128   3127   3129     1   109.5600471 388.275200
   3129   3127   3146     1   109.8800469 414.216000
   3130   3126   3133     1   110.2600474 425.931200
   3131   3128   3132     1   109.4300470 427.604800
   3131   3128   3141     1   109.5800467 425.931200
   3134   3139   3140     1   107.2600461 396.643200
   3137   3134   3139     1   110.2600474 425.931200
   3137   3134   3138     1   108.4600466 328.025600
   3138   3134   3139     1   110.2600474 425.931200
   3143   3124   3144     1   110.2600474 425.931200
   3147   3149   3150     1   108.8800464 416.726400
   3147   3149   3152     1   108.8800464 416.726400
   3148   3147   3149     1   117.6800502 383.254400
   3149   3151   3153     1   109.5600471 388.275200
   3149   3151   3154     1   109.5600471 388.275200
   3150   3149   3151     1   109.5600471 388.275200
   3150   3149   3152     1   108.4600466 328.025600
   3151   3149   3152     1   109.5600471 388.275200
   3153   3151   3155     1   109.8800469 414.216000
   3153   3151   3154     1   108.4600466 328.025600
   3154   3151   3155     1   109.8800469 414.216000
   3155   3156   3165     1   109.8800469 414.216000
   3155   3156   3166     1   109.8800469 414.216000
   3155   3157   3158     1   109.8800469 414.216000
   3155   3157   3160     1   109.8800469 414.216000
   3156   3167   3168     1   109.8000471 387.438400
   3156   3167   3169     1   109.8000471 387.438400
   3157   3159   3161     1   109.8000471 387.438400
   3157   3159   3162     1   109.8000471 387.438400
   3158   3157   3159     1   109.5600471 388.275200
   3158   3157   3160     1   108.4600466 328.025600
   3159   3157   3160     1   109.5600471 388.275200
   3161   3159   3163     1   108.7700466 392.459200
   3161   3159   3162     1   107.5800459 329.699200
   3162   3159   3163     1   108.7700466 392.459200
   3163   3195   3185     1   119.3800509 410.868800
   3165   3156   3167     1   109.5600471 388.275200
   3165   3156   3166     1   108.4600466 328.025600
   3166   3156   3167     1   109.5600471 388.275200
   3168   3167   3170     1   108.7700466 392.459200
   3168   3167   3169     1   107.5800459 329.699200
   3169   3167   3170     1   108.7700466 392.459200
   3170   3219   3209     1   119.3800509 410.868800
   3172   3173   3192     1   109.5600471 388.275200
   3172   3183   3186     1   109.5600471 388.275200
   3172   3183   3187     1   109.5600471 388.275200
   3173   3172   3174     1   109.5600471 388.275200
   3173   3175   3179     1   109.5600471 388.275200
   3173   3193   3194     1   107.2600461 396.643200
   3174   3172   3183     1   109.5600471 388.275200
   3174   3172   3190     1   109.7800468 425.094400
   3175   3173   3192     1   109.5600471 388.275200
   3175   3176   3178     1   109.5600471 388.275200
   3175   3182   3184     1   107.2600461 396.643200
   3176   3175   3179     1   109.5600471 388.275200
   3176   3177   3180     1   110.2200475 386.601600
   3176   3195   3185     1   109.2900470 396.643200
   3177   3176   3178     1   109.5600471 388.275200
   3177   3181   3191     1   107.2600461 396.643200
   3178   3176   3195     1   109.8800469 414.216000
   3179   3175   3182     1   110.2600474 425.931200
   3180   3177   3181     1   109.4300470 427.604800
   3180   3177   3190     1   109.5800467 425.931200
   3183   3188   3189     1   107.2600461 396.643200
   3186   3183   3188     1   110.2600474 425.931200
   3186   3183   3187     1   108.4600466 328.025600
   3187   3183   3188     1   110.2600474 425.931200
   3192   3173   3193     1   110.2600474 425.931200
   3196   3197   3216     1   109.5600471 388.275200
   3196   3207   3210     1   109.5600471 388.275200
   3196   3207   3211     1   109.5600471 388.275200
   3197   3196   3198     1   109.5600471 388.275200
   3197   3199   3203     1   109.5600471 388.275200
   3197   3217   3218     1   107.2600461 396.643200
   3198   3196   3207     1   109.5600471 388.275200
   3198   3196   3214     1   109.7800468 425.094400
   3199   3197   3216     1   109.5600471 388.275200
   3199   3200   3202     1   109.5600471 388.275200
   3199   3206   3208     1   107.2600461 396.643200
   3200   3199   3203     1   109.5600471 388.275200
   3200   3201   3204     1   110.2200475 386.601600
   3200   3219   3209     1   109.2900470 396.643200
   3201   3200   3202     1   109.5600471 388.275200
   3201   3205   3215     1   107.2600461 396.643200
   3202   3200   3219     1   109.8800469 414.216000
   3203   3199   3206     1   110.2600474 425.931200
   3204   3201   3205     1   109.4300470 427.604800
   3204   3201   3214     1   109.5800467 425.931200
   3207   3212   3213     1   107.2600461 396.643200
   3210   3207   3212     1   110.2600474 425.931200
   3210   3207   3211     1   108.4600466 328.025600
   3211   3207   3212     1   110.2600474 425.931200
   3216   3197   3217     1   110.2600474 425.931200
   3220   3222   3223     1   108.8800464 416.726400
   3220   3222   3225     1   108.8800464 416.726400
   3221   3220   3222     1   117.6800502 383.254400
   3222   3224   3226     1   109.5600471 388.275200
   3222   3224   3227     1   109.5600471 388.275200
   3223   3222   3224     1   109.5600471 388.275200
   3223   3222   3225     1   108.4600466 328.025600
   3224   3222   3225     1   109.5600471 388.275200
   3226   3224   3228     1   109.8800469 414.216000
   3226   3224   3227     1   108.4600466 328.025600
   3227   3224   3228     1   109.8800469 414.216000
   3228   3229   3238     1   109.8800469 414.216000
   3228   3229   3239     1   109.8800469 414.216000
   3228   3230   3231     1   109.8800469 414.216000
   3228   3230   3233     1   109.8800469 414.216000
   3229   3240   3241     1   109.8000471 387.438400
   3229   3240   3242     1   109.8000471 387.438400
   3230   3232   3234     1   109.8000471 387.438400
   3230   3232   3235     1   109.8000471 387.438400
   3231   3230   3232     1   109.5600471 388.275200
   3231   3230   3233     1   108.4600466 328.025600
   3232   3230   3233     1   109.5600471 388.275200
   3234   3232   3236     1   108.7700466 392.459200
   3234   3232   3235     1   107.5800459 329.699200
   3235   3232   3236     1   108.7700466 392.459200
   3236   3268   3258     1   119.3800509 410.868800
   3238   3229   3240     1   109.5600471 388.275200
   3238   3229   3239     1   108.4600466 328.025600
   3239   3229   3240     1   109.5600471 388.275200
   3241   3240   3243     1   108.7700466 392.459200
   3241   3240   3242     1   107.5800459 329.699200
   3242   3240   3243     1   108.7700466 392.459200
   3243   3292   3282     1   119.3800509 410.868800
   3245   3246   3265     1   109.5600471 388.275200
   3245   3256   3259     1   109.5600471 388.275200
   3245   3256   3260     1   109.5600471 388.275200
   3246   3248   3252     1   109.5600471 388.275200
   3246   3266   3267     1   107.2600461 396.643200
   3246   3245   3247     1   109.5600471 388.275200
   3247   3245   3256     1   109.5600471 388.275200
   3247   3245   3263     1   109.7800468 425.094400
   3248   3249   3251     1   109.5600471 388.275200
   3248   3255   3257     1   107.2600461 396.643200
   3248   3246   3265     1   109.5600471 388.275200
   3249   3250   3253     1   110.2200475 386.601600
   3249   3268   3258     1   109.2900470 396.643200
   3249   3248   3252     1   109.5600471 388.275200
   3250   3254   3264     1   107.2600461 396.643200
   3250   3249   3251     1   109.5600471 388.275200
   3251   3249   3268     1   109.8800469 414.216000
   3252   3248   3255     1   110.2600474 425.931200
   3253   3250   3254     1   109.4300470 427.604800
   3253   3250   3263     1   109.5800467 425.931200
   3256   3261   3262     1   107.2600461 396.643200
   3259   3256   3261     1   110.2600474 425.931200
   3259   3256   3260     1   108.4600466 328.025600
   3260   3256   3261     1   110.2600474 425.931200
   3265   3246   3266     1   110.2600474 425.931200
   3269   3270   3289     1   109.5600471 388.275200
   3269   3280   3283     1   109.5600471 388.275200
   3269   3280   3284     1   109.5600471 388.275200
   3270   3272   3276     1   109.5600471 388.275200
   3270   3290   3291     1   107.2600461 396.643200
   3270   3269   3271     1   109.5600471 388.275200
   3271   3269   3280     1   109.5600471 388.275200
   3271   3269   3287     1   109.7800468 425.094400
   3272   3273   3275     1   109.5600471 388.275200
   3272   3279   3281     1   107.2600461 396.643200
   3272   3270   3289     1   109.5600471 388.275200
   3273   3274   3277     1   110.2200475 386.601600
   3273   3292   3282     1   109.2900470 396.643200
   3273   3272   3276     1   109.5600471 388.275200
   3274   3278   3288     1   107.2600461 396.643200
   3274   3273   3275     1   109.5600471 388.275200
   3275   3273   3292     1   109.8800469 414.216000
   3276   3272   3279     1   110.2600474 425.931200
   3277   3274   3278     1   109.4300470 427.604800
   3277   3274   3287     1   109.5800467 425.931200
   3280   3285   3286     1   107.2600461 396.643200
   3283   3280   3285     1   110.2600474 425.931200
   3283   3280   3284     1   108.4600466 328.025600
   3284   3280   3285     1   110.2600474 425.931200
   3289   3270   3290     1   110.2600474 425.931200
   3293   3295   3296     1   108.8800464 416.726400
   3293   3295   3298     1   108.8800464 416.726400
   3294   3293   3295     1   117.6800502 383.254400
   3295   3297   3299     1   109.5600471 388.275200
   3295   3297   3300     1   109.5600471 388.275200
   3296   3295   3297     1   109.5600471 388.275200
   3296   3295   3298     1   108.4600466 328.025600
   3297   3295   3298     1   109.5600471 388.275200
   3299   3297   3301     1   109.8800469 414.216000
   3299   3297   3300     1   108.4600466 328.025600
   3300   3297   3301     1   109.8800469 414.216000
   3301   3302   3311     1   109.8800469 414.216000
   3301   3302   3312     1   109.8800469 414.216000
   3301   3303   3304     1   109.8800469 414.216000
   3301   3303   3306     1   109.8800469 414.216000
   3302   3313   3314     1   109.8000471 387.438400
   3302   3313   3315     1   109.8000471 387.438400
   3303   3305   3307     1   109.8000471 387.438400
   3303   3305   3308     1   109.8000471 387.438400
   3304   3303   3305     1   109.5600471 388.275200
   3304   3303   3306     1   108.4600466 328.025600
   3305   3303   3306     1   109.5600471 388.275200
   3307   3305   3309     1   108.7700466 392.459200
   3307   3305   3308     1   107.5800459 329.699200
   3308   3305   3309     1   108.7700466 392.459200
   3309   3341   3331     1   119.3800509 410.868800
   3311   3302   3313     1   109.5600471 388.275200
   3311   3302   3312     1   108.4600466 328.025600
   3312   3302   3313     1   109.5600471 388.275200
   3314   3313   3316     1   108.7700466 392.459200
   3314   3313   3315     1   107.5800459 329.699200
   3315   3313   3316     1   108.7700466 392.459200
   3316   3365   3355     1   119.3800509 410.868800
   3318   3319   3338     1   109.5600471 388.275200
   3318   3329   3332     1   109.5600471 388.275200
   3318   3329   3333     1   109.5600471 388.275200
   3319   3318   3320     1   109.5600471 388.275200
   3319   3321   3325     1   109.5600471 388.275200
   3319   3339   3340     1   107.2600461 396.643200
   3320   3318   3329     1   109.5600471 388.275200
   3320   3318   3336     1   109.7800468 425.094400
   3321   3319   3338     1   109.5600471 388.275200
   3321   3322   3324     1   109.5600471 388.275200
   3321   3328   3330     1   107.2600461 396.643200
   3322   3321   3325     1   109.5600471 388.275200
   3322   3323   3326     1   110.2200475 386.601600
   3322   3341   3331     1   109.2900470 396.643200
   3323   3322   3324     1   109.5600471 388.275200
   3323   3327   3337     1   107.2600461 396.643200
   3324   3322   3341     1   109.8800469 414.216000
   3325   3321   3328     1   110.2600474 425.931200
   3326   3323   3327     1   109.4300470 427.604800
   3326   3323   3336     1   109.5800467 425.931200
   3329   3334   3335     1   107.2600461 396.643200
   3332   3329   3334     1   110.2600474 425.931200
   3332   3329   3333     1   108.4600466 328.025600
   3333   3329   3334     1   110.2600474 425.931200
   3338   3319   3339     1   110.2600474 425.931200
   3342   3343   3362     1   109.5600471 388.275200
   3342   3353   3356     1   109.5600471 388.275200
   3342   3353   3357     1   109.5600471 388.275200
   3343   3342   3344     1   109.5600471 388.275200
   3343   3345   3349     1   109.5600471 388.275200
   3343   3363   3364     1   107.2600461 396.643200
   3344   3342   3353     1   109.5600471 388.275200
   3344   3342   3360     1   109.7800468 425.094400
   3345   3343   3362     1   109.5600471 388.275200
   3345   3346   3348     1   109.5600471 388.275200
   3345   3352   3354     1   107.2600461 396.643200
   3346   3345   3349     1   109.5600471 388.275200
   3346   3347   3350     1   110.2200475 386.601600
   3346   3365   3355     1   109.2900470 396.643200
   3347   3346   3348     1   109.5600471 388.275200
   3347   3351   3361     1   107.2600461 396.643200
   3348   3346   3365     1   109.8800469 414.216000
   3349   3345   3352     1   110.2600474 425.931200
   3350   3347   3351     1   109.4300470 427.604800
   3350   3347   3360     1   109.5800467 425.931200
   3353   3358   3359     1   107.2600461 396.643200
   3356   3353   3358     1   110.2600474 425.931200
   3356   3353   3357     1   108.4600466 328.025600
   3357   3353   3358     1   110.2600474 425.931200
   3362   3343   3363     1   110.2600474 425.931200
   3366   3368   3369     1   108.8800464 416.726400
   3366   3368   3371     1   108.8800464 416.726400
   3367   3366   3368     1   117.6800502 383.254400
   3368   3370   3372     1   109.5600471 388.275200
   3368   3370   3373     1   109.5600471 388.275200
   3369   3368   3370     1   109.5600471 388.275200
   3369   3368   3371     1   108.4600466 328.025600
   3370   3368   3371     1   109.5600471 388.275200
   3372   3370   3374     1   109.8800469 414.216000
   3372   3370   3373     1   108.4600466 328.025600
   3373   3370   3374     1   109.8800469 414.216000
   3374   3375   3384     1   109.8800469 414.216000
   3374   3375   3385     1   109.8800469 414.216000
   3374   3376   3377     1   109.8800469 414.216000
   3374   3376   3379     1   109.8800469 414.216000
   3375   3386   3387     1   109.8000471 387.438400
   3375   3386   3388     1   109.8000471 387.438400
   3376   3378   3380     1   109.8000471 387.438400
   3376   3378   3381     1   109.8000471 387.438400
   3377   3376   3378     1   109.5600471 388.275200
   3377   3376   3379     1   108.4600466 328.025600
   3378   3376   3379     1   109.5600471 388.275200
   3380   3378   3382     1   108.7700466 392.459200
   3380   3378   3381     1   107.5800459 329.699200
   3381   3378   3382     1   108.7700466 392.459200
   3382   3414   3404     1   119.3800509 410.868800
   3384   3375   3386     1   109.5600471 388.275200
   3384   3375   3385     1   108.4600466 328.025600
   3385   3375   3386     1   109.5600471 388.275200
   3387   3386   3389     1   108.7700466 392.459200
   3387   3386   3388     1   107.5800459 329.699200
   3388   3386   3389     1   108.7700466 392.459200
   3389   3438   3428     1   119.3800509 410.868800
   3391   3392   3411     1   109.5600471 388.275200
   3391   3402   3405     1   109.5600471 388.275200
   3391   3402   3406     1   109.5600471 388.275200
   3392   3394   3398     1   109.5600471 388.275200
   3392   3412   3413     1   107.2600461 396.643200
   3392   3391   3393     1   109.5600471 388.275200
   3393   3391   3402     1   109.5600471 388.275200
   3393   3391   3409     1   109.7800468 425.094400
   3394   3395   3397     1   109.5600471 388.275200
   3394   3401   3403     1   107.2600461 396.643200
   3394   3392   3411     1   109.5600471 388.275200
   3395   3396   3399     1   110.2200475 386.601600
   3395   3414   3404     1   109.2900470 396.643200
   3395   3394   3398     1   109.5600471 388.275200
   3396   3400   3410     1   107.2600461 396.643200
   3396   3395   3397     1   109.5600471 388.275200
   3397   3395   3414     1   109.8800469 414.216000
   3398   3394   3401     1   110.2600474 425.931200
   3399   3396   3400     1   109.4300470 427.604800
   3399   3396   3409     1   109.5800467 425.931200
   3402   3407   3408     1   107.2600461 396.643200
   3405   3402   3407     1   110.2600474 425.931200
   3405   3402   3406     1   108.4600466 328.025600
   3406   3402   3407     1   110.2600474 425.931200
   3411   3392   3412     1   110.2600474 425.931200
   3415   3416   3435     1   109.5600471 388.275200
   3415   3426   3429     1   109.5600471 388.275200
   3415   3426   3430     1   109.5600471 388.275200
   3416   3418   3422     1   109.5600471 388.275200
   3416   3436   3437     1   107.2600461 396.643200
   3416   3415   3417     1   109.5600471 388.275200
   3417   3415   3426     1   109.5600471 388.275200
   3417   3415   3433     1   109.7800468 425.094400
   3418   3419   3421     1   109.5600471 388.275200
   3418   3425   3427     1   107.2600461 396.643200
   3418   3416   3435     1   109.5600471 388.275200
   3419   3420   3423     1   110.2200475 386.601600
   3419   3438   3428     1   109.2900470 396.643200
   3419   3418   3422     1   109.5600471 388.275200
   3420   3424   3434     1   107.2600461 396.643200
   3420   3419   3421     1   109.5600471 388.275200
   3421   3419   3438     1   109.8800469 414.216000
   3422   3418   3425     1   110.2600474 425.931200
   3423   3420   3424     1   109.4300470 427.604800
   3423   3420   3433     1   109.5800467 425.931200
   3426   3431   3432     1   107.2600461 396.643200
   3429   3426   3431     1   110.2600474 425.931200
   3429   3426   3430     1   108.4600466 328.025600
   3430   3426   3431     1   110.2600474 425.931200
   3435   3416   3436     1   110.2600474 425.931200
   3439   3441   3442     1   108.8800464 416.726400
   3439   3441   3444     1   108.8800464 416.726400
   3440   3439   3441     1   117.6800502 383.254400
   3441   3443   3445     1   109.5600471 388.275200
   3441   3443   3446     1   109.5600471 388.275200
   3442   3441   3443     1   109.5600471 388.275200
   3442   3441   3444     1   108.4600466 328.025600
   3443   3441   3444     1   109.5600471 388.275200
   3445   3443   3447     1   109.8800469 414.216000
   3445   3443   3446     1   108.4600466 328.025600
   3446   3443   3447     1   109.8800469 414.216000
   3447   3448   3457     1   109.8800469 414.216000
   3447   3448   3458     1   109.8800469 414.216000
   3447   3449   3450     1   109.8800469 414.216000
   3447   3449   3452     1   109.8800469 414.216000
   3448   3459   3460     1   109.8000471 387.438400
   3448   3459   3461     1   109.8000471 387.438400
   3449   3451   3453     1   109.8000471 387.438400
   3449   3451   3454     1   109.8000471 387.438400
   3450   3449   3451     1   109.5600471 388.275200
   3450   3449   3452     1   108.4600466 328.025600
   3451   3449   3452     1   109.5600471 388.275200
   3453   3451   3455     1   108.7700466 392.459200
   3453   3451   3454     1   107.5800459 329.699200
   3454   3451   3455     1   108.7700466 392.459200
   3455   3487   3477     1   119.3800509 410.868800
   3457   3448   3459     1   109.5600471 388.275200
   3457   3448   3458     1   108.4600466 328.025600
   3458   3448   3459     1   109.5600471 388.275200
   3460   3459   3462     1   108.7700466 392.459200
   3460   3459   3461     1   107.5800459 329.699200
   3461   3459   3462     1   108.7700466 392.459200
   3462   3511   3501     1   119.3800509 410.868800
   3464   3465   3484     1   109.5600471 388.275200
   3464   3475   3478     1   109.5600471 388.275200
   3464   3475   3479     1   109.5600471 388.275200
   3465   3464   3466     1   109.5600471 388.275200
   3465   3467   3471     1   109.5600471 388.275200
   3465   3485   3486     1   107.2600461 396.643200
   3466   3464   3475     1   109.5600471 388.275200
   3466   3464   3482     1   109.7800468 425.094400
   3467   3465   3484     1   109.5600471 388.275200
   3467   3468   3470     1   109.5600471 388.275200
   3467   3474   3476     1   107.2600461 396.643200
   3468   3467   3471     1   109.5600471 388.275200
   3468   3469   3472     1   110.2200475 386.601600
   3468   3487   3477     1   109.2900470 396.643200
   3469   3468   3470     1   109.5600471 388.275200
   3469   3473   3483     1   107.2600461 396.643200
   3470   3468   3487     1   109.8800469 414.216000
   3471   3467   3474     1   110.2600474 425.931200
   3472   3469   3473     1   109.4300470 427.604800
   3472   3469   3482     1   109.5800467 425.931200
   3475   3480   3481     1   107.2600461 396.643200
   3478   3475   3480     1   110.2600474 425.931200
   3478   3475   3479     1   108.4600466 328.025600
   3479   3475   3480     1   110.2600474 425.931200
   3484   3465   3485     1   110.2600474 425.931200
   3488   3489   3508     1   109.5600471 388.275200
   3488   3499   3502     1   109.5600471 388.275200
   3488   3499   3503     1   109.5600471 388.275200
   3489   3488   3490     1   109.5600471 388.275200
   3489   3491   3495     1   109.5600471 388.275200
   3489   3509   3510     1   107.2600461 396.643200
   3490   3488   3499     1   109.5600471 388.275200
   3490   3488   3506     1   109.7800468 425.094400
   3491   3489   3508     1   109.5600471 388.275200
   3491   3492   3494     1   109.5600471 388.275200
   3491   3498   3500     1   107.2600461 396.643200
   3492   3491   3495     1   109.5600471 388.275200
   3492   3493   3496     1   110.2200475 386.601600
   3492   3511   3501     1   109.2900470 396.643200
   3493   3492   3494     1   109.5600471 388.275200
   3493   3497   3507     1   107.2600461 396.643200
   3494   3492   3511     1   109.8800469 414.216000
   3495   3491   3498     1   110.2600474 425.931200
   3496   3493   3497     1   109.4300470 427.604800
   3496   3493   3506     1   109.5800467 425.931200
   3499   3504   3505     1   107.2600461 396.643200
   3502   3499   3504     1   110.2600474 425.931200
   3502   3499   3503     1   108.4600466 328.025600
   3503   3499   3504     1   110.2600474 425.931200
   3508   3489   3509     1   110.2600474 425.931200
   3512   3514   3515     1   108.8800464 416.726400
   3512   3514   3517     1   108.8800464 416.726400
   3513   3512   3514     1   117.6800502 383.254400
   3514   3516   3518     1   109.5600471 388.275200
   3514   3516   3519     1   109.5600471 388.275200
   3515   3514   3516     1   109.5600471 388.275200
   3515   3514   3517     1   108.4600466 328.025600
   3516   3514   3517     1   109.5600471 388.275200
   3518   3516   3520     1   109.8800469 414.216000
   3518   3516   3519     1   108.4600466 328.025600
   3519   3516   3520     1   109.8800469 414.216000
   3520   3521   3530     1   109.8800469 414.216000
   3520   3521   3531     1   109.8800469 414.216000
   3520   3522   3523     1   109.8800469 414.216000
   3520   3522   3525     1   109.8800469 414.216000
   3521   3532   3533     1   109.8000471 387.438400
   3521   3532   3534     1   109.8000471 387.438400
   3522   3524   3526     1   109.8000471 387.438400
   3522   3524   3527     1   109.8000471 387.438400
   3523   3522   3524     1   109.5600471 388.275200
   3523   3522   3525     1   108.4600466 328.025600
   3524   3522   3525     1   109.5600471 388.275200
   3526   3524   3528     1   108.7700466 392.459200
   3526   3524   3527     1   107.5800459 329.699200
   3527   3524   3528     1   108.7700466 392.459200
   3528   3560   3550     1   119.3800509 410.868800
   3530   3521   3532     1   109.5600471 388.275200
   3530   3521   3531     1   108.4600466 328.025600
   3531   3521   3532     1   109.5600471 388.275200
   3533   3532   3535     1   108.7700466 392.459200
   3533   3532   3534     1   107.5800459 329.699200
   3534   3532   3535     1   108.7700466 392.459200
   3535   3584   3574     1   119.3800509 410.868800
   3537   3538   3557     1   109.5600471 388.275200
   3537   3548   3551     1   109.5600471 388.275200
   3537   3548   3552     1   109.5600471 388.275200
   3538   3540   3544     1   109.5600471 388.275200
   3538   3558   3559     1   107.2600461 396.643200
   3538   3537   3539     1   109.5600471 388.275200
   3539   3537   3548     1   109.5600471 388.275200
   3539   3537   3555     1   109.7800468 425.094400
   3540   3541   3543     1   109.5600471 388.275200
   3540   3547   3549     1   107.2600461 396.643200
   3540   3538   3557     1   109.5600471 388.275200
   3541   3542   3545     1   110.2200475 386.601600
   3541   3560   3550     1   109.2900470 396.643200
   3541   3540   3544     1   109.5600471 388.275200
   3542   3546   3556     1   107.2600461 396.643200
   3542   3541   3543     1   109.5600471 388.275200
   3543   3541   3560     1   109.8800469 414.216000
   3544   3540   3547     1   110.2600474 425.931200
   3545   3542   3546     1   109.4300470 427.604800
   3545   3542   3555     1   109.5800467 425.931200
   3548   3553   3554     1   107.2600461 396.643200
   3551   3548   3553     1   110.2600474 425.931200
   3551   3548   3552     1   108.4600466 328.025600
   3552   3548   3553     1   110.2600474 425.931200
   3557   3538   3558     1   110.2600474 425.931200
   3561   3562   3581     1   109.5600471 388.275200
   3561   3572   3575     1   109.5600471 388.275200
   3561   3572   3576     1   109.5600471 388.275200
   3562   3564   3568     1   109.5600471 388.275200
   3562   3582   3583     1   107.2600461 396.643200
   3562   3561   3563     1   109.5600471 388.275200
   3563   3561   3572     1   109.5600471 388.275200
   3563   3561   3579     1   109.7800468 425.094400
   3564   3565   3567     1   109.5600471 388.275200
   3564   3571   3573     1   107.2600461 396.643200
   3564   3562   3581     1   109.5600471 388.275200
   3565   3566   3569     1   110.2200475 386.601600
   3565   3584   3574     1   109.2900470 396.643200
   3565   3564   3568     1   109.5600471 388.275200
   3566   3570   3580     1   107.2600461 396.643200
   3566   3565   3567     1   109.5600471 388.275200
   3567   3565   3584     1   109.8800469 414.216000
   3568   3564   3571     1   110.2600474 425.931200
   3569   3566   3570     1   109.4300470 427.604800
   3569   3566   3579     1   109.5800467 425.931200
   3572   3577   3578     1   107.2600461 396.643200
   3575   3572   3577     1   110.2600474 425.931200
   3575   3572   3576     1   108.4600466 328.025600
   3576   3572   3577     1   110.2600474 425.931200
   3581   3562   3582     1   110.2600474 425.931200
   3585   3587   3588     1   108.8800464 416.726400
   3585   3587   3590     1   108.8800464 416.726400
   3586   3585   3587     1   117.6800502 383.254400
   3587   3589   3591     1   109.5600471 388.275200
   3587   3589   3592     1   109.5600471 388.275200
   3588   3587   3589     1   109.5600471 388.275200
   3588   3587   3590     1   108.4600466 328.025600
   3589   3587   3590     1   109.5600471 388.275200
   3591   3589   3593     1   109.8800469 414.216000
   3591   3589   3592     1   108.4600466 328.025600
   3592   3589   3593     1   109.8800469 414.216000
   3593   3594   3603     1   109.8800469 414.216000
   3593   3594   3604     1   109.8800469 414.216000
   3593   3595   3596     1   109.8800469 414.216000
   3593   3595   3598     1   109.8800469 414.216000
   3594   3605   3606     1   109.8000471 387.438400
   3594   3605   3607     1   109.8000471 387.438400
   3595   3597   3599     1   109.8000471 387.438400
   3595   3597   3600     1   109.8000471 387.438400
   3596   3595   3597     1   109.5600471 388.275200
   3596   3595   3598     1   108.4600466 328.025600
   3597   3595   3598     1   109.5600471 388.275200
   3599   3597   3601     1   108.7700466 392.459200
   3599   3597   3600     1   107.5800459 329.699200
   3600   3597   3601     1   108.7700466 392.459200
   3601   3633   3623     1   119.3800509 410.868800
   3603   3594   3605     1   109.5600471 388.275200
   3603   3594   3604     1   108.4600466 328.025600
   3604   3594   3605     1   109.5600471 388.275200
   3606   3605   3608     1   108.7700466 392.459200
   3606   3605   3607     1   107.5800459 329.699200
   3607   3605   3608     1   108.7700466 392.459200
   3608   3657   3647     1   119.3800509 410.868800
   3610   3611   3630     1   109.5600471 388.275200
   3610   3621   3624     1   109.5600471 388.275200
   3610   3621   3625     1   109.5600471 388.275200
   3611   3610   3612     1   109.5600471 388.275200
   3611   3613   3617     1   109.5600471 388.275200
   3611   3631   3632     1   107.2600461 396.643200
   3612   3610   3621     1   109.5600471 388.275200
   3612   3610   3628     1   109.7800468 425.094400
   3613   3611   3630     1   109.5600471 388.275200
   3613   3614   3616     1   109.5600471 388.275200
   3613   3620   3622     1   107.2600461 396.643200
   3614   3613   3617     1   109.5600471 388.275200
   3614   3615   3618     1   110.2200475 386.601600
   3614   3633   3623     1   109.2900470 396.643200
   3615   3614   3616     1   109.5600471 388.275200
   3615   3619   3629     1   107.2600461 396.643200
   3616   3614   3633     1   109.8800469 414.216000
   3617   3613   3620     1   110.2600474 425.931200
   3618   3615   3619     1   109.4300470 427.604800
   3618   3615   3628     1   109.5800467 425.931200
   3621   3626   3627     1   107.2600461 396.643200
   3624   3621   3626     1   110.2600474 425.931200
   3624   3621   3625     1   108.4600466 328.025600
   3625   3621   3626     1   110.2600474 425.931200
   3630   3611   3631     1   110.2600474 425.931200
   3634   3635   3654     1   109.5600471 388.275200
   3634   3645   3648     1   109.5600471 388.275200
   3634   3645   3649     1   109.5600471 388.275200
   3635   3634   3636     1   109.5600471 388.275200
   3635   3637   3641     1   109.5600471 388.275200
   3635   3655   3656     1   107.2600461 396.643200
   3636   3634   3645     1   109.5600471 388.275200
   3636   3634   3652     1   109.7800468 425.094400
   3637   3635   3654     1   109.5600471 388.275200
   3637   3638   3640     1   109.5600471 388.275200
   3637   3644   3646     1   107.2600461 396.643200
   3638   3637   3641     1   109.5600471 388.275200
   3638   3639   3642     1   110.2200475 386.601600
   3638   3657   3647     1   109.2900470 396.643200
   3639   3638   3640     1   109.5600471 388.275200
   3639   3643   3653     1   107.2600461 396.643200
   3640   3638   3657     1   109.8800469 414.216000
   3641   3637   3644     1   110.2600474 425.931200
   3642   3639   3643     1   109.4300470 427.604800
   3642   3639   3652     1   109.5800467 425.931200
   3645   3650   3651     1   107.2600461 396.643200
   3648   3645   3650     1   110.2600474 425.931200
   3648   3645   3649     1   108.4600466 328.025600
   3649   3645   3650     1   110.2600474 425.931200
   3654   3635   3655     1   110.2600474 425.931200
   3658   3660   3661     1   108.8800464 416.726400
   3658   3660   3663     1   108.8800464 416.726400
   3659   3658   3660     1   117.6800502 383.254400
   3660   3662   3664     1   109.5600471 388.275200
   3660   3662   3665     1   109.5600471 388.275200
   3661   3660   3662     1   109.5600471 388.275200
   3661   3660   3663     1   108.4600466 328.025600
   3662   3660   3663     1   109.5600471 388.275200
   3664   3662   3666     1   109.8800469 414.216000
   3664   3662   3665     1   108.4600466 328.025600
   3665   3662   3666     1   109.8800469 414.216000
   3666   3667   3676     1   109.8800469 414.216000
   3666   3667   3677     1   109.8800469 414.216000
   3666   3668   3669     1   109.8800469 414.216000
   3666   3668   3671     1   109.8800469 414.216000
   3667   3678   3679     1   109.8000471 387.438400
   3667   3678   3680     1   109.8000471 387.438400
   3668   3670   3672     1   109.8000471 387.438400
   3668   3670   3673     1   109.8000471 387.438400
   3669   3668   3670     1   109.5600471 388.275200
   3669   3668   3671     1   108.4600466 328.025600
   3670   3668   3671     1   109.5600471 388.275200
   3672   3670   3674     1   108.7700466 392.459200
   3672   3670   3673     1   107.5800459 329.699200
   3673   3670   3674     1   108.7700466 392.459200
   3674   3706   3696     1   119.3800509 410.868800
   3676   3667   3678     1   109.5600471 388.275200
   3676   3667   3677     1   108.4600466 328.025600
   3677   3667   3678     1   109.5600471 388.275200
   3679   3678   3681     1   108.7700466 392.459200
   3679   3678   3680     1   107.5800459 329.699200
   3680   3678   3681     1   108.7700466 392.459200
   3681   3730   3720     1   119.3800509 410.868800
   3683   3684   3703     1   109.5600471 388.275200
   3683   3694   3697     1   109.5600471 388.275200
   3683   3694   3698     1   109.5600471 388.275200
   3684   3686   3690     1   109.5600471 388.275200
   3684   3704   3705     1   107.2600461 396.643200
   3684   3683   3685     1   109.5600471 388.275200
   3685   3683   3694     1   109.5600471 388.275200
   3685   3683   3701     1   109.7800468 425.094400
   3686   3687   3689     1   109.5600471 388.275200
   3686   3693   3695     1   107.2600461 396.643200
   3686   3684   3703     1   109.5600471 388.275200
   3687   3688   3691     1   110.2200475 386.601600
   3687   3706   3696     1   109.2900470 396.643200
   3687   3686   3690     1   109.5600471 388.275200
   3688   3692   3702     1   107.2600461 396.643200
   3688   3687   3689     1   109.5600471 388.275200
   3689   3687   3706     1   109.8800469 414.216000
   3690   3686   3693     1   110.2600474 425.931200
   3691   3688   3692     1   109.4300470 427.604800
   3691   3688   3701     1   109.5800467 425.931200
   3694   3699   3700     1   107.2600461 396.643200
   3697   3694   3699     1   110.2600474 425.931200
   3697   3694   3698     1   108.4600466 328.025600
   3698   3694   3699     1   110.2600474 425.931200
   3703   3684   3704     1   110.2600474 425.931200
   3707   3708   3727     1   109.5600471 388.275200
   3707   3718   3721     1   109.5600471 388.275200
   3707   3718   3722     1   109.5600471 388.275200
   3708   3710   3714     1   109.5600471 388.275200
   3708   3728   3729     1   107.2600461 396.643200
   3708   3707   3709     1   109.5600471 388.275200
   3709   3707   3718     1   109.5600471 388.275200
   3709   3707   3725     1   109.7800468 425.094400
   3710   3711   3713     1   109.5600471 388.275200
   3710   3717   3719     1   107.2600461 396.643200
   3710   3708   3727     1   109.5600471 388.275200
   3711   3712   3715     1   110.2200475 386.601600
   3711   3730   3720     1   109.2900470 396.643200
   3711   3710   3714     1   109.5600471 388.275200
   3712   3716   3726     1   107.2600461 396.643200
   3712   3711   3713     1   109.5600471 388.275200
   3713   3711   3730     1   109.8800469 414.216000
   3714   3710   3717     1   110.2600474 425.931200
   3715   3712   3716     1   109.4300470 427.604800
   3715   3712   3725     1   109.5800467 425.931200
   3718   3723   3724     1   107.2600461 396.643200
   3721   3718   3723     1   110.2600474 425.931200
   3721   3718   3722     1   108.4600466 328.025600
   3722   3718   3723     1   110.2600474 425.931200
   3727   3708   3728     1   110.2600474 425.931200
   3731   3733   3734     1   108.8800464 416.726400
   3731   3733   3736     1   108.8800464 416.726400
   3732   3731   3733     1   117.6800502 383.254400
   3733   3735   3737     1   109.5600471 388.275200
   3733   3735   3738     1   109.5600471 388.275200
   3734   3733   3735     1   109.5600471 388.275200
   3734   3733   3736     1   108.4600466 328.025600
   3735   3733   3736     1   109.5600471 388.275200
   3737   3735   3739     1   109.8800469 414.216000
   3737   3735   3738     1   108.4600466 328.025600
   3738   3735   3739     1   109.8800469 414.216000
   3739   3740   3749     1   109.8800469 414.216000
   3739   3740   3750     1   109.8800469 414.216000
   3739   3741   3742     1   109.8800469 414.216000
   3739   3741   3744     1   109.8800469 414.216000
   3740   3751   3752     1   109.8000471 387.438400
   3740   3751   3753     1   109.8000471 387.438400
   3741   3743   3745     1   109.8000471 387.438400
   3741   3743   3746     1   109.8000471 387.438400
   3742   3741   3743     1   109.5600471 388.275200
   3742   3741   3744     1   108.4600466 328.025600
   3743   3741   3744     1   109.5600471 388.275200
   3745   3743   3747     1   108.7700466 392.459200
   3745   3743   3746     1   107.5800459 329.699200
   3746   3743   3747     1   108.7700466 392.459200
   3747   3779   3769     1   119.3800509 410.868800
   3749   3740   3751     1   109.5600471 388.275200
   3749   3740   3750     1   108.4600466 328.025600
   3750   3740   3751     1   109.5600471 388.275200
   3752   3751   3754     1   108.7700466 392.459200
   3752   3751   3753     1   107.5800459 329.699200
   3753   3751   3754     1   108.7700466 392.459200
   3754   3803   3793     1   119.3800509 410.868800
   3756   3757   3776     1   109.5600471 388.275200
   3756   3767   3770     1   109.5600471 388.275200
   3756   3767   3771     1   109.5600471 388.275200
   3757   3756   3758     1   109.5600471 388.275200
   3757   3759   3763     1   109.5600471 388.275200
   3757   3777   3778     1   107.2600461 396.643200
   3758   3756   3767     1   109.5600471 388.275200
   3758   3756   3774     1   109.7800468 425.094400
   3759   3757   3776     1   109.5600471 388.275200
   3759   3760   3762     1   109.5600471 388.275200
   3759   3766   3768     1   107.2600461 396.643200
   3760   3759   3763     1   109.5600471 388.275200
   3760   3761   3764     1   110.2200475 386.601600
   3760   3779   3769     1   109.2900470 396.643200
   3761   3760   3762     1   109.5600471 388.275200
   3761   3765   3775     1   107.2600461 396.643200
   3762   3760   3779     1   109.8800469 414.216000
   3763   3759   3766     1   110.2600474 425.931200
   3764   3761   3765     1   109.4300470 427.604800
   3764   3761   3774     1   109.5800467 425.931200
   3767   3772   3773     1   107.2600461 396.643200
   3770   3767   3772     1   110.2600474 425.931200
   3770   3767   3771     1   108.4600466 328.025600
   3771   3767   3772     1   110.2600474 425.931200
   3776   3757   3777     1   110.2600474 425.931200
   3780   3781   3800     1   109.5600471 388.275200
   3780   3791   3794     1   109.5600471 388.275200
   3780   3791   3795     1   109.5600471 388.275200
   3781   3780   3782     1   109.5600471 388.275200
   3781   3783   3787     1   109.5600471 388.275200
   3781   3801   3802     1   107.2600461 396.643200
   3782   3780   3791     1   109.5600471 388.275200
   3782   3780   3798     1   109.7800468 425.094400
   3783   3781   3800     1   109.5600471 388.275200
   3783   3784   3786     1   109.5600471 388.275200
   3783   3790   3792     1   107.2600461 396.643200
   3784   3783   3787     1   109.5600471 388.275200
   3784   3785   3788     1   110.2200475 386.601600
   3784   3803   3793     1   109.2900470 396.643200
   3785   3784   3786     1   109.5600471 388.275200
   3785   3789   3799     1   107.2600461 396.643200
   3786   3784   3803     1   109.8800469 414.216000
   3787   3783   3790     1   110.2600474 425.931200
   3788   3785   3789     1   109.4300470 427.604800
   3788   3785   3798     1   109.5800467 425.931200
   3791   3796   3797     1   107.2600461 396.643200
   3794   3791   3796     1   110.2600474 425.931200
   3794   3791   3795     1   108.4600466 328.025600
   3795   3791   3796     1   110.2600474 425.931200
   3800   3781   3801     1   110.2600474 425.931200
   3804   3806   3807     1   108.8800464 416.726400
   3804   3806   3809     1   108.8800464 416.726400
   3805   3804   3806     1   117.6800502 383.254400
   3806   3808   3810     1   109.5600471 388.275200
   3806   3808   3811     1   109.5600471 388.275200
   3807   3806   3808     1   109.5600471 388.275200
   3807   3806   3809     1   108.4600466 328.025600
   3808   3806   3809     1   109.5600471 388.275200
   3810   3808   3812     1   109.8800469 414.216000
   3810   3808   3811     1   108.4600466 328.025600
   3811   3808   3812     1   109.8800469 414.216000
   3812   3813   3822     1   109.8800469 414.216000
   3812   3813   3823     1   109.8800469 414.216000
   3812   3814   3815     1   109.8800469 414.216000
   3812   3814   3817     1   109.8800469 414.216000
   3813   3824   3825     1   109.8000471 387.438400
   3813   3824   3826     1   109.8000471 387.438400
   3814   3816   3818     1   109.8000471 387.438400
   3814   3816   3819     1   109.8000471 387.438400
   3815   3814   3816     1   109.5600471 388.275200
   3815   3814   3817     1   108.4600466 328.025600
   3816   3814   3817     1   109.5600471 388.275200
   3818   3816   3820     1   108.7700466 392.459200
   3818   3816   3819     1   107.5800459 329.699200
   3819   3816   3820     1   108.7700466 392.459200
   3820   3852   3842     1   119.3800509 410.868800
   3822   3813   3824     1   109.5600471 388.275200
   3822   3813   3823     1   108.4600466 328.025600
   3823   3813   3824     1   109.5600471 388.275200
   3825   3824   3827     1   108.7700466 392.459200
   3825   3824   3826     1   107.5800459 329.699200
   3826   3824   3827     1   108.7700466 392.459200
   3827   3876   3866     1   119.3800509 410.868800
   3829   3830   3849     1   109.5600471 388.275200
   3829   3840   3843     1   109.5600471 388.275200
   3829   3840   3844     1   109.5600471 388.275200
   3830   3832   3836     1   109.5600471 388.275200
   3830   3850   3851     1   107.2600461 396.643200
   3830   3829   3831     1   109.5600471 388.275200
   3831   3829   3840     1   109.5600471 388.275200
   3831   3829   3847     1   109.7800468 425.094400
   3832   3833   3835     1   109.5600471 388.275200
   3832   3839   3841     1   107.2600461 396.643200
   3832   3830   3849     1   109.5600471 388.275200
   3833   3834   3837     1   110.2200475 386.601600
   3833   3852   3842     1   109.2900470 396.643200
   3833   3832   3836     1   109.5600471 388.275200
   3834   3838   3848     1   107.2600461 396.643200
   3834   3833   3835     1   109.5600471 388.275200
   3835   3833   3852     1   109.8800469 414.216000
   3836   3832   3839     1   110.2600474 425.931200
   3837   3834   3838     1   109.4300470 427.604800
   3837   3834   3847     1   109.5800467 425.931200
   3840   3845   3846     1   107.2600461 396.643200
   3843   3840   3845     1   110.2600474 425.931200
   3843   3840   3844     1   108.4600466 328.025600
   3844   3840   3845     1   110.2600474 425.931200
   3849   3830   3850     1   110.2600474 425.931200
   3853   3854   3873     1   109.5600471 388.275200
   3853   3864   3867     1   109.5600471 388.275200
   3853   3864   3868     1   109.5600471 388.275200
   3854   3856   3860     1   109.5600471 388.275200
   3854   3874   3875     1   107.2600461 396.643200
   3854   3853   3855     1   109.5600471 388.275200
   3855   3853   3864     1   109.5600471 388.275200
   3855   3853   3871     1   109.7800468 425.094400
   3856   3857   3859     1   109.5600471 388.275200
   3856   3863   3865     1   107.2600461 396.643200
   3856   3854   3873     1   109.5600471 388.275200
   3857   3858   3861     1   110.2200475 386.601600
   3857   3876   3866     1   109.2900470 396.643200
   3857   3856   3860     1   109.5600471 388.275200
   3858   3862   3872     1   107.2600461 396.643200
   3858   3857   3859     1   109.5600471 388.275200
   3859   3857   3876     1   109.8800469 414.216000
   3860   3856   3863     1   110.2600474 425.931200
   3861   3858   3862     1   109.4300470 427.604800
   3861   3858   3871     1   109.5800467 425.931200
   3864   3869   3870     1   107.2600461 396.643200
   3867   3864   3869     1   110.2600474 425.931200
   3867   3864   3868     1   108.4600466 328.025600
   3868   3864   3869     1   110.2600474 425.931200
   3873   3854   3874     1   110.2600474 425.931200
   3877   3879   3880     1   108.8800464 416.726400
   3877   3879   3882     1   108.8800464 416.726400
   3878   3877   3879     1   117.6800502 383.254400
   3879   3881   3883     1   109.5600471 388.275200
   3879   3881   3884     1   109.5600471 388.275200
   3880   3879   3881     1   109.5600471 388.275200
   3880   3879   3882     1   108.4600466 328.025600
   3881   3879   3882     1   109.5600471 388.275200
   3883   3881   3885     1   109.8800469 414.216000
   3883   3881   3884     1   108.4600466 328.025600
   3884   3881   3885     1   109.8800469 414.216000
   3885   3886   3895     1   109.8800469 414.216000
   3885   3886   3896     1   109.8800469 414.216000
   3885   3887   3888     1   109.8800469 414.216000
   3885   3887   3890     1   109.8800469 414.216000
   3886   3897   3898     1   109.8000471 387.438400
   3886   3897   3899     1   109.8000471 387.438400
   3887   3889   3891     1   109.8000471 387.438400
   3887   3889   3892     1   109.8000471 387.438400
   3888   3887   3889     1   109.5600471 388.275200
   3888   3887   3890     1   108.4600466 328.025600
   3889   3887   3890     1   109.5600471 388.275200
   3891   3889   3893     1   108.7700466 392.459200
   3891   3889   3892     1   107.5800459 329.699200
   3892   3889   3893     1   108.7700466 392.459200
   3893   3925   3915     1   119.3800509 410.868800
   3895   3886   3897     1   109.5600471 388.275200
   3895   3886   3896     1   108.4600466 328.025600
   3896   3886   3897     1   109.5600471 388.275200
   3898   3897   3900     1   108.7700466 392.459200
   3898   3897   3899     1   107.5800459 329.699200
   3899   3897   3900     1   108.7700466 392.459200
   3900   3949   3939     1   119.3800509 410.868800
   3902   3903   3922     1   109.5600471 388.275200
   3902   3913   3916     1   109.5600471 388.275200
   3902   3913   3917     1   109.5600471 388.275200
   3903   3902   3904     1   109.5600471 388.275200
   3903   3905   3909     1   109.5600471 388.275200
   3903   3923   3924     1   107.2600461 396.643200
   3904   3902   3913     1   109.5600471 388.275200
   3904   3902   3920     1   109.7800468 425.094400
   3905   3903   3922     1   109.5600471 388.275200
   3905   3906   3908     1   109.5600471 388.275200
   3905   3912   3914     1   107.2600461 396.643200
   3906   3905   3909     1   109.5600471 388.275200
   3906   3907   3910     1   110.2200475 386.601600
   3906   3925   3915     1   109.2900470 396.643200
   3907   3906   3908     1   109.5600471 388.275200
   3907   3911   3921     1   107.2600461 396.643200
   3908   3906   3925     1   109.8800469 414.216000
   3909   3905   3912     1   110.2600474 425.931200
   3910   3907   3911     1   109.4300470 427.604800
   3910   3907   3920     1   109.5800467 425.931200
   3913   3918   3919     1   107.2600461 396.643200
   3916   3913   3918     1   110.2600474 425.931200
   3916   3913   3917     1   108.4600466 328.025600
   3917   3913   3918     1   110.2600474 425.931200
   3922   3903   3923     1   110.2600474 425.931200
   3926   3927   3946     1   109.5600471 388.275200
   3926   3937   3940     1   109.5600471 388.275200
   3926   3937   3941     1   109.5600471 388.275200
   3927   3926   3928     1   109.5600471 388.275200
   3927   3929   3933     1   109.5600471 388.275200
   3927   3947   3948     1   107.2600461 396.643200
   3928   3926   3937     1   109.5600471 388.275200
   3928   3926   3944     1   109.7800468 425.094400
   3929   3927   3946     1   109.5600471 388.275200
   3929   3930   3932     1   109.5600471 388.275200
   3929   3936   3938     1   107.2600461 396.643200
   3930   3929   3933     1   109.5600471 388.275200
   3930   3931   3934     1   110.2200475 386.601600
   3930   3949   3939     1   109.2900470 396.643200
   3931   3930   3932     1   109.5600471 388.275200
   3931   3935   3945     1   107.2600461 396.643200
   3932   3930   3949     1   109.8800469 414.216000
   3933   3929   3936     1   110.2600474 425.931200
   3934   3931   3935     1   109.4300470 427.604800
   3934   3931   3944     1   109.5800467 425.931200
   3937   3942   3943     1   107.2600461 396.643200
   3940   3937   3942     1   110.2600474 425.931200
   3940   3937   3941     1   108.4600466 328.025600
   3941   3937   3942     1   110.2600474 425.931200
   3946   3927   3947     1   110.2600474 425.931200
   3950   3952   3953     1   108.8800464 416.726400
   3950   3952   3955     1   108.8800464 416.726400
   3951   3950   3952     1   117.6800502 383.254400
   3952   3954   3956     1   109.5600471 388.275200
   3952   3954   3957     1   109.5600471 388.275200
   3953   3952   3954     1   109.5600471 388.275200
   3953   3952   3955     1   108.4600466 328.025600
   3954   3952   3955     1   109.5600471 388.275200
   3956   3954   3958     1   109.8800469 414.216000
   3956   3954   3957     1   108.4600466 328.025600
   3957   3954   3958     1   109.8800469 414.216000
   3958   3959   3968     1   109.8800469 414.216000
   3958   3959   3969     1   109.8800469 414.216000
   3958   3960   3961     1   109.8800469 414.216000
   3958   3960   3963     1   109.8800469 414.216000
   3959   3970   3971     1   109.8000471 387.438400
   3959   3970   3972     1   109.8000471 387.438400
   3960   3962   3964     1   109.8000471 387.438400
   3960   3962   3965     1   109.8000471 387.438400
   3961   3960   3962     1   109.5600471 388.275200
   3961   3960   3963     1   108.4600466 328.025600
   3962   3960   3963     1   109.5600471 388.275200
   3964   3962   3966     1   108.7700466 392.459200
   3964   3962   3965     1   107.5800459 329.699200
   3965   3962   3966     1   108.7700466 392.459200
   3966   3998   3988     1   119.3800509 410.868800
   3968   3959   3970     1   109.5600471 388.275200
   3968   3959   3969     1   108.4600466 328.025600
   3969   3959   3970     1   109.5600471 388.275200
   3971   3970   3973     1   108.7700466 392.459200
   3971   3970   3972     1   107.5800459 329.699200
   3972   3970   3973     1   108.7700466 392.459200
   3973   4022   4012     1   119.3800509 410.868800
   3975   3976   3995     1   109.5600471 388.275200
   3975   3986   3989     1   109.5600471 388.275200
   3975   3986   3990     1   109.5600471 388.275200
   3976   3978   3982     1   109.5600471 388.275200
   3976   3996   3997     1   107.2600461 396.643200
   3976   3975   3977     1   109.5600471 388.275200
   3977   3975   3986     1   109.5600471 388.275200
   3977   3975   3993     1   109.7800468 425.094400
   3978   3979   3981     1   109.5600471 388.275200
   3978   3985   3987     1   107.2600461 396.643200
   3978   3976   3995     1   109.5600471 388.275200
   3979   3980   3983     1   110.2200475 386.601600
   3979   3998   3988     1   109.2900470 396.643200
   3979   3978   3982     1   109.5600471 388.275200
   3980   3984   3994     1   107.2600461 396.643200
   3980   3979   3981     1   109.5600471 388.275200
   3981   3979   3998     1   109.8800469 414.216000
   3982   3978   3985     1   110.2600474 425.931200
   3983   3980   3984     1   109.4300470 427.604800
   3983   3980   3993     1   109.5800467 425.931200
   3986   3991   3992     1   107.2600461 396.643200
   3989   3986   3991     1   110.2600474 425.931200
   3989   3986   3990     1   108.4600466 328.025600
   3990   3986   3991     1   110.2600474 425.931200
   3995   3976   3996     1   110.2600474 425.931200
   3999   4000   4019     1   109.5600471 388.275200
   3999   4010   4013     1   109.5600471 388.275200
   3999   4010   4014     1   109.5600471 388.275200
   4000   4002   4006     1   109.5600471 388.275200
   4000   4020   4021     1   107.2600461 396.643200
   4000   3999   4001     1   109.5600471 388.275200
   4001   3999   4010     1   109.5600471 388.275200
   4001   3999   4017     1   109.7800468 425.094400
   4002   4003   4005     1   109.5600471 388.275200
   4002   4009   4011     1   107.2600461 396.643200
   4002   4000   4019     1   109.5600471 388.275200
   4003   4004   4007     1   110.2200475 386.601600
   4003   4022   4012     1   109.2900470 396.643200
   4003   4002   4006     1   109.5600471 388.275200
   4004   4008   4018     1   107.2600461 396.643200
   4004   4003   4005     1   109.5600471 388.275200
   4005   4003   4022     1   109.8800469 414.216000
   4006   4002   4009     1   110.2600474 425.931200
   4007   4004   4008     1   109.4300470 427.604800
   4007   4004   4017     1   109.5800467 425.931200
   4010   4015   4016     1   107.2600461 396.643200
   4013   4010   4015     1   110.2600474 425.931200
   4013   4010   4014     1   108.4600466 328.025600
   4014   4010   4015     1   110.2600474 425.931200
   4019   4000   4020     1   110.2600474 425.931200
   4023   4025   4026     1   108.8800464 416.726400
   4023   4025   4028     1   108.8800464 416.726400
   4024   4023   4025     1   117.6800502 383.254400
   4025   4027   4029     1   109.5600471 388.275200
   4025   4027   4030     1   109.5600471 388.275200
   4026   4025   4027     1   109.5600471 388.275200
   4026   4025   4028     1   108.4600466 328.025600
   4027   4025   4028     1   109.5600471 388.275200
   4029   4027   4031     1   109.8800469 414.216000
   4029   4027   4030     1   108.4600466 328.025600
   4030   4027   4031     1   109.8800469 414.216000
   4031   4032   4041     1   109.8800469 414.216000
   4031   4032   4042     1   109.8800469 414.216000
   4031   4033   4034     1   109.8800469 414.216000
   4031   4033   4036     1   109.8800469 414.216000
   4032   4043   4044     1   109.8000471 387.438400
   4032   4043   4045     1   109.8000471 387.438400
   4033   4035   4037     1   109.8000471 387.438400
   4033   4035   4038     1   109.8000471 387.438400
   4034   4033   4035     1   109.5600471 388.275200
   4034   4033   4036     1   108.4600466 328.025600
   4035   4033   4036     1   109.5600471 388.275200
   4037   4035   4039     1   108.7700466 392.459200
   4037   4035   4038     1   107.5800459 329.699200
   4038   4035   4039     1   108.7700466 392.459200
   4039   4071   4061     1   119.3800509 410.868800
   4041   4032   4043     1   109.5600471 388.275200
   4041   4032   4042     1   108.4600466 328.025600
   4042   4032   4043     1   109.5600471 388.275200
   4044   4043   4046     1   108.7700466 392.459200
   4044   4043   4045     1   107.5800459 329.699200
   4045   4043   4046     1   108.7700466 392.459200
   4046   4095   4085     1   119.3800509 410.868800
   4048   4049   4068     1   109.5600471 388.275200
   4048   4059   4062     1   109.5600471 388.275200
   4048   4059   4063     1   109.5600471 388.275200
   4049   4048   4050     1   109.5600471 388.275200
   4049   4051   4055     1   109.5600471 388.275200
   4049   4069   4070     1   107.2600461 396.643200
   4050   4048   4059     1   109.5600471 388.275200
   4050   4048   4066     1   109.7800468 425.094400
   4051   4049   4068     1   109.5600471 388.275200
   4051   4052   4054     1   109.5600471 388.275200
   4051   4058   4060     1   107.2600461 396.643200
   4052   4051   4055     1   109.5600471 388.275200
   4052   4053   4056     1   110.2200475 386.601600
   4052   4071   4061     1   109.2900470 396.643200
   4053   4052   4054     1   109.5600471 388.275200
   4053   4057   4067     1   107.2600461 396.643200
   4054   4052   4071     1   109.8800469 414.216000
   4055   4051   4058     1   110.2600474 425.931200
   4056   4053   4057     1   109.4300470 427.604800
   4056   4053   4066     1   109.5800467 425.931200
   4059   4064   4065     1   107.2600461 396.643200
   4062   4059   4064     1   110.2600474 425.931200
   4062   4059   4063     1   108.4600466 328.025600
   4063   4059   4064     1   110.2600474 425.931200
   4068   4049   4069     1   110.2600474 425.931200
   4072   4073   4092     1   109.5600471 388.275200
   4072   4083   4086     1   109.5600471 388.275200
   4072   4083   4087     1   109.5600471 388.275200
   4073   4072   4074     1   109.5600471 388.275200
   4073   4075   4079     1   109.5600471 388.275200
   4073   4093   4094     1   107.2600461 396.643200
   4074   4072   4083     1   109.5600471 388.275200
   4074   4072   4090     1   109.7800468 425.094400
   4075   4073   4092     1   109.5600471 388.275200
   4075   4076   4078     1   109.5600471 388.275200
   4075   4082   4084     1   107.2600461 396.643200
   4076   4075   4079     1   109.5600471 388.275200
   4076   4077   4080     1   110.2200475 386.601600
   4076   4095   4085     1   109.2900470 396.643200
   4077   4076   4078     1   109.5600471 388.275200
   4077   4081   4091     1   107.2600461 396.643200
   4078   4076   4095     1   109.8800469 414.216000
   4079   4075   4082     1   110.2600474 425.931200
   4080   4077   4081     1   109.4300470 427.604800
   4080   4077   4090     1   109.5800467 425.931200
   4083   4088   4089     1   107.2600461 396.643200
   4086   4083   4088     1   110.2600474 425.931200
   4086   4083   4087     1   108.4600466 328.025600
   4087   4083   4088     1   110.2600474 425.931200
   4092   4073   4093     1   110.2600474 425.931200
   4096   4098   4099     1   108.8800464 416.726400
   4096   4098   4101     1   108.8800464 416.726400
   4097   4096   4098     1   117.6800502 383.254400
   4098   4100   4102     1   109.5600471 388.275200
   4098   4100   4103     1   109.5600471 388.275200
   4099   4098   4100     1   109.5600471 388.275200
   4099   4098   4101     1   108.4600466 328.025600
   4100   4098   4101     1   109.5600471 388.275200
   4102   4100   4104     1   109.8800469 414.216000
   4102   4100   4103     1   108.4600466 328.025600
   4103   4100   4104     1   109.8800469 414.216000
   4104   4105   4114     1   109.8800469 414.216000
   4104   4105   4115     1   109.8800469 414.216000
   4104   4106   4107     1   109.8800469 414.216000
   4104   4106   4109     1   109.8800469 414.216000
   4105   4116   4117     1   109.8000471 387.438400
   4105   4116   4118     1   109.8000471 387.438400
   4106   4108   4110     1   109.8000471 387.438400
   4106   4108   4111     1   109.8000471 387.438400
   4107   4106   4108     1   109.5600471 388.275200
   4107   4106   4109     1   108.4600466 328.025600
   4108   4106   4109     1   109.5600471 388.275200
   4110   4108   4112     1   108.7700466 392.459200
   4110   4108   4111     1   107.5800459 329.699200
   4111   4108   4112     1   108.7700466 392.459200
   4112   4144   4134     1   119.3800509 410.868800
   4114   4105   4116     1   109.5600471 388.275200
   4114   4105   4115     1   108.4600466 328.025600
   4115   4105   4116     1   109.5600471 388.275200
   4117   4116   4119     1   108.7700466 392.459200
   4117   4116   4118     1   107.5800459 329.699200
   4118   4116   4119     1   108.7700466 392.459200
   4119   4168   4158     1   119.3800509 410.868800
   4121   4122   4141     1   109.5600471 388.275200
   4121   4132   4135     1   109.5600471 388.275200
   4121   4132   4136     1   109.5600471 388.275200
   4122   4124   4128     1   109.5600471 388.275200
   4122   4142   4143     1   107.2600461 396.643200
   4122   4121   4123     1   109.5600471 388.275200
   4123   4121   4132     1   109.5600471 388.275200
   4123   4121   4139     1   109.7800468 425.094400
   4124   4125   4127     1   109.5600471 388.275200
   4124   4131   4133     1   107.2600461 396.643200
   4124   4122   4141     1   109.5600471 388.275200
   4125   4126   4129     1   110.2200475 386.601600
   4125   4144   4134     1   109.2900470 396.643200
   4125   4124   4128     1   109.5600471 388.275200
   4126   4130   4140     1   107.2600461 396.643200
   4126   4125   4127     1   109.5600471 388.275200
   4127   4125   4144     1   109.8800469 414.216000
   4128   4124   4131     1   110.2600474 425.931200
   4129   4126   4130     1   109.4300470 427.604800
   4129   4126   4139     1   109.5800467 425.931200
   4132   4137   4138     1   107.2600461 396.643200
   4135   4132   4137     1   110.2600474 425.931200
   4135   4132   4136     1   108.4600466 328.025600
   4136   4132   4137     1   110.2600474 425.931200
   4141   4122   4142     1   110.2600474 425.931200
   4145   4146   4165     1   109.5600471 388.275200
   4145   4156   4159     1   109.5600471 388.275200
   4145   4156   4160     1   109.5600471 388.275200
   4146   4148   4152     1   109.5600471 388.275200
   4146   4166   4167     1   107.2600461 396.643200
   4146   4145   4147     1   109.5600471 388.275200
   4147   4145   4156     1   109.5600471 388.275200
   4147   4145   4163     1   109.7800468 425.094400
   4148   4149   4151     1   109.5600471 388.275200
   4148   4155   4157     1   107.2600461 396.643200
   4148   4146   4165     1   109.5600471 388.275200
   4149   4150   4153     1   110.2200475 386.601600
   4149   4168   4158     1   109.2900470 396.643200
   4149   4148   4152     1   109.5600471 388.275200
   4150   4154   4164     1   107.2600461 396.643200
   4150   4149   4151     1   109.5600471 388.275200
   4151   4149   4168     1   109.8800469 414.216000
   4152   4148   4155     1   110.2600474 425.931200
   4153   4150   4154     1   109.4300470 427.604800
   4153   4150   4163     1   109.5800467 425.931200
   4156   4161   4162     1   107.2600461 396.643200
   4159   4156   4161     1   110.2600474 425.931200
   4159   4156   4160     1   108.4600466 328.025600
   4160   4156   4161     1   110.2600474 425.931200
   4165   4146   4166     1   110.2600474 425.931200
   4169   4171   4172     1   108.8800464 416.726400
   4169   4171   4174     1   108.8800464 416.726400
   4170   4169   4171     1   117.6800502 383.254400
   4171   4173   4175     1   109.5600471 388.275200
   4171   4173   4176     1   109.5600471 388.275200
   4172   4171   4173     1   109.5600471 388.275200
   4172   4171   4174     1   108.4600466 328.025600
   4173   4171   4174     1   109.5600471 388.275200
   4175   4173   4177     1   109.8800469 414.216000
   4175   4173   4176     1   108.4600466 328.025600
   4176   4173   4177     1   109.8800469 414.216000
   4177   4178   4187     1   109.8800469 414.216000
   4177   4178   4188     1   109.8800469 414.216000
   4177   4179   4180     1   109.8800469 414.216000
   4177   4179   4182     1   109.8800469 414.216000
   4178   4189   4190     1   109.8000471 387.438400
   4178   4189   4191     1   109.8000471 387.438400
   4179   4181   4183     1   109.8000471 387.438400
   4179   4181   4184     1   109.8000471 387.438400
   4180   4179   4181     1   109.5600471 388.275200
   4180   4179   4182     1   108.4600466 328.025600
   4181   4179   4182     1   109.5600471 388.275200
   4183   4181   4185     1   108.7700466 392.459200
   4183   4181   4184     1   107.5800459 329.699200
   4184   4181   4185     1   108.7700466 392.459200
   4185   4217   4207     1   119.3800509 410.868800
   4187   4178   4189     1   109.5600471 388.275200
   4187   4178   4188     1   108.4600466 328.025600
   4188   4178   4189     1   109.5600471 388.275200
   4190   4189   4192     1   108.7700466 392.459200
   4190   4189   4191     1   107.5800459 329.699200
   4191   4189   4192     1   108.7700466 392.459200
   4192   4241   4231     1   119.3800509 410.868800
   4194   4195   4214     1   109.5600471 388.275200
   4194   4205   4208     1   109.5600471 388.275200
   4194   4205   4209     1   109.5600471 388.275200
   4195   4194   4196     1   109.5600471 388.275200
   4195   4197   4201     1   109.5600471 388.275200
   4195   4215   4216     1   107.2600461 396.643200
   4196   4194   4205     1   109.5600471 388.275200
   4196   4194   4212     1   109.7800468 425.094400
   4197   4195   4214     1   109.5600471 388.275200
   4197   4198   4200     1   109.5600471 388.275200
   4197   4204   4206     1   107.2600461 396.643200
   4198   4197   4201     1   109.5600471 388.275200
   4198   4199   4202     1   110.2200475 386.601600
   4198   4217   4207     1   109.2900470 396.643200
   4199   4198   4200     1   109.5600471 388.275200
   4199   4203   4213     1   107.2600461 396.643200
   4200   4198   4217     1   109.8800469 414.216000
   4201   4197   4204     1   110.2600474 425.931200
   4202   4199   4203     1   109.4300470 427.604800
   4202   4199   4212     1   109.5800467 425.931200
   4205   4210   4211     1   107.2600461 396.643200
   4208   4205   4210     1   110.2600474 425.931200
   4208   4205   4209     1   108.4600466 328.025600
   4209   4205   4210     1   110.2600474 425.931200
   4214   4195   4215     1   110.2600474 425.931200
   4218   4219   4238     1   109.5600471 388.275200
   4218   4229   4232     1   109.5600471 388.275200
   4218   4229   4233     1   109.5600471 388.275200
   4219   4218   4220     1   109.5600471 388.275200
   4219   4221   4225     1   109.5600471 388.275200
   4219   4239   4240     1   107.2600461 396.643200
   4220   4218   4229     1   109.5600471 388.275200
   4220   4218   4236     1   109.7800468 425.094400
   4221   4219   4238     1   109.5600471 388.275200
   4221   4222   4224     1   109.5600471 388.275200
   4221   4228   4230     1   107.2600461 396.643200
   4222   4221   4225     1   109.5600471 388.275200
   4222   4223   4226     1   110.2200475 386.601600
   4222   4241   4231     1   109.2900470 396.643200
   4223   4222   4224     1   109.5600471 388.275200
   4223   4227   4237     1   107.2600461 396.643200
   4224   4222   4241     1   109.8800469 414.216000
   4225   4221   4228     1   110.2600474 425.931200
   4226   4223   4227     1   109.4300470 427.604800
   4226   4223   4236     1   109.5800467 425.931200
   4229   4234   4235     1   107.2600461 396.643200
   4232   4229   4234     1   110.2600474 425.931200
   4232   4229   4233     1   108.4600466 328.025600
   4233   4229   4234     1   110.2600474 425.931200
   4238   4219   4239     1   110.2600474 425.931200
   4242   4244   4245     1   108.8800464 416.726400
   4242   4244   4247     1   108.8800464 416.726400
   4243   4242   4244     1   117.6800502 383.254400
   4244   4246   4248     1   109.5600471 388.275200
   4244   4246   4249     1   109.5600471 388.275200
   4245   4244   4246     1   109.5600471 388.275200
   4245   4244   4247     1   108.4600466 328.025600
   4246   4244   4247     1   109.5600471 388.275200
   4248   4246   4250     1   109.8800469 414.216000
   4248   4246   4249     1   108.4600466 328.025600
   4249   4246   4250     1   109.8800469 414.216000
   4250   4251   4260     1   109.8800469 414.216000
   4250   4251   4261     1   109.8800469 414.216000
   4250   4252   4253     1   109.8800469 414.216000
   4250   4252   4255     1   109.8800469 414.216000
   4251   4262   4263     1   109.8000471 387.438400
   4251   4262   4264     1   109.8000471 387.438400
   4252   4254   4256     1   109.8000471 387.438400
   4252   4254   4257     1   109.8000471 387.438400
   4253   4252   4254     1   109.5600471 388.275200
   4253   4252   4255     1   108.4600466 328.025600
   4254   4252   4255     1   109.5600471 388.275200
   4256   4254   4258     1   108.7700466 392.459200
   4256   4254   4257     1   107.5800459 329.699200
   4257   4254   4258     1   108.7700466 392.459200
   4258   4290   4280     1   119.3800509 410.868800
   4260   4251   4262     1   109.5600471 388.275200
   4260   4251   4261     1   108.4600466 328.025600
   4261   4251   4262     1   109.5600471 388.275200
   4263   4262   4265     1   108.7700466 392.459200
   4263   4262   4264     1   107.5800459 329.699200
   4264   4262   4265     1   108.7700466 392.459200
   4265   4314   4304     1   119.3800509 410.868800
   4267   4268   4287     1   109.5600471 388.275200
   4267   4278   4281     1   109.5600471 388.275200
   4267   4278   4282     1   109.5600471 388.275200
   4268   4270   4274     1   109.5600471 388.275200
   4268   4288   4289     1   107.2600461 396.643200
   4268   4267   4269     1   109.5600471 388.275200
   4269   4267   4278     1   109.5600471 388.275200
   4269   4267   4285     1   109.7800468 425.094400
   4270   4271   4273     1   109.5600471 388.275200
   4270   4277   4279     1   107.2600461 396.643200
   4270   4268   4287     1   109.5600471 388.275200
   4271   4272   4275     1   110.2200475 386.601600
   4271   4290   4280     1   109.2900470 396.643200
   4271   4270   4274     1   109.5600471 388.275200
   4272   4276   4286     1   107.2600461 396.643200
   4272   4271   4273     1   109.5600471 388.275200
   4273   4271   4290     1   109.8800469 414.216000
   4274   4270   4277     1   110.2600474 425.931200
   4275   4272   4276     1   109.4300470 427.604800
   4275   4272   4285     1   109.5800467 425.931200
   4278   4283   4284     1   107.2600461 396.643200
   4281   4278   4283     1   110.2600474 425.931200
   4281   4278   4282     1   108.4600466 328.025600
   4282   4278   4283     1   110.2600474 425.931200
   4287   4268   4288     1   110.2600474 425.931200
   4291   4292   4311     1   109.5600471 388.275200
   4291   4302   4305     1   109.5600471 388.275200
   4291   4302   4306     1   109.5600471 388.275200
   4292   4294   4298     1   109.5600471 388.275200
   4292   4312   4313     1   107.2600461 396.643200
   4292   4291   4293     1   109.5600471 388.275200
   4293   4291   4302     1   109.5600471 388.275200
   4293   4291   4309     1   109.7800468 425.094400
   4294   4295   4297     1   109.5600471 388.275200
   4294   4301   4303     1   107.2600461 396.643200
   4294   4292   4311     1   109.5600471 388.275200
   4295   4296   4299     1   110.2200475 386.601600
   4295   4314   4304     1   109.2900470 396.643200
   4295   4294   4298     1   109.5600471 388.275200
   4296   4300   4310     1   107.2600461 396.643200
   4296   4295   4297     1   109.5600471 388.275200
   4297   4295   4314     1   109.8800469 414.216000
   4298   4294   4301     1   110.2600474 425.931200
   4299   4296   4300     1   109.4300470 427.604800
   4299   4296   4309     1   109.5800467 425.931200
   4302   4307   4308     1   107.2600461 396.643200
   4305   4302   4307     1   110.2600474 425.931200
   4305   4302   4306     1   108.4600466 328.025600
   4306   4302   4307     1   110.2600474 425.931200
   4311   4292   4312     1   110.2600474 425.931200
   4315   4317   4318     1   108.8800464 416.726400
   4315   4317   4320     1   108.8800464 416.726400
   4316   4315   4317     1   117.6800502 383.254400
   4317   4319   4321     1   109.5600471 388.275200
   4317   4319   4322     1   109.5600471 388.275200
   4318   4317   4319     1   109.5600471 388.275200
   4318   4317   4320     1   108.4600466 328.025600
   4319   4317   4320     1   109.5600471 388.275200
   4321   4319   4323     1   109.8800469 414.216000
   4321   4319   4322     1   108.4600466 328.025600
   4322   4319   4323     1   109.8800469 414.216000
   4323   4324   4333     1   109.8800469 414.216000
   4323   4324   4334     1   109.8800469 414.216000
   4323   4325   4326     1   109.8800469 414.216000
   4323   4325   4328     1   109.8800469 414.216000
   4324   4335   4336     1   109.8000471 387.438400
   4324   4335   4337     1   109.8000471 387.438400
   4325   4327   4329     1   109.8000471 387.438400
   4325   4327   4330     1   109.8000471 387.438400
   4326   4325   4327     1   109.5600471 388.275200
   4326   4325   4328     1   108.4600466 328.025600
   4327   4325   4328     1   109.5600471 388.275200
   4329   4327   4331     1   108.7700466 392.459200
   4329   4327   4330     1   107.5800459 329.699200
   4330   4327   4331     1   108.7700466 392.459200
   4331   4363   4353     1   119.3800509 410.868800
   4333   4324   4335     1   109.5600471 388.275200
   4333   4324   4334     1   108.4600466 328.025600
   4334   4324   4335     1   109.5600471 388.275200
   4336   4335   4338     1   108.7700466 392.459200
   4336   4335   4337     1   107.5800459 329.699200
   4337   4335   4338     1   108.7700466 392.459200
   4338   4387   4377     1   119.3800509 410.868800
   4340   4341   4360     1   109.5600471 388.275200
   4340   4351   4354     1   109.5600471 388.275200
   4340   4351   4355     1   109.5600471 388.275200
   4341   4340   4342     1   109.5600471 388.275200
   4341   4343   4347     1   109.5600471 388.275200
   4341   4361   4362     1   107.2600461 396.643200
   4342   4340   4351     1   109.5600471 388.275200
   4342   4340   4358     1   109.7800468 425.094400
   4343   4341   4360     1   109.5600471 388.275200
   4343   4344   4346     1   109.5600471 388.275200
   4343   4350   4352     1   107.2600461 396.643200
   4344   4343   4347     1   109.5600471 388.275200
   4344   4345   4348     1   110.2200475 386.601600
   4344   4363   4353     1   109.2900470 396.643200
   4345   4344   4346     1   109.5600471 388.275200
   4345   4349   4359     1   107.2600461 396.643200
   4346   4344   4363     1   109.8800469 414.216000
   4347   4343   4350     1   110.2600474 425.931200
   4348   4345   4349     1   109.4300470 427.604800
   4348   4345   4358     1   109.5800467 425.931200
   4351   4356   4357     1   107.2600461 396.643200
   4354   4351   4356     1   110.2600474 425.931200
   4354   4351   4355     1   108.4600466 328.025600
   4355   4351   4356     1   110.2600474 425.931200
   4360   4341   4361     1   110.2600474 425.931200
   4364   4365   4384     1   109.5600471 388.275200
   4364   4375   4378     1   109.5600471 388.275200
   4364   4375   4379     1   109.5600471 388.275200
   4365   4364   4366     1   109.5600471 388.275200
   4365   4367   4371     1   109.5600471 388.275200
   4365   4385   4386     1   107.2600461 396.643200
   4366   4364   4375     1   109.5600471 388.275200
   4366   4364   4382     1   109.7800468 425.094400
   4367   4365   4384     1   109.5600471 388.275200
   4367   4368   4370     1   109.5600471 388.275200
   4367   4374   4376     1   107.2600461 396.643200
   4368   4367   4371     1   109.5600471 388.275200
   4368   4369   4372     1   110.2200475 386.601600
   4368   4387   4377     1   109.2900470 396.643200
   4369   4368   4370     1   109.5600471 388.275200
   4369   4373   4383     1   107.2600461 396.643200
   4370   4368   4387     1   109.8800469 414.216000
   4371   4367   4374     1   110.2600474 425.931200
   4372   4369   4373     1   109.4300470 427.604800
   4372   4369   4382     1   109.5800467 425.931200
   4375   4380   4381     1   107.2600461 396.643200
   4378   4375   4380     1   110.2600474 425.931200
   4378   4375   4379     1   108.4600466 328.025600
   4379   4375   4380     1   110.2600474 425.931200
   4384   4365   4385     1   110.2600474 425.931200
   4388   4390   4391     1   108.8800464 416.726400
   4388   4390   4393     1   108.8800464 416.726400
   4389   4388   4390     1   117.6800502 383.254400
   4390   4392   4394     1   109.5600471 388.275200
   4390   4392   4395     1   109.5600471 388.275200
   4391   4390   4392     1   109.5600471 388.275200
   4391   4390   4393     1   108.4600466 328.025600
   4392   4390   4393     1   109.5600471 388.275200
   4394   4392   4396     1   109.8800469 414.216000
   4394   4392   4395     1   108.4600466 328.025600
   4395   4392   4396     1   109.8800469 414.216000
   4396   4397   4406     1   109.8800469 414.216000
   4396   4397   4407     1   109.8800469 414.216000
   4396   4398   4399     1   109.8800469 414.216000
   4396   4398   4401     1   109.8800469 414.216000
   4397   4408   4409     1   109.8000471 387.438400
   4397   4408   4410     1   109.8000471 387.438400
   4398   4400   4402     1   109.8000471 387.438400
   4398   4400   4403     1   109.8000471 387.438400
   4399   4398   4400     1   109.5600471 388.275200
   4399   4398   4401     1   108.4600466 328.025600
   4400   4398   4401     1   109.5600471 388.275200
   4402   4400   4404     1   108.7700466 392.459200
   4402   4400   4403     1   107.5800459 329.699200
   4403   4400   4404     1   108.7700466 392.459200
   4404   4436   4426     1   119.3800509 410.868800
   4406   4397   4408     1   109.5600471 388.275200
   4406   4397   4407     1   108.4600466 328.025600
   4407   4397   4408     1   109.5600471 388.275200
   4409   4408   4411     1   108.7700466 392.459200
   4409   4408   4410     1   107.5800459 329.699200
   4410   4408   4411     1   108.7700466 392.459200
   4411   4460   4450     1   119.3800509 410.868800
   4413   4414   4433     1   109.5600471 388.275200
   4413   4424   4427     1   109.5600471 388.275200
   4413   4424   4428     1   109.5600471 388.275200
   4414   4416   4420     1   109.5600471 388.275200
   4414   4434   4435     1   107.2600461 396.643200
   4414   4413   4415     1   109.5600471 388.275200
   4415   4413   4424     1   109.5600471 388.275200
   4415   4413   4431     1   109.7800468 425.094400
   4416   4417   4419     1   109.5600471 388.275200
   4416   4423   4425     1   107.2600461 396.643200
   4416   4414   4433     1   109.5600471 388.275200
   4417   4418   4421     1   110.2200475 386.601600
   4417   4436   4426     1   109.2900470 396.643200
   4417   4416   4420     1   109.5600471 388.275200
   4418   4422   4432     1   107.2600461 396.643200
   4418   4417   4419     1   109.5600471 388.275200
   4419   4417   4436     1   109.8800469 414.216000
   4420   4416   4423     1   110.2600474 425.931200
   4421   4418   4422     1   109.4300470 427.604800
   4421   4418   4431     1   109.5800467 425.931200
   4424   4429   4430     1   107.2600461 396.643200
   4427   4424   4429     1   110.2600474 425.931200
   4427   4424   4428     1   108.4600466 328.025600
   4428   4424   4429     1   110.2600474 425.931200
   4433   4414   4434     1   110.2600474 425.931200
   4437   4438   4457     1   109.5600471 388.275200
   4437   4448   4451     1   109.5600471 388.275200
   4437   4448   4452     1   109.5600471 388.275200
   4438   4440   4444     1   109.5600471 388.275200
   4438   4458   4459     1   107.2600461 396.643200
   4438   4437   4439     1   109.5600471 388.275200
   4439   4437   4448     1   109.5600471 388.275200
   4439   4437   4455     1   109.7800468 425.094400
   4440   4441   4443     1   109.5600471 388.275200
   4440   4447   4449     1   107.2600461 396.643200
   4440   4438   4457     1   109.5600471 388.275200
   4441   4442   4445     1   110.2200475 386.601600
   4441   4460   4450     1   109.2900470 396.643200
   4441   4440   4444     1   109.5600471 388.275200
   4442   4446   4456     1   107.2600461 396.643200
   4442   4441   4443     1   109.5600471 388.275200
   4443   4441   4460     1   109.8800469 414.216000
   4444   4440   4447     1   110.2600474 425.931200
   4445   4442   4446     1   109.4300470 427.604800
   4445   4442   4455     1   109.5800467 425.931200
   4448   4453   4454     1   107.2600461 396.643200
   4451   4448   4453     1   110.2600474 425.931200
   4451   4448   4452     1   108.4600466 328.025600
   4452   4448   4453     1   110.2600474 425.931200
   4457   4438   4458     1   110.2600474 425.931200
   4461   4463   4464     1   108.8800464 416.726400
   4461   4463   4466     1   108.8800464 416.726400
   4462   4461   4463     1   117.6800502 383.254400
   4463   4465   4467     1   109.5600471 388.275200
   4463   4465   4468     1   109.5600471 388.275200
   4464   4463   4465     1   109.5600471 388.275200
   4464   4463   4466     1   108.4600466 328.025600
   4465   4463   4466     1   109.5600471 388.275200
   4467   4465   4469     1   109.8800469 414.216000
   4467   4465   4468     1   108.4600466 328.025600
   4468   4465   4469     1   109.8800469 414.216000
   4469   4470   4479     1   109.8800469 414.216000
   4469   4470   4480     1   109.8800469 414.216000
   4469   4471   4472     1   109.8800469 414.216000
   4469   4471   4474     1   109.8800469 414.216000
   4470   4481   4482     1   109.8000471 387.438400
   4470   4481   4483     1   109.8000471 387.438400
   4471   4473   4475     1   109.8000471 387.438400
   4471   4473   4476     1   109.8000471 387.438400
   4472   4471   4473     1   109.5600471 388.275200
   4472   4471   4474     1   108.4600466 328.025600
   4473   4471   4474     1   109.5600471 388.275200
   4475   4473   4477     1   108.7700466 392.459200
   4475   4473   4476     1   107.5800459 329.699200
   4476   4473   4477     1   108.7700466 392.459200
   4477   4509   4499     1   119.3800509 410.868800
   4479   4470   4481     1   109.5600471 388.275200
   4479   4470   4480     1   108.4600466 328.025600
   4480   4470   4481     1   109.5600471 388.275200
   4482   4481   4484     1   108.7700466 392.459200
   4482   4481   4483     1   107.5800459 329.699200
   4483   4481   4484     1   108.7700466 392.459200
   4484   4533   4523     1   119.3800509 410.868800
   4486   4487   4506     1   109.5600471 388.275200
   4486   4497   4500     1   109.5600471 388.275200
   4486   4497   4501     1   109.5600471 388.275200
   4487   4486   4488     1   109.5600471 388.275200
   4487   4489   4493     1   109.5600471 388.275200
   4487   4507   4508     1   107.2600461 396.643200
   4488   4486   4497     1   109.5600471 388.275200
   4488   4486   4504     1   109.7800468 425.094400
   4489   4487   4506     1   109.5600471 388.275200
   4489   4490   4492     1   109.5600471 388.275200
   4489   4496   4498     1   107.2600461 396.643200
   4490   4489   4493     1   109.5600471 388.275200
   4490   4491   4494     1   110.2200475 386.601600
   4490   4509   4499     1   109.2900470 396.643200
   4491   4490   4492     1   109.5600471 388.275200
   4491   4495   4505     1   107.2600461 396.643200
   4492   4490   4509     1   109.8800469 414.216000
   4493   4489   4496     1   110.2600474 425.931200
   4494   4491   4495     1   109.4300470 427.604800
   4494   4491   4504     1   109.5800467 425.931200
   4497   4502   4503     1   107.2600461 396.643200
   4500   4497   4502     1   110.2600474 425.931200
   4500   4497   4501     1   108.4600466 328.025600
   4501   4497   4502     1   110.2600474 425.931200
   4506   4487   4507     1   110.2600474 425.931200
   4510   4511   4530     1   109.5600471 388.275200
   4510   4521   4524     1   109.5600471 388.275200
   4510   4521   4525     1   109.5600471 388.275200
   4511   4510   4512     1   109.5600471 388.275200
   4511   4513   4517     1   109.5600471 388.275200
   4511   4531   4532     1   107.2600461 396.643200
   4512   4510   4521     1   109.5600471 388.275200
   4512   4510   4528     1   109.7800468 425.094400
   4513   4511   4530     1   109.5600471 388.275200
   4513   4514   4516     1   109.5600471 388.275200
   4513   4520   4522     1   107.2600461 396.643200
   4514   4513   4517     1   109.5600471 388.275200
   4514   4515   4518     1   110.2200475 386.601600
   4514   4533   4523     1   109.2900470 396.643200
   4515   4514   4516     1   109.5600471 388.275200
   4515   4519   4529     1   107.2600461 396.643200
   4516   4514   4533     1   109.8800469 414.216000
   4517   4513   4520     1   110.2600474 425.931200
   4518   4515   4519     1   109.4300470 427.604800
   4518   4515   4528     1   109.5800467 425.931200
   4521   4526   4527     1   107.2600461 396.643200
   4524   4521   4526     1   110.2600474 425.931200
   4524   4521   4525     1   108.4600466 328.025600
   4525   4521   4526     1   110.2600474 425.931200
   4530   4511   4531     1   110.2600474 425.931200
   4534   4536   4537     1   108.8800464 416.726400
   4534   4536   4539     1   108.8800464 416.726400
   4535   4534   4536     1   117.6800502 383.254400
   4536   4538   4540     1   109.5600471 388.275200
   4536   4538   4541     1   109.5600471 388.275200
   4537   4536   4538     1   109.5600471 388.275200
   4537   4536   4539     1   108.4600466 328.025600
   4538   4536   4539     1   109.5600471 388.275200
   4540   4538   4542     1   109.8800469 414.216000
   4540   4538   4541     1   108.4600466 328.025600
   4541   4538   4542     1   109.8800469 414.216000
   4542   4543   4552     1   109.8800469 414.216000
   4542   4543   4553     1   109.8800469 414.216000
   4542   4544   4545     1   109.8800469 414.216000
   4542   4544   4547     1   109.8800469 414.216000
   4543   4554   4555     1   109.8000471 387.438400
   4543   4554   4556     1   109.8000471 387.438400
   4544   4546   4548     1   109.8000471 387.438400
   4544   4546   4549     1   109.8000471 387.438400
   4545   4544   4546     1   109.5600471 388.275200
   4545   4544   4547     1   108.4600466 328.025600
   4546   4544   4547     1   109.5600471 388.275200
   4548   4546   4550     1   108.7700466 392.459200
   4548   4546   4549     1   107.5800459 329.699200
   4549   4546   4550     1   108.7700466 392.459200
   4550   4582   4572     1   119.3800509 410.868800
   4552   4543   4554     1   109.5600471 388.275200
   4552   4543   4553     1   108.4600466 328.025600
   4553   4543   4554     1   109.5600471 388.275200
   4555   4554   4557     1   108.7700466 392.459200
   4555   4554   4556     1   107.5800459 329.699200
   4556   4554   4557     1   108.7700466 392.459200
   4557   4606   4596     1   119.3800509 410.868800
   4559   4560   4579     1   109.5600471 388.275200
   4559   4570   4573     1   109.5600471 388.275200
   4559   4570   4574     1   109.5600471 388.275200
   4560   4562   4566     1   109.5600471 388.275200
   4560   4580   4581     1   107.2600461 396.643200
   4560   4559   4561     1   109.5600471 388.275200
   4561   4559   4570     1   109.5600471 388.275200
   4561   4559   4577     1   109.7800468 425.094400
   4562   4563   4565     1   109.5600471 388.275200
   4562   4569   4571     1   107.2600461 396.643200
   4562   4560   4579     1   109.5600471 388.275200
   4563   4564   4567     1   110.2200475 386.601600
   4563   4582   4572     1   109.2900470 396.643200
   4563   4562   4566     1   109.5600471 388.275200
   4564   4568   4578     1   107.2600461 396.643200
   4564   4563   4565     1   109.5600471 388.275200
   4565   4563   4582     1   109.8800469 414.216000
   4566   4562   4569     1   110.2600474 425.931200
   4567   4564   4568     1   109.4300470 427.604800
   4567   4564   4577     1   109.5800467 425.931200
   4570   4575   4576     1   107.2600461 396.643200
   4573   4570   4575     1   110.2600474 425.931200
   4573   4570   4574     1   108.4600466 328.025600
   4574   4570   4575     1   110.2600474 425.931200
   4579   4560   4580     1   110.2600474 425.931200
   4583   4584   4603     1   109.5600471 388.275200
   4583   4594   4597     1   109.5600471 388.275200
   4583   4594   4598     1   109.5600471 388.275200
   4584   4586   4590     1   109.5600471 388.275200
   4584   4604   4605     1   107.2600461 396.643200
   4584   4583   4585     1   109.5600471 388.275200
   4585   4583   4594     1   109.5600471 388.275200
   4585   4583   4601     1   109.7800468 425.094400
   4586   4587   4589     1   109.5600471 388.275200
   4586   4593   4595     1   107.2600461 396.643200
   4586   4584   4603     1   109.5600471 388.275200
   4587   4588   4591     1   110.2200475 386.601600
   4587   4606   4596     1   109.2900470 396.643200
   4587   4586   4590     1   109.5600471 388.275200
   4588   4592   4602     1   107.2600461 396.643200
   4588   4587   4589     1   109.5600471 388.275200
   4589   4587   4606     1   109.8800469 414.216000
   4590   4586   4593     1   110.2600474 425.931200
   4591   4588   4592     1   109.4300470 427.604800
   4591   4588   4601     1   109.5800467 425.931200
   4594   4599   4600     1   107.2600461 396.643200
   4597   4594   4599     1   110.2600474 425.931200
   4597   4594   4598     1   108.4600466 328.025600
   4598   4594   4599     1   110.2600474 425.931200
   4603   4584   4604     1   110.2600474 425.931200
   4607   4609   4610     1   108.8800464 416.726400
   4607   4609   4612     1   108.8800464 416.726400
   4608   4607   4609     1   117.6800502 383.254400
   4609   4611   4613     1   109.5600471 388.275200
   4609   4611   4614     1   109.5600471 388.275200
   4610   4609   4611     1   109.5600471 388.275200
   4610   4609   4612     1   108.4600466 328.025600
   4611   4609   4612     1   109.5600471 388.275200
   4613   4611   4615     1   109.8800469 414.216000
   4613   4611   4614     1   108.4600466 328.025600
   4614   4611   4615     1   109.8800469 414.216000
   4615   4616   4625     1   109.8800469 414.216000
   4615   4616   4626     1   109.8800469 414.216000
   4615   4617   4618     1   109.8800469 414.216000
   4615   4617   4620     1   109.8800469 414.216000
   4616   4627   4628     1   109.8000471 387.438400
   4616   4627   4629     1   109.8000471 387.438400
   4617   4619   4621     1   109.8000471 387.438400
   4617   4619   4622     1   109.8000471 387.438400
   4618   4617   4619     1   109.5600471 388.275200
   4618   4617   4620     1   108.4600466 328.025600
   4619   4617   4620     1   109.5600471 388.275200
   4621   4619   4623     1   108.7700466 392.459200
   4621   4619   4622     1   107.5800459 329.699200
   4622   4619   4623     1   108.7700466 392.459200
   4623   4655   4645     1   119.3800509 410.868800
   4625   4616   4627     1   109.5600471 388.275200
   4625   4616   4626     1   108.4600466 328.025600
   4626   4616   4627     1   109.5600471 388.275200
   4628   4627   4630     1   108.7700466 392.459200
   4628   4627   4629     1   107.5800459 329.699200
   4629   4627   4630     1   108.7700466 392.459200
   4630   4679   4669     1   119.3800509 410.868800
   4632   4633   4652     1   109.5600471 388.275200
   4632   4643   4646     1   109.5600471 388.275200
   4632   4643   4647     1   109.5600471 388.275200
   4633   4632   4634     1   109.5600471 388.275200
   4633   4635   4639     1   109.5600471 388.275200
   4633   4653   4654     1   107.2600461 396.643200
   4634   4632   4643     1   109.5600471 388.275200
   4634   4632   4650     1   109.7800468 425.094400
   4635   4633   4652     1   109.5600471 388.275200
   4635   4636   4638     1   109.5600471 388.275200
   4635   4642   4644     1   107.2600461 396.643200
   4636   4635   4639     1   109.5600471 388.275200
   4636   4637   4640     1   110.2200475 386.601600
   4636   4655   4645     1   109.2900470 396.643200
   4637   4636   4638     1   109.5600471 388.275200
   4637   4641   4651     1   107.2600461 396.643200
   4638   4636   4655     1   109.8800469 414.216000
   4639   4635   4642     1   110.2600474 425.931200
   4640   4637   4641     1   109.4300470 427.604800
   4640   4637   4650     1   109.5800467 425.931200
   4643   4648   4649     1   107.2600461 396.643200
   4646   4643   4648     1   110.2600474 425.931200
   4646   4643   4647     1   108.4600466 328.025600
   4647   4643   4648     1   110.2600474 425.931200
   4652   4633   4653     1   110.2600474 425.931200
   4656   4657   4676     1   109.5600471 388.275200
   4656   4667   4670     1   109.5600471 388.275200
   4656   4667   4671     1   109.5600471 388.275200
   4657   4656   4658     1   109.5600471 388.275200
   4657   4659   4663     1   109.5600471 388.275200
   4657   4677   4678     1   107.2600461 396.643200
   4658   4656   4667     1   109.5600471 388.275200
   4658   4656   4674     1   109.7800468 425.094400
   4659   4657   4676     1   109.5600471 388.275200
   4659   4660   4662     1   109.5600471 388.275200
   4659   4666   4668     1   107.2600461 396.643200
   4660   4659   4663     1   109.5600471 388.275200
   4660   4661   4664     1   110.2200475 386.601600
   4660   4679   4669     1   109.2900470 396.643200
   4661   4660   4662     1   109.5600471 388.275200
   4661   4665   4675     1   107.2600461 396.643200
   4662   4660   4679     1   109.8800469 414.216000
   4663   4659   4666     1   110.2600474 425.931200
   4664   4661   4665     1   109.4300470 427.604800
   4664   4661   4674     1   109.5800467 425.931200
   4667   4672   4673     1   107.2600461 396.643200
   4670   4667   4672     1   110.2600474 425.931200
   4670   4667   4671     1   108.4600466 328.025600
   4671   4667   4672     1   110.2600474 425.931200
   4676   4657   4677     1   110.2600474 425.931200
   4680   4682   4683     1   108.8800464 416.726400
   4680   4682   4685     1   108.8800464 416.726400
   4681   4680   4682     1   117.6800502 383.254400
   4682   4684   4686     1   109.5600471 388.275200
   4682   4684   4687     1   109.5600471 388.275200
   4683   4682   4684     1   109.5600471 388.275200
   4683   4682   4685     1   108.4600466 328.025600
   4684   4682   4685     1   109.5600471 388.275200
   4686   4684   4688     1   109.8800469 414.216000
   4686   4684   4687     1   108.4600466 328.025600
   4687   4684   4688     1   109.8800469 414.216000
   4688   4689   4698     1   109.8800469 414.216000
   4688   4689   4699     1   109.8800469 414.216000
   4688   4690   4691     1   109.8800469 414.216000
   4688   4690   4693     1   109.8800469 414.216000
   4689   4700   4701     1   109.8000471 387.438400
   4689   4700   4702     1   109.8000471 387.438400
   4690   4692   4694     1   109.8000471 387.438400
   4690   4692   4695     1   109.8000471 387.438400
   4691   4690   4692     1   109.5600471 388.275200
   4691   4690   4693     1   108.4600466 328.025600
   4692   4690   4693     1   109.5600471 388.275200
   4694   4692   4696     1   108.7700466 392.459200
   4694   4692   4695     1   107.5800459 329.699200
   4695   4692   4696     1   108.7700466 392.459200
   4696   4728   4718     1   119.3800509 410.868800
   4698   4689   4700     1   109.5600471 388.275200
   4698   4689   4699     1   108.4600466 328.025600
   4699   4689   4700     1   109.5600471 388.275200
   4701   4700   4703     1   108.7700466 392.459200
   4701   4700   4702     1   107.5800459 329.699200
   4702   4700   4703     1   108.7700466 392.459200
   4703   4752   4742     1   119.3800509 410.868800
   4705   4706   4725     1   109.5600471 388.275200
   4705   4716   4719     1   109.5600471 388.275200
   4705   4716   4720     1   109.5600471 388.275200
   4706   4708   4712     1   109.5600471 388.275200
   4706   4726   4727     1   107.2600461 396.643200
   4706   4705   4707     1   109.5600471 388.275200
   4707   4705   4716     1   109.5600471 388.275200
   4707   4705   4723     1   109.7800468 425.094400
   4708   4709   4711     1   109.5600471 388.275200
   4708   4715   4717     1   107.2600461 396.643200
   4708   4706   4725     1   109.5600471 388.275200
   4709   4710   4713     1   110.2200475 386.601600
   4709   4728   4718     1   109.2900470 396.643200
   4709   4708   4712     1   109.5600471 388.275200
   4710   4714   4724     1   107.2600461 396.643200
   4710   4709   4711     1   109.5600471 388.275200
   4711   4709   4728     1   109.8800469 414.216000
   4712   4708   4715     1   110.2600474 425.931200
   4713   4710   4714     1   109.4300470 427.604800
   4713   4710   4723     1   109.5800467 425.931200
   4716   4721   4722     1   107.2600461 396.643200
   4719   4716   4721     1   110.2600474 425.931200
   4719   4716   4720     1   108.4600466 328.025600
   4720   4716   4721     1   110.2600474 425.931200
   4725   4706   4726     1   110.2600474 425.931200
   4729   4730   4749     1   109.5600471 388.275200
   4729   4740   4743     1   109.5600471 388.275200
   4729   4740   4744     1   109.5600471 388.275200
   4730   4732   4736     1   109.5600471 388.275200
   4730   4750   4751     1   107.2600461 396.643200
   4730   4729   4731     1   109.5600471 388.275200
   4731   4729   4740     1   109.5600471 388.275200
   4731   4729   4747     1   109.7800468 425.094400
   4732   4733   4735     1   109.5600471 388.275200
   4732   4739   4741     1   107.2600461 396.643200
   4732   4730   4749     1   109.5600471 388.275200
   4733   4734   4737     1   110.2200475 386.601600
   4733   4752   4742     1   109.2900470 396.643200
   4733   4732   4736     1   109.5600471 388.275200
   4734   4738   4748     1   107.2600461 396.643200
   4734   4733   4735     1   109.5600471 388.275200
   4735   4733   4752     1   109.8800469 414.216000
   4736   4732   4739     1   110.2600474 425.931200
   4737   4734   4738     1   109.4300470 427.604800
   4737   4734   4747     1   109.5800467 425.931200
   4740   4745   4746     1   107.2600461 396.643200
   4743   4740   4745     1   110.2600474 425.931200
   4743   4740   4744     1   108.4600466 328.025600
   4744   4740   4745     1   110.2600474 425.931200
   4749   4730   4750     1   110.2600474 425.931200
   4753   4755   4756     1   108.8800464 416.726400
   4753   4755   4758     1   108.8800464 416.726400
   4754   4753   4755     1   117.6800502 383.254400
   4755   4757   4759     1   109.5600471 388.275200
   4755   4757   4760     1   109.5600471 388.275200
   4756   4755   4757     1   109.5600471 388.275200
   4756   4755   4758     1   108.4600466 328.025600
   4757   4755   4758     1   109.5600471 388.275200
   4759   4757   4761     1   109.8800469 414.216000
   4759   4757   4760     1   108.4600466 328.025600
   4760   4757   4761     1   109.8800469 414.216000
   4761   4762   4771     1   109.8800469 414.216000
   4761   4762   4772     1   109.8800469 414.216000
   4761   4763   4764     1   109.8800469 414.216000
   4761   4763   4766     1   109.8800469 414.216000
   4762   4773   4774     1   109.8000471 387.438400
   4762   4773   4775     1   109.8000471 387.438400
   4763   4765   4767     1   109.8000471 387.438400
   4763   4765   4768     1   109.8000471 387.438400
   4764   4763   4765     1   109.5600471 388.275200
   4764   4763   4766     1   108.4600466 328.025600
   4765   4763   4766     1   109.5600471 388.275200
   4767   4765   4769     1   108.7700466 392.459200
   4767   4765   4768     1   107.5800459 329.699200
   4768   4765   4769     1   108.7700466 392.459200
   4769   4801   4791     1   119.3800509 410.868800
   4771   4762   4773     1   109.5600471 388.275200
   4771   4762   4772     1   108.4600466 328.025600
   4772   4762   4773     1   109.5600471 388.275200
   4774   4773   4776     1   108.7700466 392.459200
   4774   4773   4775     1   107.5800459 329.699200
   4775   4773   4776     1   108.7700466 392.459200
   4776   4825   4815     1   119.3800509 410.868800
   4778   4779   4798     1   109.5600471 388.275200
   4778   4789   4792     1   109.5600471 388.275200
   4778   4789   4793     1   109.5600471 388.275200
   4779   4778   4780     1   109.5600471 388.275200
   4779   4781   4785     1   109.5600471 388.275200
   4779   4799   4800     1   107.2600461 396.643200
   4780   4778   4789     1   109.5600471 388.275200
   4780   4778   4796     1   109.7800468 425.094400
   4781   4779   4798     1   109.5600471 388.275200
   4781   4782   4784     1   109.5600471 388.275200
   4781   4788   4790     1   107.2600461 396.643200
   4782   4781   4785     1   109.5600471 388.275200
   4782   4783   4786     1   110.2200475 386.601600
   4782   4801   4791     1   109.2900470 396.643200
   4783   4782   4784     1   109.5600471 388.275200
   4783   4787   4797     1   107.2600461 396.643200
   4784   4782   4801     1   109.8800469 414.216000
   4785   4781   4788     1   110.2600474 425.931200
   4786   4783   4787     1   109.4300470 427.604800
   4786   4783   4796     1   109.5800467 425.931200
   4789   4794   4795     1   107.2600461 396.643200
   4792   4789   4794     1   110.2600474 425.931200
   4792   4789   4793     1   108.4600466 328.025600
   4793   4789   4794     1   110.2600474 425.931200
   4798   4779   4799     1   110.2600474 425.931200
   4802   4803   4822     1   109.5600471 388.275200
   4802   4813   4816     1   109.5600471 388.275200
   4802   4813   4817     1   109.5600471 388.275200
   4803   4802   4804     1   109.5600471 388.275200
   4803   4805   4809     1   109.5600471 388.275200
   4803   4823   4824     1   107.2600461 396.643200
   4804   4802   4813     1   109.5600471 388.275200
   4804   4802   4820     1   109.7800468 425.094400
   4805   4803   4822     1   109.5600471 388.275200
   4805   4806   4808     1   109.5600471 388.275200
   4805   4812   4814     1   107.2600461 396.643200
   4806   4805   4809     1   109.5600471 388.275200
   4806   4807   4810     1   110.2200475 386.601600
   4806   4825   4815     1   109.2900470 396.643200
   4807   4806   4808     1   109.5600471 388.275200
   4807   4811   4821     1   107.2600461 396.643200
   4808   4806   4825     1   109.8800469 414.216000
   4809   4805   4812     1   110.2600474 425.931200
   4810   4807   4811     1   109.4300470 427.604800
   4810   4807   4820     1   109.5800467 425.931200
   4813   4818   4819     1   107.2600461 396.643200
   4816   4813   4818     1   110.2600474 425.931200
   4816   4813   4817     1   108.4600466 328.025600
   4817   4813   4818     1   110.2600474 425.931200
   4822   4803   4823     1   110.2600474 425.931200
   4826   4828   4829     1   108.8800464 416.726400
   4826   4828   4831     1   108.8800464 416.726400
   4827   4826   4828     1   117.6800502 383.254400
   4828   4830   4832     1   109.5600471 388.275200
   4828   4830   4833     1   109.5600471 388.275200
   4829   4828   4830     1   109.5600471 388.275200
   4829   4828   4831     1   108.4600466 328.025600
   4830   4828   4831     1   109.5600471 388.275200
   4832   4830   4834     1   109.8800469 414.216000
   4832   4830   4833     1   108.4600466 328.025600
   4833   4830   4834     1   109.8800469 414.216000
   4834   4835   4844     1   109.8800469 414.216000
   4834   4835   4845     1   109.8800469 414.216000
   4834   4836   4837     1   109.8800469 414.216000
   4834   4836   4839     1   109.8800469 414.216000
   4835   4846   4847     1   109.8000471 387.438400
   4835   4846   4848     1   109.8000471 387.438400
   4836   4838   4840     1   109.8000471 387.438400
   4836   4838   4841     1   109.8000471 387.438400
   4837   4836   4838     1   109.5600471 388.275200
   4837   4836   4839     1   108.4600466 328.025600
   4838   4836   4839     1   109.5600471 388.275200
   4840   4838   4842     1   108.7700466 392.459200
   4840   4838   4841     1   107.5800459 329.699200
   4841   4838   4842     1   108.7700466 392.459200
   4842   4874   4864     1   119.3800509 410.868800
   4844   4835   4846     1   109.5600471 388.275200
   4844   4835   4845     1   108.4600466 328.025600
   4845   4835   4846     1   109.5600471 388.275200
   4847   4846   4849     1   108.7700466 392.459200
   4847   4846   4848     1   107.5800459 329.699200
   4848   4846   4849     1   108.7700466 392.459200
   4849   4898   4888     1   119.3800509 410.868800
   4851   4852   4871     1   109.5600471 388.275200
   4851   4862   4865     1   109.5600471 388.275200
   4851   4862   4866     1   109.5600471 388.275200
   4852   4854   4858     1   109.5600471 388.275200
   4852   4872   4873     1   107.2600461 396.643200
   4852   4851   4853     1   109.5600471 388.275200
   4853   4851   4862     1   109.5600471 388.275200
   4853   4851   4869     1   109.7800468 425.094400
   4854   4855   4857     1   109.5600471 388.275200
   4854   4861   4863     1   107.2600461 396.643200
   4854   4852   4871     1   109.5600471 388.275200
   4855   4856   4859     1   110.2200475 386.601600
   4855   4874   4864     1   109.2900470 396.643200
   4855   4854   4858     1   109.5600471 388.275200
   4856   4860   4870     1   107.2600461 396.643200
   4856   4855   4857     1   109.5600471 388.275200
   4857   4855   4874     1   109.8800469 414.216000
   4858   4854   4861     1   110.2600474 425.931200
   4859   4856   4860     1   109.4300470 427.604800
   4859   4856   4869     1   109.5800467 425.931200
   4862   4867   4868     1   107.2600461 396.643200
   4865   4862   4867     1   110.2600474 425.931200
   4865   4862   4866     1   108.4600466 328.025600
   4866   4862   4867     1   110.2600474 425.931200
   4871   4852   4872     1   110.2600474 425.931200
   4875   4876   4895     1   109.5600471 388.275200
   4875   4886   4889     1   109.5600471 388.275200
   4875   4886   4890     1   109.5600471 388.275200
   4876   4878   4882     1   109.5600471 388.275200
   4876   4896   4897     1   107.2600461 396.643200
   4876   4875   4877     1   109.5600471 388.275200
   4877   4875   4886     1   109.5600471 388.275200
   4877   4875   4893     1   109.7800468 425.094400
   4878   4879   4881     1   109.5600471 388.275200
   4878   4885   4887     1   107.2600461 396.643200
   4878   4876   4895     1   109.5600471 388.275200
   4879   4880   4883     1   110.2200475 386.601600
   4879   4898   4888     1   109.2900470 396.643200
   4879   4878   4882     1   109.5600471 388.275200
   4880   4884   4894     1   107.2600461 396.643200
   4880   4879   4881     1   109.5600471 388.275200
   4881   4879   4898     1   109.8800469 414.216000
   4882   4878   4885     1   110.2600474 425.931200
   4883   4880   4884     1   109.4300470 427.604800
   4883   4880   4893     1   109.5800467 425.931200
   4886   4891   4892     1   107.2600461 396.643200
   4889   4886   4891     1   110.2600474 425.931200
   4889   4886   4890     1   108.4600466 328.025600
   4890   4886   4891     1   110.2600474 425.931200
   4895   4876   4896     1   110.2600474 425.931200
   4899   4901   4902     1   108.8800464 416.726400
   4899   4901   4904     1   108.8800464 416.726400
   4900   4899   4901     1   117.6800502 383.254400
   4901   4903   4905     1   109.5600471 388.275200
   4901   4903   4906     1   109.5600471 388.275200
   4902   4901   4903     1   109.5600471 388.275200
   4902   4901   4904     1   108.4600466 328.025600
   4903   4901   4904     1   109.5600471 388.275200
   4905   4903   4907     1   109.8800469 414.216000
   4905   4903   4906     1   108.4600466 328.025600
   4906   4903   4907     1   109.8800469 414.216000
   4907   4908   4917     1   109.8800469 414.216000
   4907   4908   4918     1   109.8800469 414.216000
   4907   4909   4910     1   109.8800469 414.216000
   4907   4909   4912     1   109.8800469 414.216000
   4908   4919   4920     1   109.8000471 387.438400
   4908   4919   4921     1   109.8000471 387.438400
   4909   4911   4913     1   109.8000471 387.438400
   4909   4911   4914     1   109.8000471 387.438400
   4910   4909   4911     1   109.5600471 388.275200
   4910   4909   4912     1   108.4600466 328.025600
   4911   4909   4912     1   109.5600471 388.275200
   4913   4911   4915     1   108.7700466 392.459200
   4913   4911   4914     1   107.5800459 329.699200
   4914   4911   4915     1   108.7700466 392.459200
   4915   4947   4937     1   119.3800509 410.868800
   4917   4908   4919     1   109.5600471 388.275200
   4917   4908   4918     1   108.4600466 328.025600
   4918   4908   4919     1   109.5600471 388.275200
   4920   4919   4922     1   108.7700466 392.459200
   4920   4919   4921     1   107.5800459 329.699200
   4921   4919   4922     1   108.7700466 392.459200
   4922   4971   4961     1   119.3800509 410.868800
   4924   4925   4944     1   109.5600471 388.275200
   4924   4935   4938     1   109.5600471 388.275200
   4924   4935   4939     1   109.5600471 388.275200
   4925   4924   4926     1   109.5600471 388.275200
   4925   4927   4931     1   109.5600471 388.275200
   4925   4945   4946     1   107.2600461 396.643200
   4926   4924   4935     1   109.5600471 388.275200
   4926   4924   4942     1   109.7800468 425.094400
   4927   4925   4944     1   109.5600471 388.275200
   4927   4928   4930     1   109.5600471 388.275200
   4927   4934   4936     1   107.2600461 396.643200
   4928   4927   4931     1   109.5600471 388.275200
   4928   4929   4932     1   110.2200475 386.601600
   4928   4947   4937     1   109.2900470 396.643200
   4929   4928   4930     1   109.5600471 388.275200
   4929   4933   4943     1   107.2600461 396.643200
   4930   4928   4947     1   109.8800469 414.216000
   4931   4927   4934     1   110.2600474 425.931200
   4932   4929   4933     1   109.4300470 427.604800
   4932   4929   4942     1   109.5800467 425.931200
   4935   4940   4941     1   107.2600461 396.643200
   4938   4935   4940     1   110.2600474 425.931200
   4938   4935   4939     1   108.4600466 328.025600
   4939   4935   4940     1   110.2600474 425.931200
   4944   4925   4945     1   110.2600474 425.931200
   4948   4949   4968     1   109.5600471 388.275200
   4948   4959   4962     1   109.5600471 388.275200
   4948   4959   4963     1   109.5600471 388.275200
   4949   4948   4950     1   109.5600471 388.275200
   4949   4951   4955     1   109.5600471 388.275200
   4949   4969   4970     1   107.2600461 396.643200
   4950   4948   4959     1   109.5600471 388.275200
   4950   4948   4966     1   109.7800468 425.094400
   4951   4949   4968     1   109.5600471 388.275200
   4951   4952   4954     1   109.5600471 388.275200
   4951   4958   4960     1   107.2600461 396.643200
   4952   4951   4955     1   109.5600471 388.275200
   4952   4953   4956     1   110.2200475 386.601600
   4952   4971   4961     1   109.2900470 396.643200
   4953   4952   4954     1   109.5600471 388.275200
   4953   4957   4967     1   107.2600461 396.643200
   4954   4952   4971     1   109.8800469 414.216000
   4955   4951   4958     1   110.2600474 425.931200
   4956   4953   4957     1   109.4300470 427.604800
   4956   4953   4966     1   109.5800467 425.931200
   4959   4964   4965     1   107.2600461 396.643200
   4962   4959   4964     1   110.2600474 425.931200
   4962   4959   4963     1   108.4600466 328.025600
   4963   4959   4964     1   110.2600474 425.931200
   4968   4949   4969     1   110.2600474 425.931200
   4972   4974   4975     1   108.8800464 416.726400
   4972   4974   4977     1   108.8800464 416.726400
   4973   4972   4974     1   117.6800502 383.254400
   4974   4976   4978     1   109.5600471 388.275200
   4974   4976   4979     1   109.5600471 388.275200
   4975   4974   4976     1   109.5600471 388.275200
   4975   4974   4977     1   108.4600466 328.025600
   4976   4974   4977     1   109.5600471 388.275200
   4978   4976   4980     1   109.8800469 414.216000
   4978   4976   4979     1   108.4600466 328.025600
   4979   4976   4980     1   109.8800469 414.216000
   4980   4981   4990     1   109.8800469 414.216000
   4980   4981   4991     1   109.8800469 414.216000
   4980   4982   4983     1   109.8800469 414.216000
   4980   4982   4985     1   109.8800469 414.216000
   4981   4992   4993     1   109.8000471 387.438400
   4981   4992   4994     1   109.8000471 387.438400
   4982   4984   4986     1   109.8000471 387.438400
   4982   4984   4987     1   109.8000471 387.438400
   4983   4982   4984     1   109.5600471 388.275200
   4983   4982   4985     1   108.4600466 328.025600
   4984   4982   4985     1   109.5600471 388.275200
   4986   4984   4988     1   108.7700466 392.459200
   4986   4984   4987     1   107.5800459 329.699200
   4987   4984   4988     1   108.7700466 392.459200
   4988   5020   5010     1   119.3800509 410.868800
   4990   4981   4992     1   109.5600471 388.275200
   4990   4981   4991     1   108.4600466 328.025600
   4991   4981   4992     1   109.5600471 388.275200
   4993   4992   4995     1   108.7700466 392.459200
   4993   4992   4994     1   107.5800459 329.699200
   4994   4992   4995     1   108.7700466 392.459200
   4995   5044   5034     1   119.3800509 410.868800
   4997   4998   5017     1   109.5600471 388.275200
   4997   5008   5011     1   109.5600471 388.275200
   4997   5008   5012     1   109.5600471 388.275200
   4998   5000   5004     1   109.5600471 388.275200
   4998   5018   5019     1   107.2600461 396.643200
   4998   4997   4999     1   109.5600471 388.275200
   4999   4997   5008     1   109.5600471 388.275200
   4999   4997   5015     1   109.7800468 425.094400
   5000   5001   5003     1   109.5600471 388.275200
   5000   5007   5009     1   107.2600461 396.643200
   5000   4998   5017     1   109.5600471 388.275200
   5001   5002   5005     1   110.2200475 386.601600
   5001   5020   5010     1   109.2900470 396.643200
   5001   5000   5004     1   109.5600471 388.275200
   5002   5006   5016     1   107.2600461 396.643200
   5002   5001   5003     1   109.5600471 388.275200
   5003   5001   5020     1   109.8800469 414.216000
   5004   5000   5007     1   110.2600474 425.931200
   5005   5002   5006     1   109.4300470 427.604800
   5005   5002   5015     1   109.5800467 425.931200
   5008   5013   5014     1   107.2600461 396.643200
   5011   5008   5013     1   110.2600474 425.931200
   5011   5008   5012     1   108.4600466 328.025600
   5012   5008   5013     1   110.2600474 425.931200
   5017   4998   5018     1   110.2600474 425.931200
   5021   5022   5041     1   109.5600471 388.275200
   5021   5032   5035     1   109.5600471 388.275200
   5021   5032   5036     1   109.5600471 388.275200
   5022   5024   5028     1   109.5600471 388.275200
   5022   5042   5043     1   107.2600461 396.643200
   5022   5021   5023     1   109.5600471 388.275200
   5023   5021   5032     1   109.5600471 388.275200
   5023   5021   5039     1   109.7800468 425.094400
   5024   5025   5027     1   109.5600471 388.275200
   5024   5031   5033     1   107.2600461 396.643200
   5024   5022   5041     1   109.5600471 388.275200
   5025   5026   5029     1   110.2200475 386.601600
   5025   5044   5034     1   109.2900470 396.643200
   5025   5024   5028     1   109.5600471 388.275200
   5026   5030   5040     1   107.2600461 396.643200
   5026   5025   5027     1   109.5600471 388.275200
   5027   5025   5044     1   109.8800469 414.216000
   5028   5024   5031     1   110.2600474 425.931200
   5029   5026   5030     1   109.4300470 427.604800
   5029   5026   5039     1   109.5800467 425.931200
   5032   5037   5038     1   107.2600461 396.643200
   5035   5032   5037     1   110.2600474 425.931200
   5035   5032   5036     1   108.4600466 328.025600
   5036   5032   5037     1   110.2600474 425.931200
   5041   5022   5042     1   110.2600474 425.931200
   5045   5047   5048     1   108.8800464 416.726400
   5045   5047   5050     1   108.8800464 416.726400
   5046   5045   5047     1   117.6800502 383.254400
   5047   5049   5051     1   109.5600471 388.275200
   5047   5049   5052     1   109.5600471 388.275200
   5048   5047   5049     1   109.5600471 388.275200
   5048   5047   5050     1   108.4600466 328.025600
   5049   5047   5050     1   109.5600471 388.275200
   5051   5049   5053     1   109.8800469 414.216000
   5051   5049   5052     1   108.4600466 328.025600
   5052   5049   5053     1   109.8800469 414.216000
   5053   5054   5063     1   109.8800469 414.216000
   5053   5054   5064     1   109.8800469 414.216000
   5053   5055   5056     1   109.8800469 414.216000
   5053   5055   5058     1   109.8800469 414.216000
   5054   5065   5066     1   109.8000471 387.438400
   5054   5065   5067     1   109.8000471 387.438400
   5055   5057   5059     1   109.8000471 387.438400
   5055   5057   5060     1   109.8000471 387.438400
   5056   5055   5057     1   109.5600471 388.275200
   5056   5055   5058     1   108.4600466 328.025600
   5057   5055   5058     1   109.5600471 388.275200
   5059   5057   5061     1   108.7700466 392.459200
   5059   5057   5060     1   107.5800459 329.699200
   5060   5057   5061     1   108.7700466 392.459200
   5061   5093   5083     1   119.3800509 410.868800
   5063   5054   5065     1   109.5600471 388.275200
   5063   5054   5064     1   108.4600466 328.025600
   5064   5054   5065     1   109.5600471 388.275200
   5066   5065   5068     1   108.7700466 392.459200
   5066   5065   5067     1   107.5800459 329.699200
   5067   5065   5068     1   108.7700466 392.459200
   5068   5117   5107     1   119.3800509 410.868800
   5070   5071   5090     1   109.5600471 388.275200
   5070   5081   5084     1   109.5600471 388.275200
   5070   5081   5085     1   109.5600471 388.275200
   5071   5070   5072     1   109.5600471 388.275200
   5071   5073   5077     1   109.5600471 388.275200
   5071   5091   5092     1   107.2600461 396.643200
   5072   5070   5081     1   109.5600471 388.275200
   5072   5070   5088     1   109.7800468 425.094400
   5073   5071   5090     1   109.5600471 388.275200
   5073   5074   5076     1   109.5600471 388.275200
   5073   5080   5082     1   107.2600461 396.643200
   5074   5073   5077     1   109.5600471 388.275200
   5074   5075   5078     1   110.2200475 386.601600
   5074   5093   5083     1   109.2900470 396.643200
   5075   5074   5076     1   109.5600471 388.275200
   5075   5079   5089     1   107.2600461 396.643200
   5076   5074   5093     1   109.8800469 414.216000
   5077   5073   5080     1   110.2600474 425.931200
   5078   5075   5079     1   109.4300470 427.604800
   5078   5075   5088     1   109.5800467 425.931200
   5081   5086   5087     1   107.2600461 396.643200
   5084   5081   5086     1   110.2600474 425.931200
   5084   5081   5085     1   108.4600466 328.025600
   5085   5081   5086     1   110.2600474 425.931200
   5090   5071   5091     1   110.2600474 425.931200
   5094   5095   5114     1   109.5600471 388.275200
   5094   5105   5108     1   109.5600471 388.275200
   5094   5105   5109     1   109.5600471 388.275200
   5095   5094   5096     1   109.5600471 388.275200
   5095   5097   5101     1   109.5600471 388.275200
   5095   5115   5116     1   107.2600461 396.643200
   5096   5094   5105     1   109.5600471 388.275200
   5096   5094   5112     1   109.7800468 425.094400
   5097   5095   5114     1   109.5600471 388.275200
   5097   5098   5100     1   109.5600471 388.275200
   5097   5104   5106     1   107.2600461 396.643200
   5098   5097   5101     1   109.5600471 388.275200
   5098   5099   5102     1   110.2200475 386.601600
   5098   5117   5107     1   109.2900470 396.643200
   5099   5098   5100     1   109.5600471 388.275200
   5099   5103   5113     1   107.2600461 396.643200
   5100   5098   5117     1   109.8800469 414.216000
   5101   5097   5104     1   110.2600474 425.931200
   5102   5099   5103     1   109.4300470 427.604800
   5102   5099   5112     1   109.5800467 425.931200
   5105   5110   5111     1   107.2600461 396.643200
   5108   5105   5110     1   110.2600474 425.931200
   5108   5105   5109     1   108.4600466 328.025600
   5109   5105   5110     1   110.2600474 425.931200
   5114   5095   5115     1   110.2600474 425.931200
   5118   5120   5121     1   108.8800464 416.726400
   5118   5120   5123     1   108.8800464 416.726400
   5119   5118   5120     1   117.6800502 383.254400
   5120   5122   5124     1   109.5600471 388.275200
   5120   5122   5125     1   109.5600471 388.275200
   5121   5120   5122     1   109.5600471 388.275200
   5121   5120   5123     1   108.4600466 328.025600
   5122   5120   5123     1   109.5600471 388.275200
   5124   5122   5126     1   109.8800469 414.216000
   5124   5122   5125     1   108.4600466 328.025600
   5125   5122   5126     1   109.8800469 414.216000
   5126   5127   5136     1   109.8800469 414.216000
   5126   5127   5137     1   109.8800469 414.216000
   5126   5128   5129     1   109.8800469 414.216000
   5126   5128   5131     1   109.8800469 414.216000
   5127   5138   5139     1   109.8000471 387.438400
   5127   5138   5140     1   109.8000471 387.438400
   5128   5130   5132     1   109.8000471 387.438400
   5128   5130   5133     1   109.8000471 387.438400
   5129   5128   5130     1   109.5600471 388.275200
   5129   5128   5131     1   108.4600466 328.025600
   5130   5128   5131     1   109.5600471 388.275200
   5132   5130   5134     1   108.7700466 392.459200
   5132   5130   5133     1   107.5800459 329.699200
   5133   5130   5134     1   108.7700466 392.459200
   5134   5166   5156     1   119.3800509 410.868800
   5136   5127   5138     1   109.5600471 388.275200
   5136   5127   5137     1   108.4600466 328.025600
   5137   5127   5138     1   109.5600471 388.275200
   5139   5138   5141     1   108.7700466 392.459200
   5139   5138   5140     1   107.5800459 329.699200
   5140   5138   5141     1   108.7700466 392.459200
   5141   5190   5180     1   119.3800509 410.868800
   5143   5144   5163     1   109.5600471 388.275200
   5143   5154   5157     1   109.5600471 388.275200
   5143   5154   5158     1   109.5600471 388.275200
   5144   5146   5150     1   109.5600471 388.275200
   5144   5164   5165     1   107.2600461 396.643200
   5144   5143   5145     1   109.5600471 388.275200
   5145   5143   5154     1   109.5600471 388.275200
   5145   5143   5161     1   109.7800468 425.094400
   5146   5147   5149     1   109.5600471 388.275200
   5146   5153   5155     1   107.2600461 396.643200
   5146   5144   5163     1   109.5600471 388.275200
   5147   5148   5151     1   110.2200475 386.601600
   5147   5166   5156     1   109.2900470 396.643200
   5147   5146   5150     1   109.5600471 388.275200
   5148   5152   5162     1   107.2600461 396.643200
   5148   5147   5149     1   109.5600471 388.275200
   5149   5147   5166     1   109.8800469 414.216000
   5150   5146   5153     1   110.2600474 425.931200
   5151   5148   5152     1   109.4300470 427.604800
   5151   5148   5161     1   109.5800467 425.931200
   5154   5159   5160     1   107.2600461 396.643200
   5157   5154   5159     1   110.2600474 425.931200
   5157   5154   5158     1   108.4600466 328.025600
   5158   5154   5159     1   110.2600474 425.931200
   5163   5144   5164     1   110.2600474 425.931200
   5167   5168   5187     1   109.5600471 388.275200
   5167   5178   5181     1   109.5600471 388.275200
   5167   5178   5182     1   109.5600471 388.275200
   5168   5170   5174     1   109.5600471 388.275200
   5168   5188   5189     1   107.2600461 396.643200
   5168   5167   5169     1   109.5600471 388.275200
   5169   5167   5178     1   109.5600471 388.275200
   5169   5167   5185     1   109.7800468 425.094400
   5170   5171   5173     1   109.5600471 388.275200
   5170   5177   5179     1   107.2600461 396.643200
   5170   5168   5187     1   109.5600471 388.275200
   5171   5172   5175     1   110.2200475 386.601600
   5171   5190   5180     1   109.2900470 396.643200
   5171   5170   5174     1   109.5600471 388.275200
   5172   5176   5186     1   107.2600461 396.643200
   5172   5171   5173     1   109.5600471 388.275200
   5173   5171   5190     1   109.8800469 414.216000
   5174   5170   5177     1   110.2600474 425.931200
   5175   5172   5176     1   109.4300470 427.604800
   5175   5172   5185     1   109.5800467 425.931200
   5178   5183   5184     1   107.2600461 396.643200
   5181   5178   5183     1   110.2600474 425.931200
   5181   5178   5182     1   108.4600466 328.025600
   5182   5178   5183     1   110.2600474 425.931200
   5187   5168   5188     1   110.2600474 425.931200
   5191   5193   5194     1   108.8800464 416.726400
   5191   5193   5196     1   108.8800464 416.726400
   5192   5191   5193     1   117.6800502 383.254400
   5193   5195   5197     1   109.5600471 388.275200
   5193   5195   5198     1   109.5600471 388.275200
   5194   5193   5195     1   109.5600471 388.275200
   5194   5193   5196     1   108.4600466 328.025600
   5195   5193   5196     1   109.5600471 388.275200
   5197   5195   5199     1   109.8800469 414.216000
   5197   5195   5198     1   108.4600466 328.025600
   5198   5195   5199     1   109.8800469 414.216000
   5199   5200   5209     1   109.8800469 414.216000
   5199   5200   5210     1   109.8800469 414.216000
   5199   5201   5202     1   109.8800469 414.216000
   5199   5201   5204     1   109.8800469 414.216000
   5200   5211   5212     1   109.8000471 387.438400
   5200   5211   5213     1   109.8000471 387.438400
   5201   5203   5205     1   109.8000471 387.438400
   5201   5203   5206     1   109.8000471 387.438400
   5202   5201   5203     1   109.5600471 388.275200
   5202   5201   5204     1   108.4600466 328.025600
   5203   5201   5204     1   109.5600471 388.275200
   5205   5203   5207     1   108.7700466 392.459200
   5205   5203   5206     1   107.5800459 329.699200
   5206   5203   5207     1   108.7700466 392.459200
   5207   5239   5229     1   119.3800509 410.868800
   5209   5200   5211     1   109.5600471 388.275200
   5209   5200   5210     1   108.4600466 328.025600
   5210   5200   5211     1   109.5600471 388.275200
   5212   5211   5214     1   108.7700466 392.459200
   5212   5211   5213     1   107.5800459 329.699200
   5213   5211   5214     1   108.7700466 392.459200
   5214   5263   5253     1   119.3800509 410.868800
   5216   5217   5236     1   109.5600471 388.275200
   5216   5227   5230     1   109.5600471 388.275200
   5216   5227   5231     1   109.5600471 388.275200
   5217   5216   5218     1   109.5600471 388.275200
   5217   5219   5223     1   109.5600471 388.275200
   5217   5237   5238     1   107.2600461 396.643200
   5218   5216   5227     1   109.5600471 388.275200
   5218   5216   5234     1   109.7800468 425.094400
   5219   5217   5236     1   109.5600471 388.275200
   5219   5220   5222     1   109.5600471 388.275200
   5219   5226   5228     1   107.2600461 396.643200
   5220   5219   5223     1   109.5600471 388.275200
   5220   5221   5224     1   110.2200475 386.601600
   5220   5239   5229     1   109.2900470 396.643200
   5221   5220   5222     1   109.5600471 388.275200
   5221   5225   5235     1   107.2600461 396.643200
   5222   5220   5239     1   109.8800469 414.216000
   5223   5219   5226     1   110.2600474 425.931200
   5224   5221   5225     1   109.4300470 427.604800
   5224   5221   5234     1   109.5800467 425.931200
   5227   5232   5233     1   107.2600461 396.643200
   5230   5227   5232     1   110.2600474 425.931200
   5230   5227   5231     1   108.4600466 328.025600
   5231   5227   5232     1   110.2600474 425.931200
   5236   5217   5237     1   110.2600474 425.931200
   5240   5241   5260     1   109.5600471 388.275200
   5240   5251   5254     1   109.5600471 388.275200
   5240   5251   5255     1   109.5600471 388.275200
   5241   5240   5242     1   109.5600471 388.275200
   5241   5243   5247     1   109.5600471 388.275200
   5241   5261   5262     1   107.2600461 396.643200
   5242   5240   5251     1   109.5600471 388.275200
   5242   5240   5258     1   109.7800468 425.094400
   5243   5241   5260     1   109.5600471 388.275200
   5243   5244   5246     1   109.5600471 388.275200
   5243   5250   5252     1   107.2600461 396.643200
   5244   5243   5247     1   109.5600471 388.275200
   5244   5245   5248     1   110.2200475 386.601600
   5244   5263   5253     1   109.2900470 396.643200
   5245   5244   5246     1   109.5600471 388.275200
   5245   5249   5259     1   107.2600461 396.643200
   5246   5244   5263     1   109.8800469 414.216000
   5247   5243   5250     1   110.2600474 425.931200
   5248   5245   5249     1   109.4300470 427.604800
   5248   5245   5258     1   109.5800467 425.931200
   5251   5256   5257     1   107.2600461 396.643200
   5254   5251   5256     1   110.2600474 425.931200
   5254   5251   5255     1   108.4600466 328.025600
   5255   5251   5256     1   110.2600474 425.931200
   5260   5241   5261     1   110.2600474 425.931200
   5264   5266   5267     1   108.8800464 416.726400
   5264   5266   5269     1   108.8800464 416.726400
   5265   5264   5266     1   117.6800502 383.254400
   5266   5268   5270     1   109.5600471 388.275200
   5266   5268   5271     1   109.5600471 388.275200
   5267   5266   5268     1   109.5600471 388.275200
   5267   5266   5269     1   108.4600466 328.025600
   5268   5266   5269     1   109.5600471 388.275200
   5270   5268   5272     1   109.8800469 414.216000
   5270   5268   5271     1   108.4600466 328.025600
   5271   5268   5272     1   109.8800469 414.216000
   5272   5273   5282     1   109.8800469 414.216000
   5272   5273   5283     1   109.8800469 414.216000
   5272   5274   5275     1   109.8800469 414.216000
   5272   5274   5277     1   109.8800469 414.216000
   5273   5284   5285     1   109.8000471 387.438400
   5273   5284   5286     1   109.8000471 387.438400
   5274   5276   5278     1   109.8000471 387.438400
   5274   5276   5279     1   109.8000471 387.438400
   5275   5274   5276     1   109.5600471 388.275200
   5275   5274   5277     1   108.4600466 328.025600
   5276   5274   5277     1   109.5600471 388.275200
   5278   5276   5280     1   108.7700466 392.459200
   5278   5276   5279     1   107.5800459 329.699200
   5279   5276   5280     1   108.7700466 392.459200
   5280   5312   5302     1   119.3800509 410.868800
   5282   5273   5284     1   109.5600471 388.275200
   5282   5273   5283     1   108.4600466 328.025600
   5283   5273   5284     1   109.5600471 388.275200
   5285   5284   5287     1   108.7700466 392.459200
   5285   5284   5286     1   107.5800459 329.699200
   5286   5284   5287     1   108.7700466 392.459200
   5287   5336   5326     1   119.3800509 410.868800
   5289   5290   5309     1   109.5600471 388.275200
   5289   5300   5303     1   109.5600471 388.275200
   5289   5300   5304     1   109.5600471 388.275200
   5290   5292   5296     1   109.5600471 388.275200
   5290   5310   5311     1   107.2600461 396.643200
   5290   5289   5291     1   109.5600471 388.275200
   5291   5289   5300     1   109.5600471 388.275200
   5291   5289   5307     1   109.7800468 425.094400
   5292   5293   5295     1   109.5600471 388.275200
   5292   5299   5301     1   107.2600461 396.643200
   5292   5290   5309     1   109.5600471 388.275200
   5293   5294   5297     1   110.2200475 386.601600
   5293   5312   5302     1   109.2900470 396.643200
   5293   5292   5296     1   109.5600471 388.275200
   5294   5298   5308     1   107.2600461 396.643200
   5294   5293   5295     1   109.5600471 388.275200
   5295   5293   5312     1   109.8800469 414.216000
   5296   5292   5299     1   110.2600474 425.931200
   5297   5294   5298     1   109.4300470 427.604800
   5297   5294   5307     1   109.5800467 425.931200
   5300   5305   5306     1   107.2600461 396.643200
   5303   5300   5305     1   110.2600474 425.931200
   5303   5300   5304     1   108.4600466 328.025600
   5304   5300   5305     1   110.2600474 425.931200
   5309   5290   5310     1   110.2600474 425.931200
   5313   5314   5333     1   109.5600471 388.275200
   5313   5324   5327     1   109.5600471 388.275200
   5313   5324   5328     1   109.5600471 388.275200
   5314   5316   5320     1   109.5600471 388.275200
   5314   5334   5335     1   107.2600461 396.643200
   5314   5313   5315     1   109.5600471 388.275200
   5315   5313   5324     1   109.5600471 388.275200
   5315   5313   5331     1   109.7800468 425.094400
   5316   5317   5319     1   109.5600471 388.275200
   5316   5323   5325     1   107.2600461 396.643200
   5316   5314   5333     1   109.5600471 388.275200
   5317   5318   5321     1   110.2200475 386.601600
   5317   5336   5326     1   109.2900470 396.643200
   5317   5316   5320     1   109.5600471 388.275200
   5318   5322   5332     1   107.2600461 396.643200
   5318   5317   5319     1   109.5600471 388.275200
   5319   5317   5336     1   109.8800469 414.216000
   5320   5316   5323     1   110.2600474 425.931200
   5321   5318   5322     1   109.4300470 427.604800
   5321   5318   5331     1   109.5800467 425.931200
   5324   5329   5330     1   107.2600461 396.643200
   5327   5324   5329     1   110.2600474 425.931200
   5327   5324   5328     1   108.4600466 328.025600
   5328   5324   5329     1   110.2600474 425.931200
   5333   5314   5334     1   110.2600474 425.931200
   5337   5339   5340     1   108.8800464 416.726400
   5337   5339   5342     1   108.8800464 416.726400
   5338   5337   5339     1   117.6800502 383.254400
   5339   5341   5343     1   109.5600471 388.275200
   5339   5341   5344     1   109.5600471 388.275200
   5340   5339   5341     1   109.5600471 388.275200
   5340   5339   5342     1   108.4600466 328.025600
   5341   5339   5342     1   109.5600471 388.275200
   5343   5341   5345     1   109.8800469 414.216000
   5343   5341   5344     1   108.4600466 328.025600
   5344   5341   5345     1   109.8800469 414.216000
   5345   5346   5355     1   109.8800469 414.216000
   5345   5346   5356     1   109.8800469 414.216000
   5345   5347   5348     1   109.8800469 414.216000
   5345   5347   5350     1   109.8800469 414.216000
   5346   5357   5358     1   109.8000471 387.438400
   5346   5357   5359     1   109.8000471 387.438400
   5347   5349   5351     1   109.8000471 387.438400
   5347   5349   5352     1   109.8000471 387.438400
   5348   5347   5349     1   109.5600471 388.275200
   5348   5347   5350     1   108.4600466 328.025600
   5349   5347   5350     1   109.5600471 388.275200
   5351   5349   5353     1   108.7700466 392.459200
   5351   5349   5352     1   107.5800459 329.699200
   5352   5349   5353     1   108.7700466 392.459200
   5353   5385   5375     1   119.3800509 410.868800
   5355   5346   5357     1   109.5600471 388.275200
   5355   5346   5356     1   108.4600466 328.025600
   5356   5346   5357     1   109.5600471 388.275200
   5358   5357   5360     1   108.7700466 392.459200
   5358   5357   5359     1   107.5800459 329.699200
   5359   5357   5360     1   108.7700466 392.459200
   5360   5409   5399     1   119.3800509 410.868800
   5362   5363   5382     1   109.5600471 388.275200
   5362   5373   5376     1   109.5600471 388.275200
   5362   5373   5377     1   109.5600471 388.275200
   5363   5362   5364     1   109.5600471 388.275200
   5363   5365   5369     1   109.5600471 388.275200
   5363   5383   5384     1   107.2600461 396.643200
   5364   5362   5373     1   109.5600471 388.275200
   5364   5362   5380     1   109.7800468 425.094400
   5365   5363   5382     1   109.5600471 388.275200
   5365   5366   5368     1   109.5600471 388.275200
   5365   5372   5374     1   107.2600461 396.643200
   5366   5365   5369     1   109.5600471 388.275200
   5366   5367   5370     1   110.2200475 386.601600
   5366   5385   5375     1   109.2900470 396.643200
   5367   5366   5368     1   109.5600471 388.275200
   5367   5371   5381     1   107.2600461 396.643200
   5368   5366   5385     1   109.8800469 414.216000
   5369   5365   5372     1   110.2600474 425.931200
   5370   5367   5371     1   109.4300470 427.604800
   5370   5367   5380     1   109.5800467 425.931200
   5373   5378   5379     1   107.2600461 396.643200
   5376   5373   5378     1   110.2600474 425.931200
   5376   5373   5377     1   108.4600466 328.025600
   5377   5373   5378     1   110.2600474 425.931200
   5382   5363   5383     1   110.2600474 425.931200
   5386   5387   5406     1   109.5600471 388.275200
   5386   5397   5400     1   109.5600471 388.275200
   5386   5397   5401     1   109.5600471 388.275200
   5387   5386   5388     1   109.5600471 388.275200
   5387   5389   5393     1   109.5600471 388.275200
   5387   5407   5408     1   107.2600461 396.643200
   5388   5386   5397     1   109.5600471 388.275200
   5388   5386   5404     1   109.7800468 425.094400
   5389   5387   5406     1   109.5600471 388.275200
   5389   5390   5392     1   109.5600471 388.275200
   5389   5396   5398     1   107.2600461 396.643200
   5390   5389   5393     1   109.5600471 388.275200
   5390   5391   5394     1   110.2200475 386.601600
   5390   5409   5399     1   109.2900470 396.643200
   5391   5390   5392     1   109.5600471 388.275200
   5391   5395   5405     1   107.2600461 396.643200
   5392   5390   5409     1   109.8800469 414.216000
   5393   5389   5396     1   110.2600474 425.931200
   5394   5391   5395     1   109.4300470 427.604800
   5394   5391   5404     1   109.5800467 425.931200
   5397   5402   5403     1   107.2600461 396.643200
   5400   5397   5402     1   110.2600474 425.931200
   5400   5397   5401     1   108.4600466 328.025600
   5401   5397   5402     1   110.2600474 425.931200
   5406   5387   5407     1   110.2600474 425.931200
   5410   5412   5413     1   108.8800464 416.726400
   5410   5412   5415     1   108.8800464 416.726400
   5411   5410   5412     1   117.6800502 383.254400
   5412   5414   5416     1   109.5600471 388.275200
   5412   5414   5417     1   109.5600471 388.275200
   5413   5412   5414     1   109.5600471 388.275200
   5413   5412   5415     1   108.4600466 328.025600
   5414   5412   5415     1   109.5600471 388.275200
   5416   5414   5418     1   109.8800469 414.216000
   5416   5414   5417     1   108.4600466 328.025600
   5417   5414   5418     1   109.8800469 414.216000
   5418   5419   5428     1   109.8800469 414.216000
   5418   5419   5429     1   109.8800469 414.216000
   5418   5420   5421     1   109.8800469 414.216000
   5418   5420   5423     1   109.8800469 414.216000
   5419   5430   5431     1   109.8000471 387.438400
   5419   5430   5432     1   109.8000471 387.438400
   5420   5422   5424     1   109.8000471 387.438400
   5420   5422   5425     1   109.8000471 387.438400
   5421   5420   5422     1   109.5600471 388.275200
   5421   5420   5423     1   108.4600466 328.025600
   5422   5420   5423     1   109.5600471 388.275200
   5424   5422   5426     1   108.7700466 392.459200
   5424   5422   5425     1   107.5800459 329.699200
   5425   5422   5426     1   108.7700466 392.459200
   5426   5458   5448     1   119.3800509 410.868800
   5428   5419   5430     1   109.5600471 388.275200
   5428   5419   5429     1   108.4600466 328.025600
   5429   5419   5430     1   109.5600471 388.275200
   5431   5430   5433     1   108.7700466 392.459200
   5431   5430   5432     1   107.5800459 329.699200
   5432   5430   5433     1   108.7700466 392.459200
   5433   5482   5472     1   119.3800509 410.868800
   5435   5436   5455     1   109.5600471 388.275200
   5435   5446   5449     1   109.5600471 388.275200
   5435   5446   5450     1   109.5600471 388.275200
   5436   5438   5442     1   109.5600471 388.275200
   5436   5456   5457     1   107.2600461 396.643200
   5436   5435   5437     1   109.5600471 388.275200
   5437   5435   5446     1   109.5600471 388.275200
   5437   5435   5453     1   109.7800468 425.094400
   5438   5439   5441     1   109.5600471 388.275200
   5438   5445   5447     1   107.2600461 396.643200
   5438   5436   5455     1   109.5600471 388.275200
   5439   5440   5443     1   110.2200475 386.601600
   5439   5458   5448     1   109.2900470 396.643200
   5439   5438   5442     1   109.5600471 388.275200
   5440   5444   5454     1   107.2600461 396.643200
   5440   5439   5441     1   109.5600471 388.275200
   5441   5439   5458     1   109.8800469 414.216000
   5442   5438   5445     1   110.2600474 425.931200
   5443   5440   5444     1   109.4300470 427.604800
   5443   5440   5453     1   109.5800467 425.931200
   5446   5451   5452     1   107.2600461 396.643200
   5449   5446   5451     1   110.2600474 425.931200
   5449   5446   5450     1   108.4600466 328.025600
   5450   5446   5451     1   110.2600474 425.931200
   5455   5436   5456     1   110.2600474 425.931200
   5459   5460   5479     1   109.5600471 388.275200
   5459   5470   5473     1   109.5600471 388.275200
   5459   5470   5474     1   109.5600471 388.275200
   5460   5462   5466     1   109.5600471 388.275200
   5460   5480   5481     1   107.2600461 396.643200
   5460   5459   5461     1   109.5600471 388.275200
   5461   5459   5470     1   109.5600471 388.275200
   5461   5459   5477     1   109.7800468 425.094400
   5462   5463   5465     1   109.5600471 388.275200
   5462   5469   5471     1   107.2600461 396.643200
   5462   5460   5479     1   109.5600471 388.275200
   5463   5464   5467     1   110.2200475 386.601600
   5463   5482   5472     1   109.2900470 396.643200
   5463   5462   5466     1   109.5600471 388.275200
   5464   5468   5478     1   107.2600461 396.643200
   5464   5463   5465     1   109.5600471 388.275200
   5465   5463   5482     1   109.8800469 414.216000
   5466   5462   5469     1   110.2600474 425.931200
   5467   5464   5468     1   109.4300470 427.604800
   5467   5464   5477     1   109.5800467 425.931200
   5470   5475   5476     1   107.2600461 396.643200
   5473   5470   5475     1   110.2600474 425.931200
   5473   5470   5474     1   108.4600466 328.025600
   5474   5470   5475     1   110.2600474 425.931200
   5479   5460   5480     1   110.2600474 425.931200
   5483   5485   5486     1   108.8800464 416.726400
   5483   5485   5488     1   108.8800464 416.726400
   5484   5483   5485     1   117.6800502 383.254400
   5485   5487   5489     1   109.5600471 388.275200
   5485   5487   5490     1   109.5600471 388.275200
   5486   5485   5487     1   109.5600471 388.275200
   5486   5485   5488     1   108.4600466 328.025600
   5487   5485   5488     1   109.5600471 388.275200
   5489   5487   5491     1   109.8800469 414.216000
   5489   5487   5490     1   108.4600466 328.025600
   5490   5487   5491     1   109.8800469 414.216000
   5491   5492   5501     1   109.8800469 414.216000
   5491   5492   5502     1   109.8800469 414.216000
   5491   5493   5494     1   109.8800469 414.216000
   5491   5493   5496     1   109.8800469 414.216000
   5492   5503   5504     1   109.8000471 387.438400
   5492   5503   5505     1   109.8000471 387.438400
   5493   5495   5497     1   109.8000471 387.438400
   5493   5495   5498     1   109.8000471 387.438400
   5494   5493   5495     1   109.5600471 388.275200
   5494   5493   5496     1   108.4600466 328.025600
   5495   5493   5496     1   109.5600471 388.275200
   5497   5495   5499     1   108.7700466 392.459200
   5497   5495   5498     1   107.5800459 329.699200
   5498   5495   5499     1   108.7700466 392.459200
   5499   5531   5521     1   119.3800509 410.868800
   5501   5492   5503     1   109.5600471 388.275200
   5501   5492   5502     1   108.4600466 328.025600
   5502   5492   5503     1   109.5600471 388.275200
   5504   5503   5506     1   108.7700466 392.459200
   5504   5503   5505     1   107.5800459 329.699200
   5505   5503   5506     1   108.7700466 392.459200
   5506   5555   5545     1   119.3800509 410.868800
   5508   5509   5528     1   109.5600471 388.275200
   5508   5519   5522     1   109.5600471 388.275200
   5508   5519   5523     1   109.5600471 388.275200
   5509   5508   5510     1   109.5600471 388.275200
   5509   5511   5515     1   109.5600471 388.275200
   5509   5529   5530     1   107.2600461 396.643200
   5510   5508   5519     1   109.5600471 388.275200
   5510   5508   5526     1   109.7800468 425.094400
   5511   5509   5528     1   109.5600471 388.275200
   5511   5512   5514     1   109.5600471 388.275200
   5511   5518   5520     1   107.2600461 396.643200
   5512   5511   5515     1   109.5600471 388.275200
   5512   5513   5516     1   110.2200475 386.601600
   5512   5531   5521     1   109.2900470 396.643200
   5513   5512   5514     1   109.5600471 388.275200
   5513   5517   5527     1   107.2600461 396.643200
   5514   5512   5531     1   109.8800469 414.216000
   5515   5511   5518     1   110.2600474 425.931200
   5516   5513   5517     1   109.4300470 427.604800
   5516   5513   5526     1   109.5800467 425.931200
   5519   5524   5525     1   107.2600461 396.643200
   5522   5519   5524     1   110.2600474 425.931200
   5522   5519   5523     1   108.4600466 328.025600
   5523   5519   5524     1   110.2600474 425.931200
   5528   5509   5529     1   110.2600474 425.931200
   5532   5533   5552     1   109.5600471 388.275200
   5532   5543   5546     1   109.5600471 388.275200
   5532   5543   5547     1   109.5600471 388.275200
   5533   5532   5534     1   109.5600471 388.275200
   5533   5535   5539     1   109.5600471 388.275200
   5533   5553   5554     1   107.2600461 396.643200
   5534   5532   5543     1   109.5600471 388.275200
   5534   5532   5550     1   109.7800468 425.094400
   5535   5533   5552     1   109.5600471 388.275200
   5535   5536   5538     1   109.5600471 388.275200
   5535   5542   5544     1   107.2600461 396.643200
   5536   5535   5539     1   109.5600471 388.275200
   5536   5537   5540     1   110.2200475 386.601600
   5536   5555   5545     1   109.2900470 396.643200
   5537   5536   5538     1   109.5600471 388.275200
   5537   5541   5551     1   107.2600461 396.643200
   5538   5536   5555     1   109.8800469 414.216000
   5539   5535   5542     1   110.2600474 425.931200
   5540   5537   5541     1   109.4300470 427.604800
   5540   5537   5550     1   109.5800467 425.931200
   5543   5548   5549     1   107.2600461 396.643200
   5546   5543   5548     1   110.2600474 425.931200
   5546   5543   5547     1   108.4600466 328.025600
   5547   5543   5548     1   110.2600474 425.931200
   5552   5533   5553     1   110.2600474 425.931200
   5556   5558   5559     1   108.8800464 416.726400
   5556   5558   5561     1   108.8800464 416.726400
   5557   5556   5558     1   117.6800502 383.254400
   5558   5560   5562     1   109.5600471 388.275200
   5558   5560   5563     1   109.5600471 388.275200
   5559   5558   5560     1   109.5600471 388.275200
   5559   5558   5561     1   108.4600466 328.025600
   5560   5558   5561     1   109.5600471 388.275200
   5562   5560   5564     1   109.8800469 414.216000
   5562   5560   5563     1   108.4600466 328.025600
   5563   5560   5564     1   109.8800469 414.216000
   5564   5565   5574     1   109.8800469 414.216000
   5564   5565   5575     1   109.8800469 414.216000
   5564   5566   5567     1   109.8800469 414.216000
   5564   5566   5569     1   109.8800469 414.216000
   5565   5576   5577     1   109.8000471 387.438400
   5565   5576   5578     1   109.8000471 387.438400
   5566   5568   5570     1   109.8000471 387.438400
   5566   5568   5571     1   109.8000471 387.438400
   5567   5566   5568     1   109.5600471 388.275200
   5567   5566   5569     1   108.4600466 328.025600
   5568   5566   5569     1   109.5600471 388.275200
   5570   5568   5572     1   108.7700466 392.459200
   5570   5568   5571     1   107.5800459 329.699200
   5571   5568   5572     1   108.7700466 392.459200
   5572   5604   5594     1   119.3800509 410.868800
   5574   5565   5576     1   109.5600471 388.275200
   5574   5565   5575     1   108.4600466 328.025600
   5575   5565   5576     1   109.5600471 388.275200
   5577   5576   5579     1   108.7700466 392.459200
   5577   5576   5578     1   107.5800459 329.699200
   5578   5576   5579     1   108.7700466 392.459200
   5579   5628   5618     1   119.3800509 410.868800
   5581   5582   5601     1   109.5600471 388.275200
   5581   5592   5595     1   109.5600471 388.275200
   5581   5592   5596     1   109.5600471 388.275200
   5582   5584   5588     1   109.5600471 388.275200
   5582   5602   5603     1   107.2600461 396.643200
   5582   5581   5583     1   109.5600471 388.275200
   5583   5581   5592     1   109.5600471 388.275200
   5583   5581   5599     1   109.7800468 425.094400
   5584   5585   5587     1   109.5600471 388.275200
   5584   5591   5593     1   107.2600461 396.643200
   5584   5582   5601     1   109.5600471 388.275200
   5585   5586   5589     1   110.2200475 386.601600
   5585   5604   5594     1   109.2900470 396.643200
   5585   5584   5588     1   109.5600471 388.275200
   5586   5590   5600     1   107.2600461 396.643200
   5586   5585   5587     1   109.5600471 388.275200
   5587   5585   5604     1   109.8800469 414.216000
   5588   5584   5591     1   110.2600474 425.931200
   5589   5586   5590     1   109.4300470 427.604800
   5589   5586   5599     1   109.5800467 425.931200
   5592   5597   5598     1   107.2600461 396.643200
   5595   5592   5597     1   110.2600474 425.931200
   5595   5592   5596     1   108.4600466 328.025600
   5596   5592   5597     1   110.2600474 425.931200
   5601   5582   5602     1   110.2600474 425.931200
   5605   5606   5625     1   109.5600471 388.275200
   5605   5616   5619     1   109.5600471 388.275200
   5605   5616   5620     1   109.5600471 388.275200
   5606   5608   5612     1   109.5600471 388.275200
   5606   5626   5627     1   107.2600461 396.643200
   5606   5605   5607     1   109.5600471 388.275200
   5607   5605   5616     1   109.5600471 388.275200
   5607   5605   5623     1   109.7800468 425.094400
   5608   5609   5611     1   109.5600471 388.275200
   5608   5615   5617     1   107.2600461 396.643200
   5608   5606   5625     1   109.5600471 388.275200
   5609   5610   5613     1   110.2200475 386.601600
   5609   5628   5618     1   109.2900470 396.643200
   5609   5608   5612     1   109.5600471 388.275200
   5610   5614   5624     1   107.2600461 396.643200
   5610   5609   5611     1   109.5600471 388.275200
   5611   5609   5628     1   109.8800469 414.216000
   5612   5608   5615     1   110.2600474 425.931200
   5613   5610   5614     1   109.4300470 427.604800
   5613   5610   5623     1   109.5800467 425.931200
   5616   5621   5622     1   107.2600461 396.643200
   5619   5616   5621     1   110.2600474 425.931200
   5619   5616   5620     1   108.4600466 328.025600
   5620   5616   5621     1   110.2600474 425.931200
   5625   5606   5626     1   110.2600474 425.931200
   5629   5631   5632     1   108.8800464 416.726400
   5629   5631   5634     1   108.8800464 416.726400
   5630   5629   5631     1   117.6800502 383.254400
   5631   5633   5635     1   109.5600471 388.275200
   5631   5633   5636     1   109.5600471 388.275200
   5632   5631   5633     1   109.5600471 388.275200
   5632   5631   5634     1   108.4600466 328.025600
   5633   5631   5634     1   109.5600471 388.275200
   5635   5633   5637     1   109.8800469 414.216000
   5635   5633   5636     1   108.4600466 328.025600
   5636   5633   5637     1   109.8800469 414.216000
   5637   5638   5647     1   109.8800469 414.216000
   5637   5638   5648     1   109.8800469 414.216000
   5637   5639   5640     1   109.8800469 414.216000
   5637   5639   5642     1   109.8800469 414.216000
   5638   5649   5650     1   109.8000471 387.438400
   5638   5649   5651     1   109.8000471 387.438400
   5639   5641   5643     1   109.8000471 387.438400
   5639   5641   5644     1   109.8000471 387.438400
   5640   5639   5641     1   109.5600471 388.275200
   5640   5639   5642     1   108.4600466 328.025600
   5641   5639   5642     1   109.5600471 388.275200
   5643   5641   5645     1   108.7700466 392.459200
   5643   5641   5644     1   107.5800459 329.699200
   5644   5641   5645     1   108.7700466 392.459200
   5645   5677   5667     1   119.3800509 410.868800
   5647   5638   5649     1   109.5600471 388.275200
   5647   5638   5648     1   108.4600466 328.025600
   5648   5638   5649     1   109.5600471 388.275200
   5650   5649   5652     1   108.7700466 392.459200
   5650   5649   5651     1   107.5800459 329.699200
   5651   5649   5652     1   108.7700466 392.459200
   5652   5701   5691     1   119.3800509 410.868800
   5654   5655   5674     1   109.5600471 388.275200
   5654   5665   5668     1   109.5600471 388.275200
   5654   5665   5669     1   109.5600471 388.275200
   5655   5654   5656     1   109.5600471 388.275200
   5655   5657   5661     1   109.5600471 388.275200
   5655   5675   5676     1   107.2600461 396.643200
   5656   5654   5665     1   109.5600471 388.275200
   5656   5654   5672     1   109.7800468 425.094400
   5657   5655   5674     1   109.5600471 388.275200
   5657   5658   5660     1   109.5600471 388.275200
   5657   5664   5666     1   107.2600461 396.643200
   5658   5657   5661     1   109.5600471 388.275200
   5658   5659   5662     1   110.2200475 386.601600
   5658   5677   5667     1   109.2900470 396.643200
   5659   5658   5660     1   109.5600471 388.275200
   5659   5663   5673     1   107.2600461 396.643200
   5660   5658   5677     1   109.8800469 414.216000
   5661   5657   5664     1   110.2600474 425.931200
   5662   5659   5663     1   109.4300470 427.604800
   5662   5659   5672     1   109.5800467 425.931200
   5665   5670   5671     1   107.2600461 396.643200
   5668   5665   5670     1   110.2600474 425.931200
   5668   5665   5669     1   108.4600466 328.025600
   5669   5665   5670     1   110.2600474 425.931200
   5674   5655   5675     1   110.2600474 425.931200
   5678   5679   5698     1   109.5600471 388.275200
   5678   5689   5692     1   109.5600471 388.275200
   5678   5689   5693     1   109.5600471 388.275200
   5679   5678   5680     1   109.5600471 388.275200
   5679   5681   5685     1   109.5600471 388.275200
   5679   5699   5700     1   107.2600461 396.643200
   5680   5678   5689     1   109.5600471 388.275200
   5680   5678   5696     1   109.7800468 425.094400
   5681   5679   5698     1   109.5600471 388.275200
   5681   5682   5684     1   109.5600471 388.275200
   5681   5688   5690     1   107.2600461 396.643200
   5682   5681   5685     1   109.5600471 388.275200
   5682   5683   5686     1   110.2200475 386.601600
   5682   5701   5691     1   109.2900470 396.643200
   5683   5682   5684     1   109.5600471 388.275200
   5683   5687   5697     1   107.2600461 396.643200
   5684   5682   5701     1   109.8800469 414.216000
   5685   5681   5688     1   110.2600474 425.931200
   5686   5683   5687     1   109.4300470 427.604800
   5686   5683   5696     1   109.5800467 425.931200
   5689   5694   5695     1   107.2600461 396.643200
   5692   5689   5694     1   110.2600474 425.931200
   5692   5689   5693     1   108.4600466 328.025600
   5693   5689   5694     1   110.2600474 425.931200
   5698   5679   5699     1   110.2600474 425.931200
   5702   5704   5705     1   108.8800464 416.726400
   5702   5704   5707     1   108.8800464 416.726400
   5703   5702   5704     1   117.6800502 383.254400
   5704   5706   5708     1   109.5600471 388.275200
   5704   5706   5709     1   109.5600471 388.275200
   5705   5704   5706     1   109.5600471 388.275200
   5705   5704   5707     1   108.4600466 328.025600
   5706   5704   5707     1   109.5600471 388.275200
   5708   5706   5710     1   109.8800469 414.216000
   5708   5706   5709     1   108.4600466 328.025600
   5709   5706   5710     1   109.8800469 414.216000
   5710   5711   5720     1   109.8800469 414.216000
   5710   5711   5721     1   109.8800469 414.216000
   5710   5712   5713     1   109.8800469 414.216000
   5710   5712   5715     1   109.8800469 414.216000
   5711   5722   5723     1   109.8000471 387.438400
   5711   5722   5724     1   109.8000471 387.438400
   5712   5714   5716     1   109.8000471 387.438400
   5712   5714   5717     1   109.8000471 387.438400
   5713   5712   5714     1   109.5600471 388.275200
   5713   5712   5715     1   108.4600466 328.025600
   5714   5712   5715     1   109.5600471 388.275200
   5716   5714   5718     1   108.7700466 392.459200
   5716   5714   5717     1   107.5800459 329.699200
   5717   5714   5718     1   108.7700466 392.459200
   5718   5750   5740     1   119.3800509 410.868800
   5720   5711   5722     1   109.5600471 388.275200
   5720   5711   5721     1   108.4600466 328.025600
   5721   5711   5722     1   109.5600471 388.275200
   5723   5722   5725     1   108.7700466 392.459200
   5723   5722   5724     1   107.5800459 329.699200
   5724   5722   5725     1   108.7700466 392.459200
   5725   5774   5764     1   119.3800509 410.868800
   5727   5728   5747     1   109.5600471 388.275200
   5727   5738   5741     1   109.5600471 388.275200
   5727   5738   5742     1   109.5600471 388.275200
   5728   5730   5734     1   109.5600471 388.275200
   5728   5748   5749     1   107.2600461 396.643200
   5728   5727   5729     1   109.5600471 388.275200
   5729   5727   5738     1   109.5600471 388.275200
   5729   5727   5745     1   109.7800468 425.094400
   5730   5731   5733     1   109.5600471 388.275200
   5730   5737   5739     1   107.2600461 396.643200
   5730   5728   5747     1   109.5600471 388.275200
   5731   5732   5735     1   110.2200475 386.601600
   5731   5750   5740     1   109.2900470 396.643200
   5731   5730   5734     1   109.5600471 388.275200
   5732   5736   5746     1   107.2600461 396.643200
   5732   5731   5733     1   109.5600471 388.275200
   5733   5731   5750     1   109.8800469 414.216000
   5734   5730   5737     1   110.2600474 425.931200
   5735   5732   5736     1   109.4300470 427.604800
   5735   5732   5745     1   109.5800467 425.931200
   5738   5743   5744     1   107.2600461 396.643200
   5741   5738   5743     1   110.2600474 425.931200
   5741   5738   5742     1   108.4600466 328.025600
   5742   5738   5743     1   110.2600474 425.931200
   5747   5728   5748     1   110.2600474 425.931200
   5751   5752   5771     1   109.5600471 388.275200
   5751   5762   5765     1   109.5600471 388.275200
   5751   5762   5766     1   109.5600471 388.275200
   5752   5754   5758     1   109.5600471 388.275200
   5752   5772   5773     1   107.2600461 396.643200
   5752   5751   5753     1   109.5600471 388.275200
   5753   5751   5762     1   109.5600471 388.275200
   5753   5751   5769     1   109.7800468 425.094400
   5754   5755   5757     1   109.5600471 388.275200
   5754   5761   5763     1   107.2600461 396.643200
   5754   5752   5771     1   109.5600471 388.275200
   5755   5756   5759     1   110.2200475 386.601600
   5755   5774   5764     1   109.2900470 396.643200
   5755   5754   5758     1   109.5600471 388.275200
   5756   5760   5770     1   107.2600461 396.643200
   5756   5755   5757     1   109.5600471 388.275200
   5757   5755   5774     1   109.8800469 414.216000
   5758   5754   5761     1   110.2600474 425.931200
   5759   5756   5760     1   109.4300470 427.604800
   5759   5756   5769     1   109.5800467 425.931200
   5762   5767   5768     1   107.2600461 396.643200
   5765   5762   5767     1   110.2600474 425.931200
   5765   5762   5766     1   108.4600466 328.025600
   5766   5762   5767     1   110.2600474 425.931200
   5771   5752   5772     1   110.2600474 425.931200
   5775   5777   5778     1   108.8800464 416.726400
   5775   5777   5780     1   108.8800464 416.726400
   5776   5775   5777     1   117.6800502 383.254400
   5777   5779   5781     1   109.5600471 388.275200
   5777   5779   5782     1   109.5600471 388.275200
   5778   5777   5779     1   109.5600471 388.275200
   5778   5777   5780     1   108.4600466 328.025600
   5779   5777   5780     1   109.5600471 388.275200
   5781   5779   5783     1   109.8800469 414.216000
   5781   5779   5782     1   108.4600466 328.025600
   5782   5779   5783     1   109.8800469 414.216000
   5783   5784   5793     1   109.8800469 414.216000
   5783   5784   5794     1   109.8800469 414.216000
   5783   5785   5786     1   109.8800469 414.216000
   5783   5785   5788     1   109.8800469 414.216000
   5784   5795   5796     1   109.8000471 387.438400
   5784   5795   5797     1   109.8000471 387.438400
   5785   5787   5789     1   109.8000471 387.438400
   5785   5787   5790     1   109.8000471 387.438400
   5786   5785   5787     1   109.5600471 388.275200
   5786   5785   5788     1   108.4600466 328.025600
   5787   5785   5788     1   109.5600471 388.275200
   5789   5787   5791     1   108.7700466 392.459200
   5789   5787   5790     1   107.5800459 329.699200
   5790   5787   5791     1   108.7700466 392.459200
   5791   5823   5813     1   119.3800509 410.868800
   5793   5784   5795     1   109.5600471 388.275200
   5793   5784   5794     1   108.4600466 328.025600
   5794   5784   5795     1   109.5600471 388.275200
   5796   5795   5798     1   108.7700466 392.459200
   5796   5795   5797     1   107.5800459 329.699200
   5797   5795   5798     1   108.7700466 392.459200
   5798   5847   5837     1   119.3800509 410.868800
   5800   5801   5820     1   109.5600471 388.275200
   5800   5811   5814     1   109.5600471 388.275200
   5800   5811   5815     1   109.5600471 388.275200
   5801   5800   5802     1   109.5600471 388.275200
   5801   5803   5807     1   109.5600471 388.275200
   5801   5821   5822     1   107.2600461 396.643200
   5802   5800   5811     1   109.5600471 388.275200
   5802   5800   5818     1   109.7800468 425.094400
   5803   5801   5820     1   109.5600471 388.275200
   5803   5804   5806     1   109.5600471 388.275200
   5803   5810   5812     1   107.2600461 396.643200
   5804   5803   5807     1   109.5600471 388.275200
   5804   5805   5808     1   110.2200475 386.601600
   5804   5823   5813     1   109.2900470 396.643200
   5805   5804   5806     1   109.5600471 388.275200
   5805   5809   5819     1   107.2600461 396.643200
   5806   5804   5823     1   109.8800469 414.216000
   5807   5803   5810     1   110.2600474 425.931200
   5808   5805   5809     1   109.4300470 427.604800
   5808   5805   5818     1   109.5800467 425.931200
   5811   5816   5817     1   107.2600461 396.643200
   5814   5811   5816     1   110.2600474 425.931200
   5814   5811   5815     1   108.4600466 328.025600
   5815   5811   5816     1   110.2600474 425.931200
   5820   5801   5821     1   110.2600474 425.931200
   5824   5825   5844     1   109.5600471 388.275200
   5824   5835   5838     1   109.5600471 388.275200
   5824   5835   5839     1   109.5600471 388.275200
   5825   5824   5826     1   109.5600471 388.275200
   5825   5827   5831     1   109.5600471 388.275200
   5825   5845   5846     1   107.2600461 396.643200
   5826   5824   5835     1   109.5600471 388.275200
   5826   5824   5842     1   109.7800468 425.094400
   5827   5825   5844     1   109.5600471 388.275200
   5827   5828   5830     1   109.5600471 388.275200
   5827   5834   5836     1   107.2600461 396.643200
   5828   5827   5831     1   109.5600471 388.275200
   5828   5829   5832     1   110.2200475 386.601600
   5828   5847   5837     1   109.2900470 396.643200
   5829   5828   5830     1   109.5600471 388.275200
   5829   5833   5843     1   107.2600461 396.643200
   5830   5828   5847     1   109.8800469 414.216000
   5831   5827   5834     1   110.2600474 425.931200
   5832   5829   5833     1   109.4300470 427.604800
   5832   5829   5842     1   109.5800467 425.931200
   5835   5840   5841     1   107.2600461 396.643200
   5838   5835   5840     1   110.2600474 425.931200
   5838   5835   5839     1   108.4600466 328.025600
   5839   5835   5840     1   110.2600474 425.931200
   5844   5825   5845     1   110.2600474 425.931200
   5848   5850   5851     1   108.8800464 416.726400
   5848   5850   5853     1   108.8800464 416.726400
   5849   5848   5850     1   117.6800502 383.254400
   5850   5852   5854     1   109.5600471 388.275200
   5850   5852   5855     1   109.5600471 388.275200
   5851   5850   5852     1   109.5600471 388.275200
   5851   5850   5853     1   108.4600466 328.025600
   5852   5850   5853     1   109.5600471 388.275200
   5854   5852   5856     1   109.8800469 414.216000
   5854   5852   5855     1   108.4600466 328.025600
   5855   5852   5856     1   109.8800469 414.216000
   5856   5857   5866     1   109.8800469 414.216000
   5856   5857   5867     1   109.8800469 414.216000
   5856   5858   5859     1   109.8800469 414.216000
   5856   5858   5861     1   109.8800469 414.216000
   5857   5868   5869     1   109.8000471 387.438400
   5857   5868   5870     1   109.8000471 387.438400
   5858   5860   5862     1   109.8000471 387.438400
   5858   5860   5863     1   109.8000471 387.438400
   5859   5858   5860     1   109.5600471 388.275200
   5859   5858   5861     1   108.4600466 328.025600
   5860   5858   5861     1   109.5600471 388.275200
   5862   5860   5864     1   108.7700466 392.459200
   5862   5860   5863     1   107.5800459 329.699200
   5863   5860   5864     1   108.7700466 392.459200
   5864   5896   5886     1   119.3800509 410.868800
   5866   5857   5868     1   109.5600471 388.275200
   5866   5857   5867     1   108.4600466 328.025600
   5867   5857   5868     1   109.5600471 388.275200
   5869   5868   5871     1   108.7700466 392.459200
   5869   5868   5870     1   107.5800459 329.699200
   5870   5868   5871     1   108.7700466 392.459200
   5871   5920   5910     1   119.3800509 410.868800
   5873   5874   5893     1   109.5600471 388.275200
   5873   5884   5887     1   109.5600471 388.275200
   5873   5884   5888     1   109.5600471 388.275200
   5874   5876   5880     1   109.5600471 388.275200
   5874   5894   5895     1   107.2600461 396.643200
   5874   5873   5875     1   109.5600471 388.275200
   5875   5873   5884     1   109.5600471 388.275200
   5875   5873   5891     1   109.7800468 425.094400
   5876   5877   5879     1   109.5600471 388.275200
   5876   5883   5885     1   107.2600461 396.643200
   5876   5874   5893     1   109.5600471 388.275200
   5877   5878   5881     1   110.2200475 386.601600
   5877   5896   5886     1   109.2900470 396.643200
   5877   5876   5880     1   109.5600471 388.275200
   5878   5882   5892     1   107.2600461 396.643200
   5878   5877   5879     1   109.5600471 388.275200
   5879   5877   5896     1   109.8800469 414.216000
   5880   5876   5883     1   110.2600474 425.931200
   5881   5878   5882     1   109.4300470 427.604800
   5881   5878   5891     1   109.5800467 425.931200
   5884   5889   5890     1   107.2600461 396.643200
   5887   5884   5889     1   110.2600474 425.931200
   5887   5884   5888     1   108.4600466 328.025600
   5888   5884   5889     1   110.2600474 425.931200
   5893   5874   5894     1   110.2600474 425.931200
   5897   5898   5917     1   109.5600471 388.275200
   5897   5908   5911     1   109.5600471 388.275200
   5897   5908   5912     1   109.5600471 388.275200
   5898   5900   5904     1   109.5600471 388.275200
   5898   5918   5919     1   107.2600461 396.643200
   5898   5897   5899     1   109.5600471 388.275200
   5899   5897   5908     1   109.5600471 388.275200
   5899   5897   5915     1   109.7800468 425.094400
   5900   5901   5903     1   109.5600471 388.275200
   5900   5907   5909     1   107.2600461 396.643200
   5900   5898   5917     1   109.5600471 388.275200
   5901   5902   5905     1   110.2200475 386.601600
   5901   5920   5910     1   109.2900470 396.643200
   5901   5900   5904     1   109.5600471 388.275200
   5902   5906   5916     1   107.2600461 396.643200
   5902   5901   5903     1   109.5600471 388.275200
   5903   5901   5920     1   109.8800469 414.216000
   5904   5900   5907     1   110.2600474 425.931200
   5905   5902   5906     1   109.4300470 427.604800
   5905   5902   5915     1   109.5800467 425.931200
   5908   5913   5914     1   107.2600461 396.643200
   5911   5908   5913     1   110.2600474 425.931200
   5911   5908   5912     1   108.4600466 328.025600
   5912   5908   5913     1   110.2600474 425.931200
   5917   5898   5918     1   110.2600474 425.931200
   5921   5923   5924     1   108.8800464 416.726400
   5921   5923   5926     1   108.8800464 416.726400
   5922   5921   5923     1   117.6800502 383.254400
   5923   5925   5927     1   109.5600471 388.275200
   5923   5925   5928     1   109.5600471 388.275200
   5924   5923   5925     1   109.5600471 388.275200
   5924   5923   5926     1   108.4600466 328.025600
   5925   5923   5926     1   109.5600471 388.275200
   5927   5925   5929     1   109.8800469 414.216000
   5927   5925   5928     1   108.4600466 328.025600
   5928   5925   5929     1   109.8800469 414.216000
   5929   5930   5939     1   109.8800469 414.216000
   5929   5930   5940     1   109.8800469 414.216000
   5929   5931   5932     1   109.8800469 414.216000
   5929   5931   5934     1   109.8800469 414.216000
   5930   5941   5942     1   109.8000471 387.438400
   5930   5941   5943     1   109.8000471 387.438400
   5931   5933   5935     1   109.8000471 387.438400
   5931   5933   5936     1   109.8000471 387.438400
   5932   5931   5933     1   109.5600471 388.275200
   5932   5931   5934     1   108.4600466 328.025600
   5933   5931   5934     1   109.5600471 388.275200
   5935   5933   5937     1   108.7700466 392.459200
   5935   5933   5936     1   107.5800459 329.699200
   5936   5933   5937     1   108.7700466 392.459200
   5937   5969   5959     1   119.3800509 410.868800
   5939   5930   5941     1   109.5600471 388.275200
   5939   5930   5940     1   108.4600466 328.025600
   5940   5930   5941     1   109.5600471 388.275200
   5942   5941   5944     1   108.7700466 392.459200
   5942   5941   5943     1   107.5800459 329.699200
   5943   5941   5944     1   108.7700466 392.459200
   5944   5993   5983     1   119.3800509 410.868800
   5946   5947   5966     1   109.5600471 388.275200
   5946   5957   5960     1   109.5600471 388.275200
   5946   5957   5961     1   109.5600471 388.275200
   5947   5946   5948     1   109.5600471 388.275200
   5947   5949   5953     1   109.5600471 388.275200
   5947   5967   5968     1   107.2600461 396.643200
   5948   5946   5957     1   109.5600471 388.275200
   5948   5946   5964     1   109.7800468 425.094400
   5949   5947   5966     1   109.5600471 388.275200
   5949   5950   5952     1   109.5600471 388.275200
   5949   5956   5958     1   107.2600461 396.643200
   5950   5949   5953     1   109.5600471 388.275200
   5950   5951   5954     1   110.2200475 386.601600
   5950   5969   5959     1   109.2900470 396.643200
   5951   5950   5952     1   109.5600471 388.275200
   5951   5955   5965     1   107.2600461 396.643200
   5952   5950   5969     1   109.8800469 414.216000
   5953   5949   5956     1   110.2600474 425.931200
   5954   5951   5955     1   109.4300470 427.604800
   5954   5951   5964     1   109.5800467 425.931200
   5957   5962   5963     1   107.2600461 396.643200
   5960   5957   5962     1   110.2600474 425.931200
   5960   5957   5961     1   108.4600466 328.025600
   5961   5957   5962     1   110.2600474 425.931200
   5966   5947   5967     1   110.2600474 425.931200
   5970   5971   5990     1   109.5600471 388.275200
   5970   5981   5984     1   109.5600471 388.275200
   5970   5981   5985     1   109.5600471 388.275200
   5971   5970   5972     1   109.5600471 388.275200
   5971   5973   5977     1   109.5600471 388.275200
   5971   5991   5992     1   107.2600461 396.643200
   5972   5970   5981     1   109.5600471 388.275200
   5972   5970   5988     1   109.7800468 425.094400
   5973   5971   5990     1   109.5600471 388.275200
   5973   5974   5976     1   109.5600471 388.275200
   5973   5980   5982     1   107.2600461 396.643200
   5974   5973   5977     1   109.5600471 388.275200
   5974   5975   5978     1   110.2200475 386.601600
   5974   5993   5983     1   109.2900470 396.643200
   5975   5974   5976     1   109.5600471 388.275200
   5975   5979   5989     1   107.2600461 396.643200
   5976   5974   5993     1   109.8800469 414.216000
   5977   5973   5980     1   110.2600474 425.931200
   5978   5975   5979     1   109.4300470 427.604800
   5978   5975   5988     1   109.5800467 425.931200
   5981   5986   5987     1   107.2600461 396.643200
   5984   5981   5986     1   110.2600474 425.931200
   5984   5981   5985     1   108.4600466 328.025600
   5985   5981   5986     1   110.2600474 425.931200
   5990   5971   5991     1   110.2600474 425.931200
   5994   5996   5997     1   108.8800464 416.726400
   5994   5996   5999     1   108.8800464 416.726400
   5995   5994   5996     1   117.6800502 383.254400
   5996   5998   6000     1   109.5600471 388.275200
   5996   5998   6001     1   109.5600471 388.275200
   5997   5996   5998     1   109.5600471 388.275200
   5997   5996   5999     1   108.4600466 328.025600
   5998   5996   5999     1   109.5600471 388.275200
   6000   5998   6002     1   109.8800469 414.216000
   6000   5998   6001     1   108.4600466 328.025600
   6001   5998   6002     1   109.8800469 414.216000
   6002   6003   6012     1   109.8800469 414.216000
   6002   6003   6013     1   109.8800469 414.216000
   6002   6004   6005     1   109.8800469 414.216000
   6002   6004   6007     1   109.8800469 414.216000
   6003   6014   6015     1   109.8000471 387.438400
   6003   6014   6016     1   109.8000471 387.438400
   6004   6006   6008     1   109.8000471 387.438400
   6004   6006   6009     1   109.8000471 387.438400
   6005   6004   6006     1   109.5600471 388.275200
   6005   6004   6007     1   108.4600466 328.025600
   6006   6004   6007     1   109.5600471 388.275200
   6008   6006   6010     1   108.7700466 392.459200
   6008   6006   6009     1   107.5800459 329.699200
   6009   6006   6010     1   108.7700466 392.459200
   6010   6042   6032     1   119.3800509 410.868800
   6012   6003   6014     1   109.5600471 388.275200
   6012   6003   6013     1   108.4600466 328.025600
   6013   6003   6014     1   109.5600471 388.275200
   6015   6014   6017     1   108.7700466 392.459200
   6015   6014   6016     1   107.5800459 329.699200
   6016   6014   6017     1   108.7700466 392.459200
   6017   6066   6056     1   119.3800509 410.868800
   6019   6020   6039     1   109.5600471 388.275200
   6019   6030   6033     1   109.5600471 388.275200
   6019   6030   6034     1   109.5600471 388.275200
   6020   6022   6026     1   109.5600471 388.275200
   6020   6040   6041     1   107.2600461 396.643200
   6020   6019   6021     1   109.5600471 388.275200
   6021   6019   6030     1   109.5600471 388.275200
   6021   6019   6037     1   109.7800468 425.094400
   6022   6023   6025     1   109.5600471 388.275200
   6022   6029   6031     1   107.2600461 396.643200
   6022   6020   6039     1   109.5600471 388.275200
   6023   6024   6027     1   110.2200475 386.601600
   6023   6042   6032     1   109.2900470 396.643200
   6023   6022   6026     1   109.5600471 388.275200
   6024   6028   6038     1   107.2600461 396.643200
   6024   6023   6025     1   109.5600471 388.275200
   6025   6023   6042     1   109.8800469 414.216000
   6026   6022   6029     1   110.2600474 425.931200
   6027   6024   6028     1   109.4300470 427.604800
   6027   6024   6037     1   109.5800467 425.931200
   6030   6035   6036     1   107.2600461 396.643200
   6033   6030   6035     1   110.2600474 425.931200
   6033   6030   6034     1   108.4600466 328.025600
   6034   6030   6035     1   110.2600474 425.931200
   6039   6020   6040     1   110.2600474 425.931200
   6043   6044   6063     1   109.5600471 388.275200
   6043   6054   6057     1   109.5600471 388.275200
   6043   6054   6058     1   109.5600471 388.275200
   6044   6046   6050     1   109.5600471 388.275200
   6044   6064   6065     1   107.2600461 396.643200
   6044   6043   6045     1   109.5600471 388.275200
   6045   6043   6054     1   109.5600471 388.275200
   6045   6043   6061     1   109.7800468 425.094400
   6046   6047   6049     1   109.5600471 388.275200
   6046   6053   6055     1   107.2600461 396.643200
   6046   6044   6063     1   109.5600471 388.275200
   6047   6048   6051     1   110.2200475 386.601600
   6047   6066   6056     1   109.2900470 396.643200
   6047   6046   6050     1   109.5600471 388.275200
   6048   6052   6062     1   107.2600461 396.643200
   6048   6047   6049     1   109.5600471 388.275200
   6049   6047   6066     1   109.8800469 414.216000
   6050   6046   6053     1   110.2600474 425.931200
   6051   6048   6052     1   109.4300470 427.604800
   6051   6048   6061     1   109.5800467 425.931200
   6054   6059   6060     1   107.2600461 396.643200
   6057   6054   6059     1   110.2600474 425.931200
   6057   6054   6058     1   108.4600466 328.025600
   6058   6054   6059     1   110.2600474 425.931200
   6063   6044   6064     1   110.2600474 425.931200
   6067   6069   6070     1   108.8800464 416.726400
   6067   6069   6072     1   108.8800464 416.726400
   6068   6067   6069     1   117.6800502 383.254400
   6069   6071   6073     1   109.5600471 388.275200
   6069   6071   6074     1   109.5600471 388.275200
   6070   6069   6071     1   109.5600471 388.275200
   6070   6069   6072     1   108.4600466 328.025600
   6071   6069   6072     1   109.5600471 388.275200
   6073   6071   6075     1   109.8800469 414.216000
   6073   6071   6074     1   108.4600466 328.025600
   6074   6071   6075     1   109.8800469 414.216000
   6075   6076   6085     1   109.8800469 414.216000
   6075   6076   6086     1   109.8800469 414.216000
   6075   6077   6078     1   109.8800469 414.216000
   6075   6077   6080     1   109.8800469 414.216000
   6076   6087   6088     1   109.8000471 387.438400
   6076   6087   6089     1   109.8000471 387.438400
   6077   6079   6081     1   109.8000471 387.438400
   6077   6079   6082     1   109.8000471 387.438400
   6078   6077   6079     1   109.5600471 388.275200
   6078   6077   6080     1   108.4600466 328.025600
   6079   6077   6080     1   109.5600471 388.275200
   6081   6079   6083     1   108.7700466 392.459200
   6081   6079   6082     1   107.5800459 329.699200
   6082   6079   6083     1   108.7700466 392.459200
   6083   6115   6105     1   119.3800509 410.868800
   6085   6076   6087     1   109.5600471 388.275200
   6085   6076   6086     1   108.4600466 328.025600
   6086   6076   6087     1   109.5600471 388.275200
   6088   6087   6090     1   108.7700466 392.459200
   6088   6087   6089     1   107.5800459 329.699200
   6089   6087   6090     1   108.7700466 392.459200
   6090   6139   6129     1   119.3800509 410.868800
   6092   6093   6112     1   109.5600471 388.275200
   6092   6103   6106     1   109.5600471 388.275200
   6092   6103   6107     1   109.5600471 388.275200
   6093   6092   6094     1   109.5600471 388.275200
   6093   6095   6099     1   109.5600471 388.275200
   6093   6113   6114     1   107.2600461 396.643200
   6094   6092   6103     1   109.5600471 388.275200
   6094   6092   6110     1   109.7800468 425.094400
   6095   6093   6112     1   109.5600471 388.275200
   6095   6096   6098     1   109.5600471 388.275200
   6095   6102   6104     1   107.2600461 396.643200
   6096   6095   6099     1   109.5600471 388.275200
   6096   6097   6100     1   110.2200475 386.601600
   6096   6115   6105     1   109.2900470 396.643200
   6097   6096   6098     1   109.5600471 388.275200
   6097   6101   6111     1   107.2600461 396.643200
   6098   6096   6115     1   109.8800469 414.216000
   6099   6095   6102     1   110.2600474 425.931200
   6100   6097   6101     1   109.4300470 427.604800
   6100   6097   6110     1   109.5800467 425.931200
   6103   6108   6109     1   107.2600461 396.643200
   6106   6103   6108     1   110.2600474 425.931200
   6106   6103   6107     1   108.4600466 328.025600
   6107   6103   6108     1   110.2600474 425.931200
   6112   6093   6113     1   110.2600474 425.931200
   6116   6117   6136     1   109.5600471 388.275200
   6116   6127   6130     1   109.5600471 388.275200
   6116   6127   6131     1   109.5600471 388.275200
   6117   6116   6118     1   109.5600471 388.275200
   6117   6119   6123     1   109.5600471 388.275200
   6117   6137   6138     1   107.2600461 396.643200
   6118   6116   6127     1   109.5600471 388.275200
   6118   6116   6134     1   109.7800468 425.094400
   6119   6117   6136     1   109.5600471 388.275200
   6119   6120   6122     1   109.5600471 388.275200
   6119   6126   6128     1   107.2600461 396.643200
   6120   6119   6123     1   109.5600471 388.275200
   6120   6121   6124     1   110.2200475 386.601600
   6120   6139   6129     1   109.2900470 396.643200
   6121   6120   6122     1   109.5600471 388.275200
   6121   6125   6135     1   107.2600461 396.643200
   6122   6120   6139     1   109.8800469 414.216000
   6123   6119   6126     1   110.2600474 425.931200
   6124   6121   6125     1   109.4300470 427.604800
   6124   6121   6134     1   109.5800467 425.931200
   6127   6132   6133     1   107.2600461 396.643200
   6130   6127   6132     1   110.2600474 425.931200
   6130   6127   6131     1   108.4600466 328.025600
   6131   6127   6132     1   110.2600474 425.931200
   6136   6117   6137     1   110.2600474 425.931200
   6140   6142   6143     1   108.8800464 416.726400
   6140   6142   6145     1   108.8800464 416.726400
   6141   6140   6142     1   117.6800502 383.254400
   6142   6144   6146     1   109.5600471 388.275200
   6142   6144   6147     1   109.5600471 388.275200
   6143   6142   6144     1   109.5600471 388.275200
   6143   6142   6145     1   108.4600466 328.025600
   6144   6142   6145     1   109.5600471 388.275200
   6146   6144   6148     1   109.8800469 414.216000
   6146   6144   6147     1   108.4600466 328.025600
   6147   6144   6148     1   109.8800469 414.216000
   6148   6149   6158     1   109.8800469 414.216000
   6148   6149   6159     1   109.8800469 414.216000
   6148   6150   6151     1   109.8800469 414.216000
   6148   6150   6153     1   109.8800469 414.216000
   6149   6160   6161     1   109.8000471 387.438400
   6149   6160   6162     1   109.8000471 387.438400
   6150   6152   6154     1   109.8000471 387.438400
   6150   6152   6155     1   109.8000471 387.438400
   6151   6150   6152     1   109.5600471 388.275200
   6151   6150   6153     1   108.4600466 328.025600
   6152   6150   6153     1   109.5600471 388.275200
   6154   6152   6156     1   108.7700466 392.459200
   6154   6152   6155     1   107.5800459 329.699200
   6155   6152   6156     1   108.7700466 392.459200
   6156   6188   6178     1   119.3800509 410.868800
   6158   6149   6160     1   109.5600471 388.275200
   6158   6149   6159     1   108.4600466 328.025600
   6159   6149   6160     1   109.5600471 388.275200
   6161   6160   6163     1   108.7700466 392.459200
   6161   6160   6162     1   107.5800459 329.699200
   6162   6160   6163     1   108.7700466 392.459200
   6163   6212   6202     1   119.3800509 410.868800
   6165   6166   6185     1   109.5600471 388.275200
   6165   6176   6179     1   109.5600471 388.275200
   6165   6176   6180     1   109.5600471 388.275200
   6166   6168   6172     1   109.5600471 388.275200
   6166   6186   6187     1   107.2600461 396.643200
   6166   6165   6167     1   109.5600471 388.275200
   6167   6165   6176     1   109.5600471 388.275200
   6167   6165   6183     1   109.7800468 425.094400
   6168   6169   6171     1   109.5600471 388.275200
   6168   6175   6177     1   107.2600461 396.643200
   6168   6166   6185     1   109.5600471 388.275200
   6169   6170   6173     1   110.2200475 386.601600
   6169   6188   6178     1   109.2900470 396.643200
   6169   6168   6172     1   109.5600471 388.275200
   6170   6174   6184     1   107.2600461 396.643200
   6170   6169   6171     1   109.5600471 388.275200
   6171   6169   6188     1   109.8800469 414.216000
   6172   6168   6175     1   110.2600474 425.931200
   6173   6170   6174     1   109.4300470 427.604800
   6173   6170   6183     1   109.5800467 425.931200
   6176   6181   6182     1   107.2600461 396.643200
   6179   6176   6181     1   110.2600474 425.931200
   6179   6176   6180     1   108.4600466 328.025600
   6180   6176   6181     1   110.2600474 425.931200
   6185   6166   6186     1   110.2600474 425.931200
   6189   6190   6209     1   109.5600471 388.275200
   6189   6200   6203     1   109.5600471 388.275200
   6189   6200   6204     1   109.5600471 388.275200
   6190   6192   6196     1   109.5600471 388.275200
   6190   6210   6211     1   107.2600461 396.643200
   6190   6189   6191     1   109.5600471 388.275200
   6191   6189   6200     1   109.5600471 388.275200
   6191   6189   6207     1   109.7800468 425.094400
   6192   6193   6195     1   109.5600471 388.275200
   6192   6199   6201     1   107.2600461 396.643200
   6192   6190   6209     1   109.5600471 388.275200
   6193   6194   6197     1   110.2200475 386.601600
   6193   6212   6202     1   109.2900470 396.643200
   6193   6192   6196     1   109.5600471 388.275200
   6194   6198   6208     1   107.2600461 396.643200
   6194   6193   6195     1   109.5600471 388.275200
   6195   6193   6212     1   109.8800469 414.216000
   6196   6192   6199     1   110.2600474 425.931200
   6197   6194   6198     1   109.4300470 427.604800
   6197   6194   6207     1   109.5800467 425.931200
   6200   6205   6206     1   107.2600461 396.643200
   6203   6200   6205     1   110.2600474 425.931200
   6203   6200   6204     1   108.4600466 328.025600
   6204   6200   6205     1   110.2600474 425.931200
   6209   6190   6210     1   110.2600474 425.931200

[ dihedrals ]
;    ai     aj     ak     al funct         c0         c1         c2         c3         c4         c5
      1      4      7     15     1  180.0000771  2.0083200  2
      1      4      7     15     1  0.0000000  1.2552000  3
      1      4      7     18     1  180.0000771  2.0083200  2
      1      4      7     18     1  0.0000000  1.2552000  3
      1      8      9     30     1  180.0000771  2.0083200  2
      1      8      9     30     1  0.0000000  1.2552000  3
      1      8     12     27     1  180.0000771  2.0083200  2
      1      8     12     27     1  0.0000000  1.2552000  3
      4      1      8      9     1  180.0000771  2.0083200  2
      4      1      8      9     1  0.0000000  1.2552000  3
      4      1      8     12     1  180.0000771  2.0083200  2
      4      1      8     12     1  0.0000000  1.2552000  3
      4      7     15     21     1  180.0000771  2.0083200  2
      4      7     15     21     1  0.0000000  1.2552000  3
      4      7     18     24     1  180.0000771  2.0083200  2
      4      7     18     24     1  0.0000000  1.2552000  3
      8      1      4      7     1  0.0000000  0.6508444  3
      7     15     21     35     1  0.0000000  0.6508444  3
      7     18     24     36     1  0.0000000  0.6508444  3
      8      9     30     34     1  0.0000000  0.6508444  3
      8     12     27     33     1  0.0000000  0.6508444  3
      9      8     12     27     1  180.0000771  2.0083200  2
      9      8     12     27     1  0.0000000  1.2552000  3
      9     30     34     40     1  180.0000771  0.0000000  2
      9     30     34     89     1  0.0000000  0.2928800  2
      9     30     34     89     1  0.0000000  0.4184000  4
     12      8      9     30     1  180.0000771  2.0083200  2
     12      8      9     30     1  0.0000000  1.2552000  3
     12     27     33     37     1  180.0000771  0.0000000  2
     12     27     33     64     1  0.0000000  0.2928800  2
     12     27     33     64     1  0.0000000  0.4184000  4
     15      7     18     24     1  180.0000771  2.0083200  2
     15      7     18     24     1  0.0000000  1.2552000  3
     15     21     35     38     1  180.0000771  0.0000000  2
     15     21     35    114     1  0.0000000  0.2928800  2
     15     21     35    114     1  0.0000000  0.4184000  4
     18      7     15     21     1  180.0000771  2.0083200  2
     18      7     15     21     1  0.0000000  1.2552000  3
     18     24     36     39     1  180.0000771  0.0000000  2
     18     24     36    139     1  0.0000000  0.2928800  2
     18     24     36    139     1  0.0000000  0.4184000  4
     21     35    114     94     1  180.0000771  6.2760000  1
     21     35    114     94     1  0.0000000  0.0000000  2
     24     36    139    119     1  180.0000771  6.2760000  1
     24     36    139    119     1  0.0000000  0.0000000  2
     27     33     64     44     1  180.0000771  6.2760000  1
     27     33     64     44     1  0.0000000  0.0000000  2
     30     34     89     69     1  180.0000771  6.2760000  1
     30     34     89     69     1  0.0000000  0.0000000  2
     33     64     44     41     1  0.0000000  2.2175200  1
     33     64     44     41     1  0.0000000  0.0000000  2
     33     64     44     41     1  180.0000771  0.6276000  3
     33     64     44     41     1  180.0000771  2.0920000  4
     34     89     69     66     1  0.0000000  2.2175200  1
     34     89     69     66     1  0.0000000  0.0000000  2
     34     89     69     66     1  180.0000771  0.6276000  3
     34     89     69     66     1  180.0000771  2.0920000  4
     35    114     94     91     1  0.0000000  2.2175200  1
     35    114     94     91     1  0.0000000  0.0000000  2
     35    114     94     91     1  180.0000771  0.6276000  3
     35    114     94     91     1  180.0000771  2.0920000  4
     36    139    119    116     1  0.0000000  2.2175200  1
     36    139    119    116     1  0.0000000  0.0000000  2
     36    139    119    116     1  180.0000771  0.6276000  3
     36    139    119    116     1  180.0000771  2.0920000  4
     37     33     64     44     1  180.0000771  10.4600000  2
     38     35    114     94     1  180.0000771  10.4600000  2
     39     36    139    119     1  180.0000771  10.4600000  2
     40     34     89     69     1  180.0000771  10.4600000  2
     41     47     48     57     1  180.0000771  2.0083200  2
     41     47     48     57     1  0.0000000  1.2552000  3
     41     47     51     54     1  180.0000771  2.0083200  2
     41     47     51     54     1  0.0000000  1.2552000  3
     44     41     47     48     1  180.0000771  2.0083200  2
     44     41     47     48     1  0.0000000  1.2552000  3
     44     41     47     51     1  180.0000771  2.0083200  2
     44     41     47     51     1  0.0000000  1.2552000  3
     47     41     44     64     1  0.0000000  0.6508444  3
     47     48     57     61     1  0.0000000  0.6508444  3
     47     51     54     60     1  0.0000000  0.6508444  3
     48     47     51     54     1  180.0000771  2.0083200  2
     48     47     51     54     1  0.0000000  1.2552000  3
     48     57     61     63     1  180.0000771  0.0000000  2
     48     57     61    189     1  0.0000000  0.2928800  2
     48     57     61    189     1  0.0000000  0.4184000  4
     51     47     48     57     1  180.0000771  2.0083200  2
     51     47     48     57     1  0.0000000  1.2552000  3
     51     54     60     62     1  180.0000771  0.0000000  2
     51     54     60    164     1  0.0000000  0.2928800  2
     51     54     60    164     1  0.0000000  0.4184000  4
     54     60    164    144     1  180.0000771  6.2760000  1
     54     60    164    144     1  0.0000000  0.0000000  2
     57     61    189    169     1  180.0000771  6.2760000  1
     57     61    189    169     1  0.0000000  0.0000000  2
     60    164    144    141     1  0.0000000  2.2175200  1
     60    164    144    141     1  0.0000000  0.0000000  2
     60    164    144    141     1  180.0000771  0.6276000  3
     60    164    144    141     1  180.0000771  2.0920000  4
     61    189    169    166     1  0.0000000  2.2175200  1
     61    189    169    166     1  0.0000000  0.0000000  2
     61    189    169    166     1  180.0000771  0.6276000  3
     61    189    169    166     1  180.0000771  2.0920000  4
     62     60    164    144     1  180.0000771  10.4600000  2
     63     61    189    169     1  180.0000771  10.4600000  2
     66     72     73     82     1  180.0000771  2.0083200  2
     66     72     73     82     1  0.0000000  1.2552000  3
     66     72     76     79     1  180.0000771  2.0083200  2
     66     72     76     79     1  0.0000000  1.2552000  3
     69     66     72     73     1  180.0000771  2.0083200  2
     69     66     72     73     1  0.0000000  1.2552000  3
     69     66     72     76     1  180.0000771  2.0083200  2
     69     66     72     76     1  0.0000000  1.2552000  3
     72     66     69     89     1  0.0000000  0.6508444  3
     72     73     82     86     1  0.0000000  0.6508444  3
     72     76     79     85     1  0.0000000  0.6508444  3
     73     72     76     79     1  180.0000771  2.0083200  2
     73     72     76     79     1  0.0000000  1.2552000  3
     73     82     86     88     1  180.0000771  0.0000000  2
     73     82     86    239     1  0.0000000  0.2928800  2
     73     82     86    239     1  0.0000000  0.4184000  4
     76     72     73     82     1  180.0000771  2.0083200  2
     76     72     73     82     1  0.0000000  1.2552000  3
     76     79     85     87     1  180.0000771  0.0000000  2
     76     79     85    214     1  0.0000000  0.2928800  2
     76     79     85    214     1  0.0000000  0.4184000  4
     79     85    214    194     1  180.0000771  6.2760000  1
     79     85    214    194     1  0.0000000  0.0000000  2
     82     86    239    219     1  180.0000771  6.2760000  1
     82     86    239    219     1  0.0000000  0.0000000  2
     85    214    194    191     1  0.0000000  2.2175200  1
     85    214    194    191     1  0.0000000  0.0000000  2
     85    214    194    191     1  180.0000771  0.6276000  3
     85    214    194    191     1  180.0000771  2.0920000  4
     86    239    219    216     1  0.0000000  2.2175200  1
     86    239    219    216     1  0.0000000  0.0000000  2
     86    239    219    216     1  180.0000771  0.6276000  3
     86    239    219    216     1  180.0000771  2.0920000  4
     87     85    214    194     1  180.0000771  10.4600000  2
     88     86    239    219     1  180.0000771  10.4600000  2
     91     97     98    107     1  180.0000771  2.0083200  2
     91     97     98    107     1  0.0000000  1.2552000  3
     91     97    101    104     1  180.0000771  2.0083200  2
     91     97    101    104     1  0.0000000  1.2552000  3
     94     91     97     98     1  180.0000771  2.0083200  2
     94     91     97     98     1  0.0000000  1.2552000  3
     94     91     97    101     1  180.0000771  2.0083200  2
     94     91     97    101     1  0.0000000  1.2552000  3
     97     91     94    114     1  0.0000000  0.6508444  3
     97     98    107    111     1  0.0000000  0.6508444  3
     97    101    104    110     1  0.0000000  0.6508444  3
     98     97    101    104     1  180.0000771  2.0083200  2
     98     97    101    104     1  0.0000000  1.2552000  3
     98    107    111    113     1  180.0000771  0.0000000  2
     98    107    111    289     1  0.0000000  0.2928800  2
     98    107    111    289     1  0.0000000  0.4184000  4
    101     97     98    107     1  180.0000771  2.0083200  2
    101     97     98    107     1  0.0000000  1.2552000  3
    101    104    110    112     1  180.0000771  0.0000000  2
    101    104    110    264     1  0.0000000  0.2928800  2
    101    104    110    264     1  0.0000000  0.4184000  4
    104    110    264    244     1  180.0000771  6.2760000  1
    104    110    264    244     1  0.0000000  0.0000000  2
    107    111    289    269     1  180.0000771  6.2760000  1
    107    111    289    269     1  0.0000000  0.0000000  2
    110    264    244    241     1  0.0000000  2.2175200  1
    110    264    244    241     1  0.0000000  0.0000000  2
    110    264    244    241     1  180.0000771  0.6276000  3
    110    264    244    241     1  180.0000771  2.0920000  4
    111    289    269    266     1  0.0000000  2.2175200  1
    111    289    269    266     1  0.0000000  0.0000000  2
    111    289    269    266     1  180.0000771  0.6276000  3
    111    289    269    266     1  180.0000771  2.0920000  4
    112    110    264    244     1  180.0000771  10.4600000  2
    113    111    289    269     1  180.0000771  10.4600000  2
    116    122    123    132     1  180.0000771  2.0083200  2
    116    122    123    132     1  0.0000000  1.2552000  3
    116    122    126    129     1  180.0000771  2.0083200  2
    116    122    126    129     1  0.0000000  1.2552000  3
    119    116    122    123     1  180.0000771  2.0083200  2
    119    116    122    123     1  0.0000000  1.2552000  3
    119    116    122    126     1  180.0000771  2.0083200  2
    119    116    122    126     1  0.0000000  1.2552000  3
    122    116    119    139     1  0.0000000  0.6508444  3
    122    123    132    136     1  0.0000000  0.6508444  3
    122    126    129    135     1  0.0000000  0.6508444  3
    123    122    126    129     1  180.0000771  2.0083200  2
    123    122    126    129     1  0.0000000  1.2552000  3
    123    132    136    138     1  180.0000771  0.0000000  2
    123    132    136    339     1  0.0000000  0.2928800  2
    123    132    136    339     1  0.0000000  0.4184000  4
    126    122    123    132     1  180.0000771  2.0083200  2
    126    122    123    132     1  0.0000000  1.2552000  3
    126    129    135    137     1  180.0000771  0.0000000  2
    126    129    135    314     1  0.0000000  0.2928800  2
    126    129    135    314     1  0.0000000  0.4184000  4
    129    135    314    294     1  180.0000771  6.2760000  1
    129    135    314    294     1  0.0000000  0.0000000  2
    132    136    339    319     1  180.0000771  6.2760000  1
    132    136    339    319     1  0.0000000  0.0000000  2
    135    314    294    291     1  0.0000000  2.2175200  1
    135    314    294    291     1  0.0000000  0.0000000  2
    135    314    294    291     1  180.0000771  0.6276000  3
    135    314    294    291     1  180.0000771  2.0920000  4
    136    339    319    316     1  0.0000000  2.2175200  1
    136    339    319    316     1  0.0000000  0.0000000  2
    136    339    319    316     1  180.0000771  0.6276000  3
    136    339    319    316     1  180.0000771  2.0920000  4
    137    135    314    294     1  180.0000771  10.4600000  2
    138    136    339    319     1  180.0000771  10.4600000  2
    141    147    148    157     1  180.0000771  2.0083200  2
    141    147    148    157     1  0.0000000  1.2552000  3
    141    147    151    154     1  180.0000771  2.0083200  2
    141    147    151    154     1  0.0000000  1.2552000  3
    144    141    147    148     1  180.0000771  2.0083200  2
    144    141    147    148     1  0.0000000  1.2552000  3
    144    141    147    151     1  180.0000771  2.0083200  2
    144    141    147    151     1  0.0000000  1.2552000  3
    147    141    144    164     1  0.0000000  0.6508444  3
    147    148    157    161     1  0.0000000  0.6508444  3
    147    151    154    160     1  0.0000000  0.6508444  3
    148    147    151    154     1  180.0000771  2.0083200  2
    148    147    151    154     1  0.0000000  1.2552000  3
    148    157    161    163     1  180.0000771  0.0000000  2
    148    157    161    389     1  0.0000000  0.2928800  2
    148    157    161    389     1  0.0000000  0.4184000  4
    151    147    148    157     1  180.0000771  2.0083200  2
    151    147    148    157     1  0.0000000  1.2552000  3
    151    154    160    162     1  180.0000771  0.0000000  2
    151    154    160    364     1  0.0000000  0.2928800  2
    151    154    160    364     1  0.0000000  0.4184000  4
    154    160    364    344     1  180.0000771  6.2760000  1
    154    160    364    344     1  0.0000000  0.0000000  2
    157    161    389    369     1  180.0000771  6.2760000  1
    157    161    389    369     1  0.0000000  0.0000000  2
    160    364    344    341     1  0.0000000  2.2175200  1
    160    364    344    341     1  0.0000000  0.0000000  2
    160    364    344    341     1  180.0000771  0.6276000  3
    160    364    344    341     1  180.0000771  2.0920000  4
    161    389    369    366     1  0.0000000  2.2175200  1
    161    389    369    366     1  0.0000000  0.0000000  2
    161    389    369    366     1  180.0000771  0.6276000  3
    161    389    369    366     1  180.0000771  2.0920000  4
    162    160    364    344     1  180.0000771  10.4600000  2
    163    161    389    369     1  180.0000771  10.4600000  2
    166    172    173    182     1  180.0000771  2.0083200  2
    166    172    173    182     1  0.0000000  1.2552000  3
    166    172    176    179     1  180.0000771  2.0083200  2
    166    172    176    179     1  0.0000000  1.2552000  3
    169    166    172    173     1  180.0000771  2.0083200  2
    169    166    172    173     1  0.0000000  1.2552000  3
    169    166    172    176     1  180.0000771  2.0083200  2
    169    166    172    176     1  0.0000000  1.2552000  3
    172    166    169    189     1  0.0000000  0.6508444  3
    172    173    182    186     1  0.0000000  0.6508444  3
    172    176    179    185     1  0.0000000  0.6508444  3
    173    172    176    179     1  180.0000771  2.0083200  2
    173    172    176    179     1  0.0000000  1.2552000  3
    173    182    186    188     1  180.0000771  0.0000000  2
    173    182    186    439     1  0.0000000  0.2928800  2
    173    182    186    439     1  0.0000000  0.4184000  4
    176    172    173    182     1  180.0000771  2.0083200  2
    176    172    173    182     1  0.0000000  1.2552000  3
    176    179    185    187     1  180.0000771  0.0000000  2
    176    179    185    414     1  0.0000000  0.2928800  2
    176    179    185    414     1  0.0000000  0.4184000  4
    179    185    414    394     1  180.0000771  6.2760000  1
    179    185    414    394     1  0.0000000  0.0000000  2
    182    186    439    419     1  180.0000771  6.2760000  1
    182    186    439    419     1  0.0000000  0.0000000  2
    185    414    394    391     1  0.0000000  2.2175200  1
    185    414    394    391     1  0.0000000  0.0000000  2
    185    414    394    391     1  180.0000771  0.6276000  3
    185    414    394    391     1  180.0000771  2.0920000  4
    186    439    419    416     1  0.0000000  2.2175200  1
    186    439    419    416     1  0.0000000  0.0000000  2
    186    439    419    416     1  180.0000771  0.6276000  3
    186    439    419    416     1  180.0000771  2.0920000  4
    187    185    414    394     1  180.0000771  10.4600000  2
    188    186    439    419     1  180.0000771  10.4600000  2
    191    197    198    207     1  180.0000771  2.0083200  2
    191    197    198    207     1  0.0000000  1.2552000  3
    191    197    201    204     1  180.0000771  2.0083200  2
    191    197    201    204     1  0.0000000  1.2552000  3
    194    191    197    198     1  180.0000771  2.0083200  2
    194    191    197    198     1  0.0000000  1.2552000  3
    194    191    197    201     1  180.0000771  2.0083200  2
    194    191    197    201     1  0.0000000  1.2552000  3
    197    191    194    214     1  0.0000000  0.6508444  3
    197    198    207    211     1  0.0000000  0.6508444  3
    197    201    204    210     1  0.0000000  0.6508444  3
    198    197    201    204     1  180.0000771  2.0083200  2
    198    197    201    204     1  0.0000000  1.2552000  3
    198    207    211    213     1  180.0000771  0.0000000  2
    198    207    211    489     1  0.0000000  0.2928800  2
    198    207    211    489     1  0.0000000  0.4184000  4
    201    197    198    207     1  180.0000771  2.0083200  2
    201    197    198    207     1  0.0000000  1.2552000  3
    201    204    210    212     1  180.0000771  0.0000000  2
    201    204    210    464     1  0.0000000  0.2928800  2
    201    204    210    464     1  0.0000000  0.4184000  4
    204    210    464    444     1  180.0000771  6.2760000  1
    204    210    464    444     1  0.0000000  0.0000000  2
    207    211    489    469     1  180.0000771  6.2760000  1
    207    211    489    469     1  0.0000000  0.0000000  2
    210    464    444    441     1  0.0000000  2.2175200  1
    210    464    444    441     1  0.0000000  0.0000000  2
    210    464    444    441     1  180.0000771  0.6276000  3
    210    464    444    441     1  180.0000771  2.0920000  4
    211    489    469    466     1  0.0000000  2.2175200  1
    211    489    469    466     1  0.0000000  0.0000000  2
    211    489    469    466     1  180.0000771  0.6276000  3
    211    489    469    466     1  180.0000771  2.0920000  4
    212    210    464    444     1  180.0000771  10.4600000  2
    213    211    489    469     1  180.0000771  10.4600000  2
    216    222    223    232     1  180.0000771  2.0083200  2
    216    222    223    232     1  0.0000000  1.2552000  3
    216    222    226    229     1  180.0000771  2.0083200  2
    216    222    226    229     1  0.0000000  1.2552000  3
    219    216    222    223     1  180.0000771  2.0083200  2
    219    216    222    223     1  0.0000000  1.2552000  3
    219    216    222    226     1  180.0000771  2.0083200  2
    219    216    222    226     1  0.0000000  1.2552000  3
    222    216    219    239     1  0.0000000  0.6508444  3
    222    223    232    236     1  0.0000000  0.6508444  3
    222    226    229    235     1  0.0000000  0.6508444  3
    223    222    226    229     1  180.0000771  2.0083200  2
    223    222    226    229     1  0.0000000  1.2552000  3
    223    232    236    238     1  180.0000771  0.0000000  2
    223    232    236    539     1  0.0000000  0.2928800  2
    223    232    236    539     1  0.0000000  0.4184000  4
    226    222    223    232     1  180.0000771  2.0083200  2
    226    222    223    232     1  0.0000000  1.2552000  3
    226    229    235    237     1  180.0000771  0.0000000  2
    226    229    235    514     1  0.0000000  0.2928800  2
    226    229    235    514     1  0.0000000  0.4184000  4
    229    235    514    494     1  180.0000771  6.2760000  1
    229    235    514    494     1  0.0000000  0.0000000  2
    232    236    539    519     1  180.0000771  6.2760000  1
    232    236    539    519     1  0.0000000  0.0000000  2
    235    514    494    491     1  0.0000000  2.2175200  1
    235    514    494    491     1  0.0000000  0.0000000  2
    235    514    494    491     1  180.0000771  0.6276000  3
    235    514    494    491     1  180.0000771  2.0920000  4
    236    539    519    516     1  0.0000000  2.2175200  1
    236    539    519    516     1  0.0000000  0.0000000  2
    236    539    519    516     1  180.0000771  0.6276000  3
    236    539    519    516     1  180.0000771  2.0920000  4
    237    235    514    494     1  180.0000771  10.4600000  2
    238    236    539    519     1  180.0000771  10.4600000  2
    241    247    248    257     1  180.0000771  2.0083200  2
    241    247    248    257     1  0.0000000  1.2552000  3
    241    247    251    254     1  180.0000771  2.0083200  2
    241    247    251    254     1  0.0000000  1.2552000  3
    244    241    247    248     1  180.0000771  2.0083200  2
    244    241    247    248     1  0.0000000  1.2552000  3
    244    241    247    251     1  180.0000771  2.0083200  2
    244    241    247    251     1  0.0000000  1.2552000  3
    247    241    244    264     1  0.0000000  0.6508444  3
    247    248    257    261     1  0.0000000  0.6508444  3
    247    251    254    260     1  0.0000000  0.6508444  3
    248    247    251    254     1  180.0000771  2.0083200  2
    248    247    251    254     1  0.0000000  1.2552000  3
    248    257    261    263     1  180.0000771  0.0000000  2
    248    257    261    589     1  0.0000000  0.2928800  2
    248    257    261    589     1  0.0000000  0.4184000  4
    251    247    248    257     1  180.0000771  2.0083200  2
    251    247    248    257     1  0.0000000  1.2552000  3
    251    254    260    262     1  180.0000771  0.0000000  2
    251    254    260    564     1  0.0000000  0.2928800  2
    251    254    260    564     1  0.0000000  0.4184000  4
    254    260    564    544     1  180.0000771  6.2760000  1
    254    260    564    544     1  0.0000000  0.0000000  2
    257    261    589    569     1  180.0000771  6.2760000  1
    257    261    589    569     1  0.0000000  0.0000000  2
    260    564    544    541     1  0.0000000  2.2175200  1
    260    564    544    541     1  0.0000000  0.0000000  2
    260    564    544    541     1  180.0000771  0.6276000  3
    260    564    544    541     1  180.0000771  2.0920000  4
    261    589    569    566     1  0.0000000  2.2175200  1
    261    589    569    566     1  0.0000000  0.0000000  2
    261    589    569    566     1  180.0000771  0.6276000  3
    261    589    569    566     1  180.0000771  2.0920000  4
    262    260    564    544     1  180.0000771  10.4600000  2
    263    261    589    569     1  180.0000771  10.4600000  2
    266    272    273    282     1  180.0000771  2.0083200  2
    266    272    273    282     1  0.0000000  1.2552000  3
    266    272    276    279     1  180.0000771  2.0083200  2
    266    272    276    279     1  0.0000000  1.2552000  3
    269    266    272    273     1  180.0000771  2.0083200  2
    269    266    272    273     1  0.0000000  1.2552000  3
    269    266    272    276     1  180.0000771  2.0083200  2
    269    266    272    276     1  0.0000000  1.2552000  3
    272    266    269    289     1  0.0000000  0.6508444  3
    272    273    282    286     1  0.0000000  0.6508444  3
    272    276    279    285     1  0.0000000  0.6508444  3
    273    272    276    279     1  180.0000771  2.0083200  2
    273    272    276    279     1  0.0000000  1.2552000  3
    273    282    286    288     1  180.0000771  0.0000000  2
    273    282    286    639     1  0.0000000  0.2928800  2
    273    282    286    639     1  0.0000000  0.4184000  4
    276    272    273    282     1  180.0000771  2.0083200  2
    276    272    273    282     1  0.0000000  1.2552000  3
    276    279    285    287     1  180.0000771  0.0000000  2
    276    279    285    614     1  0.0000000  0.2928800  2
    276    279    285    614     1  0.0000000  0.4184000  4
    279    285    614    594     1  180.0000771  6.2760000  1
    279    285    614    594     1  0.0000000  0.0000000  2
    282    286    639    619     1  180.0000771  6.2760000  1
    282    286    639    619     1  0.0000000  0.0000000  2
    285    614    594    591     1  0.0000000  2.2175200  1
    285    614    594    591     1  0.0000000  0.0000000  2
    285    614    594    591     1  180.0000771  0.6276000  3
    285    614    594    591     1  180.0000771  2.0920000  4
    286    639    619    616     1  0.0000000  2.2175200  1
    286    639    619    616     1  0.0000000  0.0000000  2
    286    639    619    616     1  180.0000771  0.6276000  3
    286    639    619    616     1  180.0000771  2.0920000  4
    287    285    614    594     1  180.0000771  10.4600000  2
    288    286    639    619     1  180.0000771  10.4600000  2
    291    297    298    307     1  180.0000771  2.0083200  2
    291    297    298    307     1  0.0000000  1.2552000  3
    291    297    301    304     1  180.0000771  2.0083200  2
    291    297    301    304     1  0.0000000  1.2552000  3
    294    291    297    298     1  180.0000771  2.0083200  2
    294    291    297    298     1  0.0000000  1.2552000  3
    294    291    297    301     1  180.0000771  2.0083200  2
    294    291    297    301     1  0.0000000  1.2552000  3
    297    291    294    314     1  0.0000000  0.6508444  3
    297    298    307    311     1  0.0000000  0.6508444  3
    297    301    304    310     1  0.0000000  0.6508444  3
    298    297    301    304     1  180.0000771  2.0083200  2
    298    297    301    304     1  0.0000000  1.2552000  3
    298    307    311    313     1  180.0000771  0.0000000  2
    298    307    311    689     1  0.0000000  0.2928800  2
    298    307    311    689     1  0.0000000  0.4184000  4
    301    297    298    307     1  180.0000771  2.0083200  2
    301    297    298    307     1  0.0000000  1.2552000  3
    301    304    310    312     1  180.0000771  0.0000000  2
    301    304    310    664     1  0.0000000  0.2928800  2
    301    304    310    664     1  0.0000000  0.4184000  4
    304    310    664    644     1  180.0000771  6.2760000  1
    304    310    664    644     1  0.0000000  0.0000000  2
    307    311    689    669     1  180.0000771  6.2760000  1
    307    311    689    669     1  0.0000000  0.0000000  2
    310    664    644    641     1  0.0000000  2.2175200  1
    310    664    644    641     1  0.0000000  0.0000000  2
    310    664    644    641     1  180.0000771  0.6276000  3
    310    664    644    641     1  180.0000771  2.0920000  4
    311    689    669    666     1  0.0000000  2.2175200  1
    311    689    669    666     1  0.0000000  0.0000000  2
    311    689    669    666     1  180.0000771  0.6276000  3
    311    689    669    666     1  180.0000771  2.0920000  4
    312    310    664    644     1  180.0000771  10.4600000  2
    313    311    689    669     1  180.0000771  10.4600000  2
    316    322    323    332     1  180.0000771  2.0083200  2
    316    322    323    332     1  0.0000000  1.2552000  3
    316    322    326    329     1  180.0000771  2.0083200  2
    316    322    326    329     1  0.0000000  1.2552000  3
    319    316    322    323     1  180.0000771  2.0083200  2
    319    316    322    323     1  0.0000000  1.2552000  3
    319    316    322    326     1  180.0000771  2.0083200  2
    319    316    322    326     1  0.0000000  1.2552000  3
    322    316    319    339     1  0.0000000  0.6508444  3
    322    323    332    336     1  0.0000000  0.6508444  3
    322    326    329    335     1  0.0000000  0.6508444  3
    323    322    326    329     1  180.0000771  2.0083200  2
    323    322    326    329     1  0.0000000  1.2552000  3
    323    332    336    338     1  180.0000771  0.0000000  2
    323    332    336    739     1  0.0000000  0.2928800  2
    323    332    336    739     1  0.0000000  0.4184000  4
    326    322    323    332     1  180.0000771  2.0083200  2
    326    322    323    332     1  0.0000000  1.2552000  3
    326    329    335    337     1  180.0000771  0.0000000  2
    326    329    335    714     1  0.0000000  0.2928800  2
    326    329    335    714     1  0.0000000  0.4184000  4
    329    335    714    694     1  180.0000771  6.2760000  1
    329    335    714    694     1  0.0000000  0.0000000  2
    332    336    739    719     1  180.0000771  6.2760000  1
    332    336    739    719     1  0.0000000  0.0000000  2
    335    714    694    691     1  0.0000000  2.2175200  1
    335    714    694    691     1  0.0000000  0.0000000  2
    335    714    694    691     1  180.0000771  0.6276000  3
    335    714    694    691     1  180.0000771  2.0920000  4
    336    739    719    716     1  0.0000000  2.2175200  1
    336    739    719    716     1  0.0000000  0.0000000  2
    336    739    719    716     1  180.0000771  0.6276000  3
    336    739    719    716     1  180.0000771  2.0920000  4
    337    335    714    694     1  180.0000771  10.4600000  2
    338    336    739    719     1  180.0000771  10.4600000  2
    341    347    348    357     1  180.0000771  2.0083200  2
    341    347    348    357     1  0.0000000  1.2552000  3
    341    347    351    354     1  180.0000771  2.0083200  2
    341    347    351    354     1  0.0000000  1.2552000  3
    344    341    347    348     1  180.0000771  2.0083200  2
    344    341    347    348     1  0.0000000  1.2552000  3
    344    341    347    351     1  180.0000771  2.0083200  2
    344    341    347    351     1  0.0000000  1.2552000  3
    347    341    344    364     1  0.0000000  0.6508444  3
    347    348    357    361     1  0.0000000  0.6508444  3
    347    351    354    360     1  0.0000000  0.6508444  3
    348    347    351    354     1  180.0000771  2.0083200  2
    348    347    351    354     1  0.0000000  1.2552000  3
    348    357    361    363     1  180.0000771  0.0000000  2
    348    357    361    789     1  0.0000000  0.2928800  2
    348    357    361    789     1  0.0000000  0.4184000  4
    351    347    348    357     1  180.0000771  2.0083200  2
    351    347    348    357     1  0.0000000  1.2552000  3
    351    354    360    362     1  180.0000771  0.0000000  2
    351    354    360    764     1  0.0000000  0.2928800  2
    351    354    360    764     1  0.0000000  0.4184000  4
    354    360    764    744     1  180.0000771  6.2760000  1
    354    360    764    744     1  0.0000000  0.0000000  2
    357    361    789    769     1  180.0000771  6.2760000  1
    357    361    789    769     1  0.0000000  0.0000000  2
    360    764    744    741     1  0.0000000  2.2175200  1
    360    764    744    741     1  0.0000000  0.0000000  2
    360    764    744    741     1  180.0000771  0.6276000  3
    360    764    744    741     1  180.0000771  2.0920000  4
    361    789    769    766     1  0.0000000  2.2175200  1
    361    789    769    766     1  0.0000000  0.0000000  2
    361    789    769    766     1  180.0000771  0.6276000  3
    361    789    769    766     1  180.0000771  2.0920000  4
    362    360    764    744     1  180.0000771  10.4600000  2
    363    361    789    769     1  180.0000771  10.4600000  2
    366    372    373    382     1  180.0000771  2.0083200  2
    366    372    373    382     1  0.0000000  1.2552000  3
    366    372    376    379     1  180.0000771  2.0083200  2
    366    372    376    379     1  0.0000000  1.2552000  3
    369    366    372    373     1  180.0000771  2.0083200  2
    369    366    372    373     1  0.0000000  1.2552000  3
    369    366    372    376     1  180.0000771  2.0083200  2
    369    366    372    376     1  0.0000000  1.2552000  3
    372    366    369    389     1  0.0000000  0.6508444  3
    372    373    382    386     1  0.0000000  0.6508444  3
    372    376    379    385     1  0.0000000  0.6508444  3
    373    372    376    379     1  180.0000771  2.0083200  2
    373    372    376    379     1  0.0000000  1.2552000  3
    373    382    386    388     1  180.0000771  0.0000000  2
    373    382    386    839     1  0.0000000  0.2928800  2
    373    382    386    839     1  0.0000000  0.4184000  4
    376    372    373    382     1  180.0000771  2.0083200  2
    376    372    373    382     1  0.0000000  1.2552000  3
    376    379    385    387     1  180.0000771  0.0000000  2
    376    379    385    814     1  0.0000000  0.2928800  2
    376    379    385    814     1  0.0000000  0.4184000  4
    379    385    814    794     1  180.0000771  6.2760000  1
    379    385    814    794     1  0.0000000  0.0000000  2
    382    386    839    819     1  180.0000771  6.2760000  1
    382    386    839    819     1  0.0000000  0.0000000  2
    385    814    794    791     1  0.0000000  2.2175200  1
    385    814    794    791     1  0.0000000  0.0000000  2
    385    814    794    791     1  180.0000771  0.6276000  3
    385    814    794    791     1  180.0000771  2.0920000  4
    386    839    819    816     1  0.0000000  2.2175200  1
    386    839    819    816     1  0.0000000  0.0000000  2
    386    839    819    816     1  180.0000771  0.6276000  3
    386    839    819    816     1  180.0000771  2.0920000  4
    387    385    814    794     1  180.0000771  10.4600000  2
    388    386    839    819     1  180.0000771  10.4600000  2
    391    397    398    407     1  180.0000771  2.0083200  2
    391    397    398    407     1  0.0000000  1.2552000  3
    391    397    401    404     1  180.0000771  2.0083200  2
    391    397    401    404     1  0.0000000  1.2552000  3
    394    391    397    398     1  180.0000771  2.0083200  2
    394    391    397    398     1  0.0000000  1.2552000  3
    394    391    397    401     1  180.0000771  2.0083200  2
    394    391    397    401     1  0.0000000  1.2552000  3
    397    391    394    414     1  0.0000000  0.6508444  3
    397    398    407    411     1  0.0000000  0.6508444  3
    397    401    404    410     1  0.0000000  0.6508444  3
    398    397    401    404     1  180.0000771  2.0083200  2
    398    397    401    404     1  0.0000000  1.2552000  3
    398    407    411    413     1  180.0000771  0.0000000  2
    398    407    411    889     1  0.0000000  0.2928800  2
    398    407    411    889     1  0.0000000  0.4184000  4
    401    397    398    407     1  180.0000771  2.0083200  2
    401    397    398    407     1  0.0000000  1.2552000  3
    401    404    410    412     1  180.0000771  0.0000000  2
    401    404    410    864     1  0.0000000  0.2928800  2
    401    404    410    864     1  0.0000000  0.4184000  4
    404    410    864    844     1  180.0000771  6.2760000  1
    404    410    864    844     1  0.0000000  0.0000000  2
    407    411    889    869     1  180.0000771  6.2760000  1
    407    411    889    869     1  0.0000000  0.0000000  2
    410    864    844    841     1  0.0000000  2.2175200  1
    410    864    844    841     1  0.0000000  0.0000000  2
    410    864    844    841     1  180.0000771  0.6276000  3
    410    864    844    841     1  180.0000771  2.0920000  4
    411    889    869    866     1  0.0000000  2.2175200  1
    411    889    869    866     1  0.0000000  0.0000000  2
    411    889    869    866     1  180.0000771  0.6276000  3
    411    889    869    866     1  180.0000771  2.0920000  4
    412    410    864    844     1  180.0000771  10.4600000  2
    413    411    889    869     1  180.0000771  10.4600000  2
    416    422    423    432     1  180.0000771  2.0083200  2
    416    422    423    432     1  0.0000000  1.2552000  3
    416    422    426    429     1  180.0000771  2.0083200  2
    416    422    426    429     1  0.0000000  1.2552000  3
    419    416    422    423     1  180.0000771  2.0083200  2
    419    416    422    423     1  0.0000000  1.2552000  3
    419    416    422    426     1  180.0000771  2.0083200  2
    419    416    422    426     1  0.0000000  1.2552000  3
    422    416    419    439     1  0.0000000  0.6508444  3
    422    423    432    436     1  0.0000000  0.6508444  3
    422    426    429    435     1  0.0000000  0.6508444  3
    423    422    426    429     1  180.0000771  2.0083200  2
    423    422    426    429     1  0.0000000  1.2552000  3
    423    432    436    438     1  180.0000771  0.0000000  2
    423    432    436    939     1  0.0000000  0.2928800  2
    423    432    436    939     1  0.0000000  0.4184000  4
    426    422    423    432     1  180.0000771  2.0083200  2
    426    422    423    432     1  0.0000000  1.2552000  3
    426    429    435    437     1  180.0000771  0.0000000  2
    426    429    435    914     1  0.0000000  0.2928800  2
    426    429    435    914     1  0.0000000  0.4184000  4
    429    435    914    894     1  180.0000771  6.2760000  1
    429    435    914    894     1  0.0000000  0.0000000  2
    432    436    939    919     1  180.0000771  6.2760000  1
    432    436    939    919     1  0.0000000  0.0000000  2
    435    914    894    891     1  0.0000000  2.2175200  1
    435    914    894    891     1  0.0000000  0.0000000  2
    435    914    894    891     1  180.0000771  0.6276000  3
    435    914    894    891     1  180.0000771  2.0920000  4
    436    939    919    916     1  0.0000000  2.2175200  1
    436    939    919    916     1  0.0000000  0.0000000  2
    436    939    919    916     1  180.0000771  0.6276000  3
    436    939    919    916     1  180.0000771  2.0920000  4
    437    435    914    894     1  180.0000771  10.4600000  2
    438    436    939    919     1  180.0000771  10.4600000  2
    441    447    448    457     1  180.0000771  2.0083200  2
    441    447    448    457     1  0.0000000  1.2552000  3
    441    447    451    454     1  180.0000771  2.0083200  2
    441    447    451    454     1  0.0000000  1.2552000  3
    444    441    447    448     1  180.0000771  2.0083200  2
    444    441    447    448     1  0.0000000  1.2552000  3
    444    441    447    451     1  180.0000771  2.0083200  2
    444    441    447    451     1  0.0000000  1.2552000  3
    447    441    444    464     1  0.0000000  0.6508444  3
    447    448    457    461     1  0.0000000  0.6508444  3
    447    451    454    460     1  0.0000000  0.6508444  3
    448    447    451    454     1  180.0000771  2.0083200  2
    448    447    451    454     1  0.0000000  1.2552000  3
    448    457    461    463     1  180.0000771  0.0000000  2
    448    457    461    989     1  0.0000000  0.2928800  2
    448    457    461    989     1  0.0000000  0.4184000  4
    451    447    448    457     1  180.0000771  2.0083200  2
    451    447    448    457     1  0.0000000  1.2552000  3
    451    454    460    462     1  180.0000771  0.0000000  2
    451    454    460    964     1  0.0000000  0.2928800  2
    451    454    460    964     1  0.0000000  0.4184000  4
    454    460    964    944     1  180.0000771  6.2760000  1
    454    460    964    944     1  0.0000000  0.0000000  2
    457    461    989    969     1  180.0000771  6.2760000  1
    457    461    989    969     1  0.0000000  0.0000000  2
    460    964    944    941     1  0.0000000  2.2175200  1
    460    964    944    941     1  0.0000000  0.0000000  2
    460    964    944    941     1  180.0000771  0.6276000  3
    460    964    944    941     1  180.0000771  2.0920000  4
    461    989    969    966     1  0.0000000  2.2175200  1
    461    989    969    966     1  0.0000000  0.0000000  2
    461    989    969    966     1  180.0000771  0.6276000  3
    461    989    969    966     1  180.0000771  2.0920000  4
    462    460    964    944     1  180.0000771  10.4600000  2
    463    461    989    969     1  180.0000771  10.4600000  2
    466    472    473    482     1  180.0000771  2.0083200  2
    466    472    473    482     1  0.0000000  1.2552000  3
    466    472    476    479     1  180.0000771  2.0083200  2
    466    472    476    479     1  0.0000000  1.2552000  3
    469    466    472    473     1  180.0000771  2.0083200  2
    469    466    472    473     1  0.0000000  1.2552000  3
    469    466    472    476     1  180.0000771  2.0083200  2
    469    466    472    476     1  0.0000000  1.2552000  3
    472    466    469    489     1  0.0000000  0.6508444  3
    472    473    482    486     1  0.0000000  0.6508444  3
    472    476    479    485     1  0.0000000  0.6508444  3
    473    472    476    479     1  180.0000771  2.0083200  2
    473    472    476    479     1  0.0000000  1.2552000  3
    473    482    486    488     1  180.0000771  0.0000000  2
    473    482    486   1039     1  0.0000000  0.2928800  2
    473    482    486   1039     1  0.0000000  0.4184000  4
    476    472    473    482     1  180.0000771  2.0083200  2
    476    472    473    482     1  0.0000000  1.2552000  3
    476    479    485    487     1  180.0000771  0.0000000  2
    476    479    485   1014     1  0.0000000  0.2928800  2
    476    479    485   1014     1  0.0000000  0.4184000  4
    479    485   1014    994     1  180.0000771  6.2760000  1
    479    485   1014    994     1  0.0000000  0.0000000  2
    482    486   1039   1019     1  180.0000771  6.2760000  1
    482    486   1039   1019     1  0.0000000  0.0000000  2
    485   1014    994    991     1  0.0000000  2.2175200  1
    485   1014    994    991     1  0.0000000  0.0000000  2
    485   1014    994    991     1  180.0000771  0.6276000  3
    485   1014    994    991     1  180.0000771  2.0920000  4
    486   1039   1019   1016     1  0.0000000  2.2175200  1
    486   1039   1019   1016     1  0.0000000  0.0000000  2
    486   1039   1019   1016     1  180.0000771  0.6276000  3
    486   1039   1019   1016     1  180.0000771  2.0920000  4
    487    485   1014    994     1  180.0000771  10.4600000  2
    488    486   1039   1019     1  180.0000771  10.4600000  2
    491    497    498    507     1  180.0000771  2.0083200  2
    491    497    498    507     1  0.0000000  1.2552000  3
    491    497    501    504     1  180.0000771  2.0083200  2
    491    497    501    504     1  0.0000000  1.2552000  3
    494    491    497    498     1  180.0000771  2.0083200  2
    494    491    497    498     1  0.0000000  1.2552000  3
    494    491    497    501     1  180.0000771  2.0083200  2
    494    491    497    501     1  0.0000000  1.2552000  3
    497    491    494    514     1  0.0000000  0.6508444  3
    497    498    507    511     1  0.0000000  0.6508444  3
    497    501    504    510     1  0.0000000  0.6508444  3
    498    497    501    504     1  180.0000771  2.0083200  2
    498    497    501    504     1  0.0000000  1.2552000  3
    498    507    511    513     1  180.0000771  0.0000000  2
    498    507    511   1089     1  0.0000000  0.2928800  2
    498    507    511   1089     1  0.0000000  0.4184000  4
    501    497    498    507     1  180.0000771  2.0083200  2
    501    497    498    507     1  0.0000000  1.2552000  3
    501    504    510    512     1  180.0000771  0.0000000  2
    501    504    510   1064     1  0.0000000  0.2928800  2
    501    504    510   1064     1  0.0000000  0.4184000  4
    504    510   1064   1044     1  180.0000771  6.2760000  1
    504    510   1064   1044     1  0.0000000  0.0000000  2
    507    511   1089   1069     1  180.0000771  6.2760000  1
    507    511   1089   1069     1  0.0000000  0.0000000  2
    510   1064   1044   1041     1  0.0000000  2.2175200  1
    510   1064   1044   1041     1  0.0000000  0.0000000  2
    510   1064   1044   1041     1  180.0000771  0.6276000  3
    510   1064   1044   1041     1  180.0000771  2.0920000  4
    511   1089   1069   1066     1  0.0000000  2.2175200  1
    511   1089   1069   1066     1  0.0000000  0.0000000  2
    511   1089   1069   1066     1  180.0000771  0.6276000  3
    511   1089   1069   1066     1  180.0000771  2.0920000  4
    512    510   1064   1044     1  180.0000771  10.4600000  2
    513    511   1089   1069     1  180.0000771  10.4600000  2
    516    522    523    532     1  180.0000771  2.0083200  2
    516    522    523    532     1  0.0000000  1.2552000  3
    516    522    526    529     1  180.0000771  2.0083200  2
    516    522    526    529     1  0.0000000  1.2552000  3
    519    516    522    523     1  180.0000771  2.0083200  2
    519    516    522    523     1  0.0000000  1.2552000  3
    519    516    522    526     1  180.0000771  2.0083200  2
    519    516    522    526     1  0.0000000  1.2552000  3
    522    516    519    539     1  0.0000000  0.6508444  3
    522    523    532    536     1  0.0000000  0.6508444  3
    522    526    529    535     1  0.0000000  0.6508444  3
    523    522    526    529     1  180.0000771  2.0083200  2
    523    522    526    529     1  0.0000000  1.2552000  3
    523    532    536    538     1  180.0000771  0.0000000  2
    523    532    536   1139     1  0.0000000  0.2928800  2
    523    532    536   1139     1  0.0000000  0.4184000  4
    526    522    523    532     1  180.0000771  2.0083200  2
    526    522    523    532     1  0.0000000  1.2552000  3
    526    529    535    537     1  180.0000771  0.0000000  2
    526    529    535   1114     1  0.0000000  0.2928800  2
    526    529    535   1114     1  0.0000000  0.4184000  4
    529    535   1114   1094     1  180.0000771  6.2760000  1
    529    535   1114   1094     1  0.0000000  0.0000000  2
    532    536   1139   1119     1  180.0000771  6.2760000  1
    532    536   1139   1119     1  0.0000000  0.0000000  2
    535   1114   1094   1091     1  0.0000000  2.2175200  1
    535   1114   1094   1091     1  0.0000000  0.0000000  2
    535   1114   1094   1091     1  180.0000771  0.6276000  3
    535   1114   1094   1091     1  180.0000771  2.0920000  4
    536   1139   1119   1116     1  0.0000000  2.2175200  1
    536   1139   1119   1116     1  0.0000000  0.0000000  2
    536   1139   1119   1116     1  180.0000771  0.6276000  3
    536   1139   1119   1116     1  180.0000771  2.0920000  4
    537    535   1114   1094     1  180.0000771  10.4600000  2
    538    536   1139   1119     1  180.0000771  10.4600000  2
    541    547    548    557     1  180.0000771  2.0083200  2
    541    547    548    557     1  0.0000000  1.2552000  3
    541    547    551    554     1  180.0000771  2.0083200  2
    541    547    551    554     1  0.0000000  1.2552000  3
    544    541    547    548     1  180.0000771  2.0083200  2
    544    541    547    548     1  0.0000000  1.2552000  3
    544    541    547    551     1  180.0000771  2.0083200  2
    544    541    547    551     1  0.0000000  1.2552000  3
    547    541    544    564     1  0.0000000  0.6508444  3
    547    548    557    561     1  0.0000000  0.6508444  3
    547    551    554    560     1  0.0000000  0.6508444  3
    548    547    551    554     1  180.0000771  2.0083200  2
    548    547    551    554     1  0.0000000  1.2552000  3
    548    557    561    563     1  180.0000771  0.0000000  2
    548    557    561   1189     1  0.0000000  0.2928800  2
    548    557    561   1189     1  0.0000000  0.4184000  4
    551    547    548    557     1  180.0000771  2.0083200  2
    551    547    548    557     1  0.0000000  1.2552000  3
    551    554    560    562     1  180.0000771  0.0000000  2
    551    554    560   1164     1  0.0000000  0.2928800  2
    551    554    560   1164     1  0.0000000  0.4184000  4
    554    560   1164   1144     1  180.0000771  6.2760000  1
    554    560   1164   1144     1  0.0000000  0.0000000  2
    557    561   1189   1169     1  180.0000771  6.2760000  1
    557    561   1189   1169     1  0.0000000  0.0000000  2
    560   1164   1144   1141     1  0.0000000  2.2175200  1
    560   1164   1144   1141     1  0.0000000  0.0000000  2
    560   1164   1144   1141     1  180.0000771  0.6276000  3
    560   1164   1144   1141     1  180.0000771  2.0920000  4
    561   1189   1169   1166     1  0.0000000  2.2175200  1
    561   1189   1169   1166     1  0.0000000  0.0000000  2
    561   1189   1169   1166     1  180.0000771  0.6276000  3
    561   1189   1169   1166     1  180.0000771  2.0920000  4
    562    560   1164   1144     1  180.0000771  10.4600000  2
    563    561   1189   1169     1  180.0000771  10.4600000  2
    566    572    573    582     1  180.0000771  2.0083200  2
    566    572    573    582     1  0.0000000  1.2552000  3
    566    572    576    579     1  180.0000771  2.0083200  2
    566    572    576    579     1  0.0000000  1.2552000  3
    569    566    572    573     1  180.0000771  2.0083200  2
    569    566    572    573     1  0.0000000  1.2552000  3
    569    566    572    576     1  180.0000771  2.0083200  2
    569    566    572    576     1  0.0000000  1.2552000  3
    572    566    569    589     1  0.0000000  0.6508444  3
    572    573    582    586     1  0.0000000  0.6508444  3
    572    576    579    585     1  0.0000000  0.6508444  3
    573    572    576    579     1  180.0000771  2.0083200  2
    573    572    576    579     1  0.0000000  1.2552000  3
    573    582    586    588     1  180.0000771  0.0000000  2
    573    582    586   1239     1  0.0000000  0.2928800  2
    573    582    586   1239     1  0.0000000  0.4184000  4
    576    572    573    582     1  180.0000771  2.0083200  2
    576    572    573    582     1  0.0000000  1.2552000  3
    576    579    585    587     1  180.0000771  0.0000000  2
    576    579    585   1214     1  0.0000000  0.2928800  2
    576    579    585   1214     1  0.0000000  0.4184000  4
    579    585   1214   1194     1  180.0000771  6.2760000  1
    579    585   1214   1194     1  0.0000000  0.0000000  2
    582    586   1239   1219     1  180.0000771  6.2760000  1
    582    586   1239   1219     1  0.0000000  0.0000000  2
    585   1214   1194   1191     1  0.0000000  2.2175200  1
    585   1214   1194   1191     1  0.0000000  0.0000000  2
    585   1214   1194   1191     1  180.0000771  0.6276000  3
    585   1214   1194   1191     1  180.0000771  2.0920000  4
    586   1239   1219   1216     1  0.0000000  2.2175200  1
    586   1239   1219   1216     1  0.0000000  0.0000000  2
    586   1239   1219   1216     1  180.0000771  0.6276000  3
    586   1239   1219   1216     1  180.0000771  2.0920000  4
    587    585   1214   1194     1  180.0000771  10.4600000  2
    588    586   1239   1219     1  180.0000771  10.4600000  2
    591    597    598    607     1  180.0000771  2.0083200  2
    591    597    598    607     1  0.0000000  1.2552000  3
    591    597    601    604     1  180.0000771  2.0083200  2
    591    597    601    604     1  0.0000000  1.2552000  3
    594    591    597    598     1  180.0000771  2.0083200  2
    594    591    597    598     1  0.0000000  1.2552000  3
    594    591    597    601     1  180.0000771  2.0083200  2
    594    591    597    601     1  0.0000000  1.2552000  3
    597    591    594    614     1  0.0000000  0.6508444  3
    597    598    607    611     1  0.0000000  0.6508444  3
    597    601    604    610     1  0.0000000  0.6508444  3
    598    597    601    604     1  180.0000771  2.0083200  2
    598    597    601    604     1  0.0000000  1.2552000  3
    598    607    611    613     1  180.0000771  0.0000000  2
    598    607    611   1289     1  0.0000000  0.2928800  2
    598    607    611   1289     1  0.0000000  0.4184000  4
    601    597    598    607     1  180.0000771  2.0083200  2
    601    597    598    607     1  0.0000000  1.2552000  3
    601    604    610    612     1  180.0000771  0.0000000  2
    601    604    610   1264     1  0.0000000  0.2928800  2
    601    604    610   1264     1  0.0000000  0.4184000  4
    604    610   1264   1244     1  180.0000771  6.2760000  1
    604    610   1264   1244     1  0.0000000  0.0000000  2
    607    611   1289   1269     1  180.0000771  6.2760000  1
    607    611   1289   1269     1  0.0000000  0.0000000  2
    610   1264   1244   1241     1  0.0000000  2.2175200  1
    610   1264   1244   1241     1  0.0000000  0.0000000  2
    610   1264   1244   1241     1  180.0000771  0.6276000  3
    610   1264   1244   1241     1  180.0000771  2.0920000  4
    611   1289   1269   1266     1  0.0000000  2.2175200  1
    611   1289   1269   1266     1  0.0000000  0.0000000  2
    611   1289   1269   1266     1  180.0000771  0.6276000  3
    611   1289   1269   1266     1  180.0000771  2.0920000  4
    612    610   1264   1244     1  180.0000771  10.4600000  2
    613    611   1289   1269     1  180.0000771  10.4600000  2
    616    622    623    632     1  180.0000771  2.0083200  2
    616    622    623    632     1  0.0000000  1.2552000  3
    616    622    626    629     1  180.0000771  2.0083200  2
    616    622    626    629     1  0.0000000  1.2552000  3
    619    616    622    623     1  180.0000771  2.0083200  2
    619    616    622    623     1  0.0000000  1.2552000  3
    619    616    622    626     1  180.0000771  2.0083200  2
    619    616    622    626     1  0.0000000  1.2552000  3
    622    616    619    639     1  0.0000000  0.6508444  3
    622    623    632    636     1  0.0000000  0.6508444  3
    622    626    629    635     1  0.0000000  0.6508444  3
    623    622    626    629     1  180.0000771  2.0083200  2
    623    622    626    629     1  0.0000000  1.2552000  3
    623    632    636    638     1  180.0000771  0.0000000  2
    623    632    636   1339     1  0.0000000  0.2928800  2
    623    632    636   1339     1  0.0000000  0.4184000  4
    626    622    623    632     1  180.0000771  2.0083200  2
    626    622    623    632     1  0.0000000  1.2552000  3
    626    629    635    637     1  180.0000771  0.0000000  2
    626    629    635   1314     1  0.0000000  0.2928800  2
    626    629    635   1314     1  0.0000000  0.4184000  4
    629    635   1314   1294     1  180.0000771  6.2760000  1
    629    635   1314   1294     1  0.0000000  0.0000000  2
    632    636   1339   1319     1  180.0000771  6.2760000  1
    632    636   1339   1319     1  0.0000000  0.0000000  2
    635   1314   1294   1291     1  0.0000000  2.2175200  1
    635   1314   1294   1291     1  0.0000000  0.0000000  2
    635   1314   1294   1291     1  180.0000771  0.6276000  3
    635   1314   1294   1291     1  180.0000771  2.0920000  4
    636   1339   1319   1316     1  0.0000000  2.2175200  1
    636   1339   1319   1316     1  0.0000000  0.0000000  2
    636   1339   1319   1316     1  180.0000771  0.6276000  3
    636   1339   1319   1316     1  180.0000771  2.0920000  4
    637    635   1314   1294     1  180.0000771  10.4600000  2
    638    636   1339   1319     1  180.0000771  10.4600000  2
    641    647    648    657     1  180.0000771  2.0083200  2
    641    647    648    657     1  0.0000000  1.2552000  3
    641    647    651    654     1  180.0000771  2.0083200  2
    641    647    651    654     1  0.0000000  1.2552000  3
    644    641    647    648     1  180.0000771  2.0083200  2
    644    641    647    648     1  0.0000000  1.2552000  3
    644    641    647    651     1  180.0000771  2.0083200  2
    644    641    647    651     1  0.0000000  1.2552000  3
    647    641    644    664     1  0.0000000  0.6508444  3
    647    648    657    661     1  0.0000000  0.6508444  3
    647    651    654    660     1  0.0000000  0.6508444  3
    648    647    651    654     1  180.0000771  2.0083200  2
    648    647    651    654     1  0.0000000  1.2552000  3
    648    657    661    663     1  180.0000771  0.0000000  2
    648    657    661   1389     1  0.0000000  0.2928800  2
    648    657    661   1389     1  0.0000000  0.4184000  4
    651    647    648    657     1  180.0000771  2.0083200  2
    651    647    648    657     1  0.0000000  1.2552000  3
    651    654    660    662     1  180.0000771  0.0000000  2
    651    654    660   1364     1  0.0000000  0.2928800  2
    651    654    660   1364     1  0.0000000  0.4184000  4
    654    660   1364   1344     1  180.0000771  6.2760000  1
    654    660   1364   1344     1  0.0000000  0.0000000  2
    657    661   1389   1369     1  180.0000771  6.2760000  1
    657    661   1389   1369     1  0.0000000  0.0000000  2
    660   1364   1344   1341     1  0.0000000  2.2175200  1
    660   1364   1344   1341     1  0.0000000  0.0000000  2
    660   1364   1344   1341     1  180.0000771  0.6276000  3
    660   1364   1344   1341     1  180.0000771  2.0920000  4
    661   1389   1369   1366     1  0.0000000  2.2175200  1
    661   1389   1369   1366     1  0.0000000  0.0000000  2
    661   1389   1369   1366     1  180.0000771  0.6276000  3
    661   1389   1369   1366     1  180.0000771  2.0920000  4
    662    660   1364   1344     1  180.0000771  10.4600000  2
    663    661   1389   1369     1  180.0000771  10.4600000  2
    666    672    673    682     1  180.0000771  2.0083200  2
    666    672    673    682     1  0.0000000  1.2552000  3
    666    672    676    679     1  180.0000771  2.0083200  2
    666    672    676    679     1  0.0000000  1.2552000  3
    669    666    672    673     1  180.0000771  2.0083200  2
    669    666    672    673     1  0.0000000  1.2552000  3
    669    666    672    676     1  180.0000771  2.0083200  2
    669    666    672    676     1  0.0000000  1.2552000  3
    672    666    669    689     1  0.0000000  0.6508444  3
    672    673    682    686     1  0.0000000  0.6508444  3
    672    676    679    685     1  0.0000000  0.6508444  3
    673    672    676    679     1  180.0000771  2.0083200  2
    673    672    676    679     1  0.0000000  1.2552000  3
    673    682    686    688     1  180.0000771  0.0000000  2
    673    682    686   1439     1  0.0000000  0.2928800  2
    673    682    686   1439     1  0.0000000  0.4184000  4
    676    672    673    682     1  180.0000771  2.0083200  2
    676    672    673    682     1  0.0000000  1.2552000  3
    676    679    685    687     1  180.0000771  0.0000000  2
    676    679    685   1414     1  0.0000000  0.2928800  2
    676    679    685   1414     1  0.0000000  0.4184000  4
    679    685   1414   1394     1  180.0000771  6.2760000  1
    679    685   1414   1394     1  0.0000000  0.0000000  2
    682    686   1439   1419     1  180.0000771  6.2760000  1
    682    686   1439   1419     1  0.0000000  0.0000000  2
    685   1414   1394   1391     1  0.0000000  2.2175200  1
    685   1414   1394   1391     1  0.0000000  0.0000000  2
    685   1414   1394   1391     1  180.0000771  0.6276000  3
    685   1414   1394   1391     1  180.0000771  2.0920000  4
    686   1439   1419   1416     1  0.0000000  2.2175200  1
    686   1439   1419   1416     1  0.0000000  0.0000000  2
    686   1439   1419   1416     1  180.0000771  0.6276000  3
    686   1439   1419   1416     1  180.0000771  2.0920000  4
    687    685   1414   1394     1  180.0000771  10.4600000  2
    688    686   1439   1419     1  180.0000771  10.4600000  2
    691    697    698    707     1  180.0000771  2.0083200  2
    691    697    698    707     1  0.0000000  1.2552000  3
    691    697    701    704     1  180.0000771  2.0083200  2
    691    697    701    704     1  0.0000000  1.2552000  3
    694    691    697    698     1  180.0000771  2.0083200  2
    694    691    697    698     1  0.0000000  1.2552000  3
    694    691    697    701     1  180.0000771  2.0083200  2
    694    691    697    701     1  0.0000000  1.2552000  3
    697    691    694    714     1  0.0000000  0.6508444  3
    697    698    707    711     1  0.0000000  0.6508444  3
    697    701    704    710     1  0.0000000  0.6508444  3
    698    697    701    704     1  180.0000771  2.0083200  2
    698    697    701    704     1  0.0000000  1.2552000  3
    698    707    711    713     1  180.0000771  0.0000000  2
    698    707    711   1489     1  0.0000000  0.2928800  2
    698    707    711   1489     1  0.0000000  0.4184000  4
    701    697    698    707     1  180.0000771  2.0083200  2
    701    697    698    707     1  0.0000000  1.2552000  3
    701    704    710    712     1  180.0000771  0.0000000  2
    701    704    710   1464     1  0.0000000  0.2928800  2
    701    704    710   1464     1  0.0000000  0.4184000  4
    704    710   1464   1444     1  180.0000771  6.2760000  1
    704    710   1464   1444     1  0.0000000  0.0000000  2
    707    711   1489   1469     1  180.0000771  6.2760000  1
    707    711   1489   1469     1  0.0000000  0.0000000  2
    710   1464   1444   1441     1  0.0000000  2.2175200  1
    710   1464   1444   1441     1  0.0000000  0.0000000  2
    710   1464   1444   1441     1  180.0000771  0.6276000  3
    710   1464   1444   1441     1  180.0000771  2.0920000  4
    711   1489   1469   1466     1  0.0000000  2.2175200  1
    711   1489   1469   1466     1  0.0000000  0.0000000  2
    711   1489   1469   1466     1  180.0000771  0.6276000  3
    711   1489   1469   1466     1  180.0000771  2.0920000  4
    712    710   1464   1444     1  180.0000771  10.4600000  2
    713    711   1489   1469     1  180.0000771  10.4600000  2
    716    722    723    732     1  180.0000771  2.0083200  2
    716    722    723    732     1  0.0000000  1.2552000  3
    716    722    726    729     1  180.0000771  2.0083200  2
    716    722    726    729     1  0.0000000  1.2552000  3
    719    716    722    723     1  180.0000771  2.0083200  2
    719    716    722    723     1  0.0000000  1.2552000  3
    719    716    722    726     1  180.0000771  2.0083200  2
    719    716    722    726     1  0.0000000  1.2552000  3
    722    716    719    739     1  0.0000000  0.6508444  3
    722    723    732    736     1  0.0000000  0.6508444  3
    722    726    729    735     1  0.0000000  0.6508444  3
    723    722    726    729     1  180.0000771  2.0083200  2
    723    722    726    729     1  0.0000000  1.2552000  3
    723    732    736    738     1  180.0000771  0.0000000  2
    723    732    736   1539     1  0.0000000  0.2928800  2
    723    732    736   1539     1  0.0000000  0.4184000  4
    726    722    723    732     1  180.0000771  2.0083200  2
    726    722    723    732     1  0.0000000  1.2552000  3
    726    729    735    737     1  180.0000771  0.0000000  2
    726    729    735   1514     1  0.0000000  0.2928800  2
    726    729    735   1514     1  0.0000000  0.4184000  4
    729    735   1514   1494     1  180.0000771  6.2760000  1
    729    735   1514   1494     1  0.0000000  0.0000000  2
    732    736   1539   1519     1  180.0000771  6.2760000  1
    732    736   1539   1519     1  0.0000000  0.0000000  2
    735   1514   1494   1491     1  0.0000000  2.2175200  1
    735   1514   1494   1491     1  0.0000000  0.0000000  2
    735   1514   1494   1491     1  180.0000771  0.6276000  3
    735   1514   1494   1491     1  180.0000771  2.0920000  4
    736   1539   1519   1516     1  0.0000000  2.2175200  1
    736   1539   1519   1516     1  0.0000000  0.0000000  2
    736   1539   1519   1516     1  180.0000771  0.6276000  3
    736   1539   1519   1516     1  180.0000771  2.0920000  4
    737    735   1514   1494     1  180.0000771  10.4600000  2
    738    736   1539   1519     1  180.0000771  10.4600000  2
    741    747    748    757     1  180.0000771  2.0083200  2
    741    747    748    757     1  0.0000000  1.2552000  3
    741    747    751    754     1  180.0000771  2.0083200  2
    741    747    751    754     1  0.0000000  1.2552000  3
    744    741    747    748     1  180.0000771  2.0083200  2
    744    741    747    748     1  0.0000000  1.2552000  3
    744    741    747    751     1  180.0000771  2.0083200  2
    744    741    747    751     1  0.0000000  1.2552000  3
    747    741    744    764     1  0.0000000  0.6508444  3
    747    748    757    761     1  0.0000000  0.6508444  3
    747    751    754    760     1  0.0000000  0.6508444  3
    748    747    751    754     1  180.0000771  2.0083200  2
    748    747    751    754     1  0.0000000  1.2552000  3
    748    757    761    763     1  180.0000771  0.0000000  2
    748    757    761   1614     1  0.0000000  0.2928800  2
    748    757    761   1614     1  0.0000000  0.4184000  4
    751    747    748    757     1  180.0000771  2.0083200  2
    751    747    748    757     1  0.0000000  1.2552000  3
    751    754    760   1541     1  0.0000000  0.2928800  2
    751    754    760   1541     1  0.0000000  0.4184000  4
    751    754    760    762     1  180.0000771  0.0000000  2
    754    760   1541   1543     1  180.0000771  6.2760000  1
    754    760   1541   1543     1  0.0000000  0.0000000  2
    757    761   1614   1616     1  180.0000771  6.2760000  1
    757    761   1614   1616     1  0.0000000  0.0000000  2
    760   1541   1543   1545     1  0.0000000  2.2175200  1
    760   1541   1543   1545     1  0.0000000  0.0000000  2
    760   1541   1543   1545     1  180.0000771  0.6276000  3
    760   1541   1543   1545     1  180.0000771  2.0920000  4
    761   1614   1616   1618     1  0.0000000  2.2175200  1
    761   1614   1616   1618     1  0.0000000  0.0000000  2
    761   1614   1616   1618     1  180.0000771  0.6276000  3
    761   1614   1616   1618     1  180.0000771  2.0920000  4
    762    760   1541   1543     1  180.0000771  10.4600000  2
    763    761   1614   1616     1  180.0000771  10.4600000  2
    766    772    773    782     1  180.0000771  2.0083200  2
    766    772    773    782     1  0.0000000  1.2552000  3
    766    772    776    779     1  180.0000771  2.0083200  2
    766    772    776    779     1  0.0000000  1.2552000  3
    769    766    772    773     1  180.0000771  2.0083200  2
    769    766    772    773     1  0.0000000  1.2552000  3
    769    766    772    776     1  180.0000771  2.0083200  2
    769    766    772    776     1  0.0000000  1.2552000  3
    772    766    769    789     1  0.0000000  0.6508444  3
    772    773    782    786     1  0.0000000  0.6508444  3
    772    776    779    785     1  0.0000000  0.6508444  3
    773    772    776    779     1  180.0000771  2.0083200  2
    773    772    776    779     1  0.0000000  1.2552000  3
    773    782    786    788     1  180.0000771  0.0000000  2
    773    782    786   1760     1  0.0000000  0.2928800  2
    773    782    786   1760     1  0.0000000  0.4184000  4
    776    772    773    782     1  180.0000771  2.0083200  2
    776    772    773    782     1  0.0000000  1.2552000  3
    776    779    785   1687     1  0.0000000  0.2928800  2
    776    779    785   1687     1  0.0000000  0.4184000  4
    776    779    785    787     1  180.0000771  0.0000000  2
    779    785   1687   1689     1  180.0000771  6.2760000  1
    779    785   1687   1689     1  0.0000000  0.0000000  2
    782    786   1760   1762     1  180.0000771  6.2760000  1
    782    786   1760   1762     1  0.0000000  0.0000000  2
    785   1687   1689   1691     1  0.0000000  2.2175200  1
    785   1687   1689   1691     1  0.0000000  0.0000000  2
    785   1687   1689   1691     1  180.0000771  0.6276000  3
    785   1687   1689   1691     1  180.0000771  2.0920000  4
    786   1760   1762   1764     1  0.0000000  2.2175200  1
    786   1760   1762   1764     1  0.0000000  0.0000000  2
    786   1760   1762   1764     1  180.0000771  0.6276000  3
    786   1760   1762   1764     1  180.0000771  2.0920000  4
    787    785   1687   1689     1  180.0000771  10.4600000  2
    788    786   1760   1762     1  180.0000771  10.4600000  2
    791    797    798    807     1  180.0000771  2.0083200  2
    791    797    798    807     1  0.0000000  1.2552000  3
    791    797    801    804     1  180.0000771  2.0083200  2
    791    797    801    804     1  0.0000000  1.2552000  3
    794    791    797    798     1  180.0000771  2.0083200  2
    794    791    797    798     1  0.0000000  1.2552000  3
    794    791    797    801     1  180.0000771  2.0083200  2
    794    791    797    801     1  0.0000000  1.2552000  3
    797    791    794    814     1  0.0000000  0.6508444  3
    797    798    807    811     1  0.0000000  0.6508444  3
    797    801    804    810     1  0.0000000  0.6508444  3
    798    797    801    804     1  180.0000771  2.0083200  2
    798    797    801    804     1  0.0000000  1.2552000  3
    798    807    811    813     1  180.0000771  0.0000000  2
    798    807    811   1906     1  0.0000000  0.2928800  2
    798    807    811   1906     1  0.0000000  0.4184000  4
    801    797    798    807     1  180.0000771  2.0083200  2
    801    797    798    807     1  0.0000000  1.2552000  3
    801    804    810   1833     1  0.0000000  0.2928800  2
    801    804    810   1833     1  0.0000000  0.4184000  4
    801    804    810    812     1  180.0000771  0.0000000  2
    804    810   1833   1835     1  180.0000771  6.2760000  1
    804    810   1833   1835     1  0.0000000  0.0000000  2
    807    811   1906   1908     1  180.0000771  6.2760000  1
    807    811   1906   1908     1  0.0000000  0.0000000  2
    810   1833   1835   1837     1  0.0000000  2.2175200  1
    810   1833   1835   1837     1  0.0000000  0.0000000  2
    810   1833   1835   1837     1  180.0000771  0.6276000  3
    810   1833   1835   1837     1  180.0000771  2.0920000  4
    811   1906   1908   1910     1  0.0000000  2.2175200  1
    811   1906   1908   1910     1  0.0000000  0.0000000  2
    811   1906   1908   1910     1  180.0000771  0.6276000  3
    811   1906   1908   1910     1  180.0000771  2.0920000  4
    812    810   1833   1835     1  180.0000771  10.4600000  2
    813    811   1906   1908     1  180.0000771  10.4600000  2
    816    822    823    832     1  180.0000771  2.0083200  2
    816    822    823    832     1  0.0000000  1.2552000  3
    816    822    826    829     1  180.0000771  2.0083200  2
    816    822    826    829     1  0.0000000  1.2552000  3
    819    816    822    823     1  180.0000771  2.0083200  2
    819    816    822    823     1  0.0000000  1.2552000  3
    819    816    822    826     1  180.0000771  2.0083200  2
    819    816    822    826     1  0.0000000  1.2552000  3
    822    816    819    839     1  0.0000000  0.6508444  3
    822    823    832    836     1  0.0000000  0.6508444  3
    822    826    829    835     1  0.0000000  0.6508444  3
    823    822    826    829     1  180.0000771  2.0083200  2
    823    822    826    829     1  0.0000000  1.2552000  3
    823    832    836    838     1  180.0000771  0.0000000  2
    823    832    836   2052     1  0.0000000  0.2928800  2
    823    832    836   2052     1  0.0000000  0.4184000  4
    826    822    823    832     1  180.0000771  2.0083200  2
    826    822    823    832     1  0.0000000  1.2552000  3
    826    829    835   1979     1  0.0000000  0.2928800  2
    826    829    835   1979     1  0.0000000  0.4184000  4
    826    829    835    837     1  180.0000771  0.0000000  2
    829    835   1979   1981     1  180.0000771  6.2760000  1
    829    835   1979   1981     1  0.0000000  0.0000000  2
    832    836   2052   2054     1  180.0000771  6.2760000  1
    832    836   2052   2054     1  0.0000000  0.0000000  2
    835   1979   1981   1983     1  0.0000000  2.2175200  1
    835   1979   1981   1983     1  0.0000000  0.0000000  2
    835   1979   1981   1983     1  180.0000771  0.6276000  3
    835   1979   1981   1983     1  180.0000771  2.0920000  4
    836   2052   2054   2056     1  0.0000000  2.2175200  1
    836   2052   2054   2056     1  0.0000000  0.0000000  2
    836   2052   2054   2056     1  180.0000771  0.6276000  3
    836   2052   2054   2056     1  180.0000771  2.0920000  4
    837    835   1979   1981     1  180.0000771  10.4600000  2
    838    836   2052   2054     1  180.0000771  10.4600000  2
    841    847    848    857     1  180.0000771  2.0083200  2
    841    847    848    857     1  0.0000000  1.2552000  3
    841    847    851    854     1  180.0000771  2.0083200  2
    841    847    851    854     1  0.0000000  1.2552000  3
    844    841    847    848     1  180.0000771  2.0083200  2
    844    841    847    848     1  0.0000000  1.2552000  3
    844    841    847    851     1  180.0000771  2.0083200  2
    844    841    847    851     1  0.0000000  1.2552000  3
    847    841    844    864     1  0.0000000  0.6508444  3
    847    848    857    861     1  0.0000000  0.6508444  3
    847    851    854    860     1  0.0000000  0.6508444  3
    848    847    851    854     1  180.0000771  2.0083200  2
    848    847    851    854     1  0.0000000  1.2552000  3
    848    857    861    863     1  180.0000771  0.0000000  2
    848    857    861   2198     1  0.0000000  0.2928800  2
    848    857    861   2198     1  0.0000000  0.4184000  4
    851    847    848    857     1  180.0000771  2.0083200  2
    851    847    848    857     1  0.0000000  1.2552000  3
    851    854    860   2125     1  0.0000000  0.2928800  2
    851    854    860   2125     1  0.0000000  0.4184000  4
    851    854    860    862     1  180.0000771  0.0000000  2
    854    860   2125   2127     1  180.0000771  6.2760000  1
    854    860   2125   2127     1  0.0000000  0.0000000  2
    857    861   2198   2200     1  180.0000771  6.2760000  1
    857    861   2198   2200     1  0.0000000  0.0000000  2
    860   2125   2127   2129     1  0.0000000  2.2175200  1
    860   2125   2127   2129     1  0.0000000  0.0000000  2
    860   2125   2127   2129     1  180.0000771  0.6276000  3
    860   2125   2127   2129     1  180.0000771  2.0920000  4
    861   2198   2200   2202     1  0.0000000  2.2175200  1
    861   2198   2200   2202     1  0.0000000  0.0000000  2
    861   2198   2200   2202     1  180.0000771  0.6276000  3
    861   2198   2200   2202     1  180.0000771  2.0920000  4
    862    860   2125   2127     1  180.0000771  10.4600000  2
    863    861   2198   2200     1  180.0000771  10.4600000  2
    866    872    873    882     1  180.0000771  2.0083200  2
    866    872    873    882     1  0.0000000  1.2552000  3
    866    872    876    879     1  180.0000771  2.0083200  2
    866    872    876    879     1  0.0000000  1.2552000  3
    869    866    872    873     1  180.0000771  2.0083200  2
    869    866    872    873     1  0.0000000  1.2552000  3
    869    866    872    876     1  180.0000771  2.0083200  2
    869    866    872    876     1  0.0000000  1.2552000  3
    872    866    869    889     1  0.0000000  0.6508444  3
    872    873    882    886     1  0.0000000  0.6508444  3
    872    876    879    885     1  0.0000000  0.6508444  3
    873    872    876    879     1  180.0000771  2.0083200  2
    873    872    876    879     1  0.0000000  1.2552000  3
    873    882    886    888     1  180.0000771  0.0000000  2
    873    882    886   2344     1  0.0000000  0.2928800  2
    873    882    886   2344     1  0.0000000  0.4184000  4
    876    872    873    882     1  180.0000771  2.0083200  2
    876    872    873    882     1  0.0000000  1.2552000  3
    876    879    885   2271     1  0.0000000  0.2928800  2
    876    879    885   2271     1  0.0000000  0.4184000  4
    876    879    885    887     1  180.0000771  0.0000000  2
    879    885   2271   2273     1  180.0000771  6.2760000  1
    879    885   2271   2273     1  0.0000000  0.0000000  2
    882    886   2344   2346     1  180.0000771  6.2760000  1
    882    886   2344   2346     1  0.0000000  0.0000000  2
    885   2271   2273   2275     1  0.0000000  2.2175200  1
    885   2271   2273   2275     1  0.0000000  0.0000000  2
    885   2271   2273   2275     1  180.0000771  0.6276000  3
    885   2271   2273   2275     1  180.0000771  2.0920000  4
    886   2344   2346   2348     1  0.0000000  2.2175200  1
    886   2344   2346   2348     1  0.0000000  0.0000000  2
    886   2344   2346   2348     1  180.0000771  0.6276000  3
    886   2344   2346   2348     1  180.0000771  2.0920000  4
    887    885   2271   2273     1  180.0000771  10.4600000  2
    888    886   2344   2346     1  180.0000771  10.4600000  2
    891    897    898    907     1  180.0000771  2.0083200  2
    891    897    898    907     1  0.0000000  1.2552000  3
    891    897    901    904     1  180.0000771  2.0083200  2
    891    897    901    904     1  0.0000000  1.2552000  3
    894    891    897    898     1  180.0000771  2.0083200  2
    894    891    897    898     1  0.0000000  1.2552000  3
    894    891    897    901     1  180.0000771  2.0083200  2
    894    891    897    901     1  0.0000000  1.2552000  3
    897    891    894    914     1  0.0000000  0.6508444  3
    897    898    907    911     1  0.0000000  0.6508444  3
    897    901    904    910     1  0.0000000  0.6508444  3
    898    897    901    904     1  180.0000771  2.0083200  2
    898    897    901    904     1  0.0000000  1.2552000  3
    898    907    911    913     1  180.0000771  0.0000000  2
    898    907    911   2490     1  0.0000000  0.2928800  2
    898    907    911   2490     1  0.0000000  0.4184000  4
    901    897    898    907     1  180.0000771  2.0083200  2
    901    897    898    907     1  0.0000000  1.2552000  3
    901    904    910   2417     1  0.0000000  0.2928800  2
    901    904    910   2417     1  0.0000000  0.4184000  4
    901    904    910    912     1  180.0000771  0.0000000  2
    904    910   2417   2419     1  180.0000771  6.2760000  1
    904    910   2417   2419     1  0.0000000  0.0000000  2
    907    911   2490   2492     1  180.0000771  6.2760000  1
    907    911   2490   2492     1  0.0000000  0.0000000  2
    910   2417   2419   2421     1  0.0000000  2.2175200  1
    910   2417   2419   2421     1  0.0000000  0.0000000  2
    910   2417   2419   2421     1  180.0000771  0.6276000  3
    910   2417   2419   2421     1  180.0000771  2.0920000  4
    911   2490   2492   2494     1  0.0000000  2.2175200  1
    911   2490   2492   2494     1  0.0000000  0.0000000  2
    911   2490   2492   2494     1  180.0000771  0.6276000  3
    911   2490   2492   2494     1  180.0000771  2.0920000  4
    912    910   2417   2419     1  180.0000771  10.4600000  2
    913    911   2490   2492     1  180.0000771  10.4600000  2
    916    922    923    932     1  180.0000771  2.0083200  2
    916    922    923    932     1  0.0000000  1.2552000  3
    916    922    926    929     1  180.0000771  2.0083200  2
    916    922    926    929     1  0.0000000  1.2552000  3
    919    916    922    923     1  180.0000771  2.0083200  2
    919    916    922    923     1  0.0000000  1.2552000  3
    919    916    922    926     1  180.0000771  2.0083200  2
    919    916    922    926     1  0.0000000  1.2552000  3
    922    916    919    939     1  0.0000000  0.6508444  3
    922    923    932    936     1  0.0000000  0.6508444  3
    922    926    929    935     1  0.0000000  0.6508444  3
    923    922    926    929     1  180.0000771  2.0083200  2
    923    922    926    929     1  0.0000000  1.2552000  3
    923    932    936    938     1  180.0000771  0.0000000  2
    923    932    936   2636     1  0.0000000  0.2928800  2
    923    932    936   2636     1  0.0000000  0.4184000  4
    926    922    923    932     1  180.0000771  2.0083200  2
    926    922    923    932     1  0.0000000  1.2552000  3
    926    929    935   2563     1  0.0000000  0.2928800  2
    926    929    935   2563     1  0.0000000  0.4184000  4
    926    929    935    937     1  180.0000771  0.0000000  2
    929    935   2563   2565     1  180.0000771  6.2760000  1
    929    935   2563   2565     1  0.0000000  0.0000000  2
    932    936   2636   2638     1  180.0000771  6.2760000  1
    932    936   2636   2638     1  0.0000000  0.0000000  2
    935   2563   2565   2567     1  0.0000000  2.2175200  1
    935   2563   2565   2567     1  0.0000000  0.0000000  2
    935   2563   2565   2567     1  180.0000771  0.6276000  3
    935   2563   2565   2567     1  180.0000771  2.0920000  4
    936   2636   2638   2640     1  0.0000000  2.2175200  1
    936   2636   2638   2640     1  0.0000000  0.0000000  2
    936   2636   2638   2640     1  180.0000771  0.6276000  3
    936   2636   2638   2640     1  180.0000771  2.0920000  4
    937    935   2563   2565     1  180.0000771  10.4600000  2
    938    936   2636   2638     1  180.0000771  10.4600000  2
    941    947    948    957     1  180.0000771  2.0083200  2
    941    947    948    957     1  0.0000000  1.2552000  3
    941    947    951    954     1  180.0000771  2.0083200  2
    941    947    951    954     1  0.0000000  1.2552000  3
    944    941    947    948     1  180.0000771  2.0083200  2
    944    941    947    948     1  0.0000000  1.2552000  3
    944    941    947    951     1  180.0000771  2.0083200  2
    944    941    947    951     1  0.0000000  1.2552000  3
    947    941    944    964     1  0.0000000  0.6508444  3
    947    948    957    961     1  0.0000000  0.6508444  3
    947    951    954    960     1  0.0000000  0.6508444  3
    948    947    951    954     1  180.0000771  2.0083200  2
    948    947    951    954     1  0.0000000  1.2552000  3
    948    957    961    963     1  180.0000771  0.0000000  2
    948    957    961   2782     1  0.0000000  0.2928800  2
    948    957    961   2782     1  0.0000000  0.4184000  4
    951    947    948    957     1  180.0000771  2.0083200  2
    951    947    948    957     1  0.0000000  1.2552000  3
    951    954    960   2709     1  0.0000000  0.2928800  2
    951    954    960   2709     1  0.0000000  0.4184000  4
    951    954    960    962     1  180.0000771  0.0000000  2
    954    960   2709   2711     1  180.0000771  6.2760000  1
    954    960   2709   2711     1  0.0000000  0.0000000  2
    957    961   2782   2784     1  180.0000771  6.2760000  1
    957    961   2782   2784     1  0.0000000  0.0000000  2
    960   2709   2711   2713     1  0.0000000  2.2175200  1
    960   2709   2711   2713     1  0.0000000  0.0000000  2
    960   2709   2711   2713     1  180.0000771  0.6276000  3
    960   2709   2711   2713     1  180.0000771  2.0920000  4
    961   2782   2784   2786     1  0.0000000  2.2175200  1
    961   2782   2784   2786     1  0.0000000  0.0000000  2
    961   2782   2784   2786     1  180.0000771  0.6276000  3
    961   2782   2784   2786     1  180.0000771  2.0920000  4
    962    960   2709   2711     1  180.0000771  10.4600000  2
    963    961   2782   2784     1  180.0000771  10.4600000  2
    966    972    973    982     1  180.0000771  2.0083200  2
    966    972    973    982     1  0.0000000  1.2552000  3
    966    972    976    979     1  180.0000771  2.0083200  2
    966    972    976    979     1  0.0000000  1.2552000  3
    969    966    972    973     1  180.0000771  2.0083200  2
    969    966    972    973     1  0.0000000  1.2552000  3
    969    966    972    976     1  180.0000771  2.0083200  2
    969    966    972    976     1  0.0000000  1.2552000  3
    972    966    969    989     1  0.0000000  0.6508444  3
    972    973    982    986     1  0.0000000  0.6508444  3
    972    976    979    985     1  0.0000000  0.6508444  3
    973    972    976    979     1  180.0000771  2.0083200  2
    973    972    976    979     1  0.0000000  1.2552000  3
    973    982    986    988     1  180.0000771  0.0000000  2
    973    982    986   2928     1  0.0000000  0.2928800  2
    973    982    986   2928     1  0.0000000  0.4184000  4
    976    972    973    982     1  180.0000771  2.0083200  2
    976    972    973    982     1  0.0000000  1.2552000  3
    976    979    985   2855     1  0.0000000  0.2928800  2
    976    979    985   2855     1  0.0000000  0.4184000  4
    976    979    985    987     1  180.0000771  0.0000000  2
    979    985   2855   2857     1  180.0000771  6.2760000  1
    979    985   2855   2857     1  0.0000000  0.0000000  2
    982    986   2928   2930     1  180.0000771  6.2760000  1
    982    986   2928   2930     1  0.0000000  0.0000000  2
    985   2855   2857   2859     1  0.0000000  2.2175200  1
    985   2855   2857   2859     1  0.0000000  0.0000000  2
    985   2855   2857   2859     1  180.0000771  0.6276000  3
    985   2855   2857   2859     1  180.0000771  2.0920000  4
    986   2928   2930   2932     1  0.0000000  2.2175200  1
    986   2928   2930   2932     1  0.0000000  0.0000000  2
    986   2928   2930   2932     1  180.0000771  0.6276000  3
    986   2928   2930   2932     1  180.0000771  2.0920000  4
    987    985   2855   2857     1  180.0000771  10.4600000  2
    988    986   2928   2930     1  180.0000771  10.4600000  2
    991    997    998   1007     1  180.0000771  2.0083200  2
    991    997    998   1007     1  0.0000000  1.2552000  3
    991    997   1001   1004     1  180.0000771  2.0083200  2
    991    997   1001   1004     1  0.0000000  1.2552000  3
    994    991    997    998     1  180.0000771  2.0083200  2
    994    991    997    998     1  0.0000000  1.2552000  3
    994    991    997   1001     1  180.0000771  2.0083200  2
    994    991    997   1001     1  0.0000000  1.2552000  3
    997    991    994   1014     1  0.0000000  0.6508444  3
    997    998   1007   1011     1  0.0000000  0.6508444  3
    997   1001   1004   1010     1  0.0000000  0.6508444  3
    998    997   1001   1004     1  180.0000771  2.0083200  2
    998    997   1001   1004     1  0.0000000  1.2552000  3
    998   1007   1011   1013     1  180.0000771  0.0000000  2
    998   1007   1011   3074     1  0.0000000  0.2928800  2
    998   1007   1011   3074     1  0.0000000  0.4184000  4
   1001    997    998   1007     1  180.0000771  2.0083200  2
   1001    997    998   1007     1  0.0000000  1.2552000  3
   1001   1004   1010   3001     1  0.0000000  0.2928800  2
   1001   1004   1010   3001     1  0.0000000  0.4184000  4
   1001   1004   1010   1012     1  180.0000771  0.0000000  2
   1004   1010   3001   3003     1  180.0000771  6.2760000  1
   1004   1010   3001   3003     1  0.0000000  0.0000000  2
   1007   1011   3074   3076     1  180.0000771  6.2760000  1
   1007   1011   3074   3076     1  0.0000000  0.0000000  2
   1010   3001   3003   3005     1  0.0000000  2.2175200  1
   1010   3001   3003   3005     1  0.0000000  0.0000000  2
   1010   3001   3003   3005     1  180.0000771  0.6276000  3
   1010   3001   3003   3005     1  180.0000771  2.0920000  4
   1011   3074   3076   3078     1  0.0000000  2.2175200  1
   1011   3074   3076   3078     1  0.0000000  0.0000000  2
   1011   3074   3076   3078     1  180.0000771  0.6276000  3
   1011   3074   3076   3078     1  180.0000771  2.0920000  4
   1012   1010   3001   3003     1  180.0000771  10.4600000  2
   1013   1011   3074   3076     1  180.0000771  10.4600000  2
   1016   1022   1023   1032     1  180.0000771  2.0083200  2
   1016   1022   1023   1032     1  0.0000000  1.2552000  3
   1016   1022   1026   1029     1  180.0000771  2.0083200  2
   1016   1022   1026   1029     1  0.0000000  1.2552000  3
   1019   1016   1022   1023     1  180.0000771  2.0083200  2
   1019   1016   1022   1023     1  0.0000000  1.2552000  3
   1019   1016   1022   1026     1  180.0000771  2.0083200  2
   1019   1016   1022   1026     1  0.0000000  1.2552000  3
   1022   1016   1019   1039     1  0.0000000  0.6508444  3
   1022   1023   1032   1036     1  0.0000000  0.6508444  3
   1022   1026   1029   1035     1  0.0000000  0.6508444  3
   1023   1022   1026   1029     1  180.0000771  2.0083200  2
   1023   1022   1026   1029     1  0.0000000  1.2552000  3
   1023   1032   1036   1038     1  180.0000771  0.0000000  2
   1023   1032   1036   3220     1  0.0000000  0.2928800  2
   1023   1032   1036   3220     1  0.0000000  0.4184000  4
   1026   1022   1023   1032     1  180.0000771  2.0083200  2
   1026   1022   1023   1032     1  0.0000000  1.2552000  3
   1026   1029   1035   3147     1  0.0000000  0.2928800  2
   1026   1029   1035   3147     1  0.0000000  0.4184000  4
   1026   1029   1035   1037     1  180.0000771  0.0000000  2
   1029   1035   3147   3149     1  180.0000771  6.2760000  1
   1029   1035   3147   3149     1  0.0000000  0.0000000  2
   1032   1036   3220   3222     1  180.0000771  6.2760000  1
   1032   1036   3220   3222     1  0.0000000  0.0000000  2
   1035   3147   3149   3151     1  0.0000000  2.2175200  1
   1035   3147   3149   3151     1  0.0000000  0.0000000  2
   1035   3147   3149   3151     1  180.0000771  0.6276000  3
   1035   3147   3149   3151     1  180.0000771  2.0920000  4
   1036   3220   3222   3224     1  0.0000000  2.2175200  1
   1036   3220   3222   3224     1  0.0000000  0.0000000  2
   1036   3220   3222   3224     1  180.0000771  0.6276000  3
   1036   3220   3222   3224     1  180.0000771  2.0920000  4
   1037   1035   3147   3149     1  180.0000771  10.4600000  2
   1038   1036   3220   3222     1  180.0000771  10.4600000  2
   1041   1047   1048   1057     1  180.0000771  2.0083200  2
   1041   1047   1048   1057     1  0.0000000  1.2552000  3
   1041   1047   1051   1054     1  180.0000771  2.0083200  2
   1041   1047   1051   1054     1  0.0000000  1.2552000  3
   1044   1041   1047   1048     1  180.0000771  2.0083200  2
   1044   1041   1047   1048     1  0.0000000  1.2552000  3
   1044   1041   1047   1051     1  180.0000771  2.0083200  2
   1044   1041   1047   1051     1  0.0000000  1.2552000  3
   1047   1041   1044   1064     1  0.0000000  0.6508444  3
   1047   1048   1057   1061     1  0.0000000  0.6508444  3
   1047   1051   1054   1060     1  0.0000000  0.6508444  3
   1048   1047   1051   1054     1  180.0000771  2.0083200  2
   1048   1047   1051   1054     1  0.0000000  1.2552000  3
   1048   1057   1061   1063     1  180.0000771  0.0000000  2
   1048   1057   1061   3366     1  0.0000000  0.2928800  2
   1048   1057   1061   3366     1  0.0000000  0.4184000  4
   1051   1047   1048   1057     1  180.0000771  2.0083200  2
   1051   1047   1048   1057     1  0.0000000  1.2552000  3
   1051   1054   1060   3293     1  0.0000000  0.2928800  2
   1051   1054   1060   3293     1  0.0000000  0.4184000  4
   1051   1054   1060   1062     1  180.0000771  0.0000000  2
   1054   1060   3293   3295     1  180.0000771  6.2760000  1
   1054   1060   3293   3295     1  0.0000000  0.0000000  2
   1057   1061   3366   3368     1  180.0000771  6.2760000  1
   1057   1061   3366   3368     1  0.0000000  0.0000000  2
   1060   3293   3295   3297     1  0.0000000  2.2175200  1
   1060   3293   3295   3297     1  0.0000000  0.0000000  2
   1060   3293   3295   3297     1  180.0000771  0.6276000  3
   1060   3293   3295   3297     1  180.0000771  2.0920000  4
   1061   3366   3368   3370     1  0.0000000  2.2175200  1
   1061   3366   3368   3370     1  0.0000000  0.0000000  2
   1061   3366   3368   3370     1  180.0000771  0.6276000  3
   1061   3366   3368   3370     1  180.0000771  2.0920000  4
   1062   1060   3293   3295     1  180.0000771  10.4600000  2
   1063   1061   3366   3368     1  180.0000771  10.4600000  2
   1066   1072   1073   1082     1  180.0000771  2.0083200  2
   1066   1072   1073   1082     1  0.0000000  1.2552000  3
   1066   1072   1076   1079     1  180.0000771  2.0083200  2
   1066   1072   1076   1079     1  0.0000000  1.2552000  3
   1069   1066   1072   1073     1  180.0000771  2.0083200  2
   1069   1066   1072   1073     1  0.0000000  1.2552000  3
   1069   1066   1072   1076     1  180.0000771  2.0083200  2
   1069   1066   1072   1076     1  0.0000000  1.2552000  3
   1072   1066   1069   1089     1  0.0000000  0.6508444  3
   1072   1073   1082   1086     1  0.0000000  0.6508444  3
   1072   1076   1079   1085     1  0.0000000  0.6508444  3
   1073   1072   1076   1079     1  180.0000771  2.0083200  2
   1073   1072   1076   1079     1  0.0000000  1.2552000  3
   1073   1082   1086   1088     1  180.0000771  0.0000000  2
   1073   1082   1086   3512     1  0.0000000  0.2928800  2
   1073   1082   1086   3512     1  0.0000000  0.4184000  4
   1076   1072   1073   1082     1  180.0000771  2.0083200  2
   1076   1072   1073   1082     1  0.0000000  1.2552000  3
   1076   1079   1085   3439     1  0.0000000  0.2928800  2
   1076   1079   1085   3439     1  0.0000000  0.4184000  4
   1076   1079   1085   1087     1  180.0000771  0.0000000  2
   1079   1085   3439   3441     1  180.0000771  6.2760000  1
   1079   1085   3439   3441     1  0.0000000  0.0000000  2
   1082   1086   3512   3514     1  180.0000771  6.2760000  1
   1082   1086   3512   3514     1  0.0000000  0.0000000  2
   1085   3439   3441   3443     1  0.0000000  2.2175200  1
   1085   3439   3441   3443     1  0.0000000  0.0000000  2
   1085   3439   3441   3443     1  180.0000771  0.6276000  3
   1085   3439   3441   3443     1  180.0000771  2.0920000  4
   1086   3512   3514   3516     1  0.0000000  2.2175200  1
   1086   3512   3514   3516     1  0.0000000  0.0000000  2
   1086   3512   3514   3516     1  180.0000771  0.6276000  3
   1086   3512   3514   3516     1  180.0000771  2.0920000  4
   1087   1085   3439   3441     1  180.0000771  10.4600000  2
   1088   1086   3512   3514     1  180.0000771  10.4600000  2
   1091   1097   1098   1107     1  180.0000771  2.0083200  2
   1091   1097   1098   1107     1  0.0000000  1.2552000  3
   1091   1097   1101   1104     1  180.0000771  2.0083200  2
   1091   1097   1101   1104     1  0.0000000  1.2552000  3
   1094   1091   1097   1098     1  180.0000771  2.0083200  2
   1094   1091   1097   1098     1  0.0000000  1.2552000  3
   1094   1091   1097   1101     1  180.0000771  2.0083200  2
   1094   1091   1097   1101     1  0.0000000  1.2552000  3
   1097   1091   1094   1114     1  0.0000000  0.6508444  3
   1097   1098   1107   1111     1  0.0000000  0.6508444  3
   1097   1101   1104   1110     1  0.0000000  0.6508444  3
   1098   1097   1101   1104     1  180.0000771  2.0083200  2
   1098   1097   1101   1104     1  0.0000000  1.2552000  3
   1098   1107   1111   1113     1  180.0000771  0.0000000  2
   1098   1107   1111   3658     1  0.0000000  0.2928800  2
   1098   1107   1111   3658     1  0.0000000  0.4184000  4
   1101   1097   1098   1107     1  180.0000771  2.0083200  2
   1101   1097   1098   1107     1  0.0000000  1.2552000  3
   1101   1104   1110   3585     1  0.0000000  0.2928800  2
   1101   1104   1110   3585     1  0.0000000  0.4184000  4
   1101   1104   1110   1112     1  180.0000771  0.0000000  2
   1104   1110   3585   3587     1  180.0000771  6.2760000  1
   1104   1110   3585   3587     1  0.0000000  0.0000000  2
   1107   1111   3658   3660     1  180.0000771  6.2760000  1
   1107   1111   3658   3660     1  0.0000000  0.0000000  2
   1110   3585   3587   3589     1  0.0000000  2.2175200  1
   1110   3585   3587   3589     1  0.0000000  0.0000000  2
   1110   3585   3587   3589     1  180.0000771  0.6276000  3
   1110   3585   3587   3589     1  180.0000771  2.0920000  4
   1111   3658   3660   3662     1  0.0000000  2.2175200  1
   1111   3658   3660   3662     1  0.0000000  0.0000000  2
   1111   3658   3660   3662     1  180.0000771  0.6276000  3
   1111   3658   3660   3662     1  180.0000771  2.0920000  4
   1112   1110   3585   3587     1  180.0000771  10.4600000  2
   1113   1111   3658   3660     1  180.0000771  10.4600000  2
   1116   1122   1123   1132     1  180.0000771  2.0083200  2
   1116   1122   1123   1132     1  0.0000000  1.2552000  3
   1116   1122   1126   1129     1  180.0000771  2.0083200  2
   1116   1122   1126   1129     1  0.0000000  1.2552000  3
   1119   1116   1122   1123     1  180.0000771  2.0083200  2
   1119   1116   1122   1123     1  0.0000000  1.2552000  3
   1119   1116   1122   1126     1  180.0000771  2.0083200  2
   1119   1116   1122   1126     1  0.0000000  1.2552000  3
   1122   1116   1119   1139     1  0.0000000  0.6508444  3
   1122   1123   1132   1136     1  0.0000000  0.6508444  3
   1122   1126   1129   1135     1  0.0000000  0.6508444  3
   1123   1122   1126   1129     1  180.0000771  2.0083200  2
   1123   1122   1126   1129     1  0.0000000  1.2552000  3
   1123   1132   1136   1138     1  180.0000771  0.0000000  2
   1123   1132   1136   3804     1  0.0000000  0.2928800  2
   1123   1132   1136   3804     1  0.0000000  0.4184000  4
   1126   1122   1123   1132     1  180.0000771  2.0083200  2
   1126   1122   1123   1132     1  0.0000000  1.2552000  3
   1126   1129   1135   3731     1  0.0000000  0.2928800  2
   1126   1129   1135   3731     1  0.0000000  0.4184000  4
   1126   1129   1135   1137     1  180.0000771  0.0000000  2
   1129   1135   3731   3733     1  180.0000771  6.2760000  1
   1129   1135   3731   3733     1  0.0000000  0.0000000  2
   1132   1136   3804   3806     1  180.0000771  6.2760000  1
   1132   1136   3804   3806     1  0.0000000  0.0000000  2
   1135   3731   3733   3735     1  0.0000000  2.2175200  1
   1135   3731   3733   3735     1  0.0000000  0.0000000  2
   1135   3731   3733   3735     1  180.0000771  0.6276000  3
   1135   3731   3733   3735     1  180.0000771  2.0920000  4
   1136   3804   3806   3808     1  0.0000000  2.2175200  1
   1136   3804   3806   3808     1  0.0000000  0.0000000  2
   1136   3804   3806   3808     1  180.0000771  0.6276000  3
   1136   3804   3806   3808     1  180.0000771  2.0920000  4
   1137   1135   3731   3733     1  180.0000771  10.4600000  2
   1138   1136   3804   3806     1  180.0000771  10.4600000  2
   1141   1147   1148   1157     1  180.0000771  2.0083200  2
   1141   1147   1148   1157     1  0.0000000  1.2552000  3
   1141   1147   1151   1154     1  180.0000771  2.0083200  2
   1141   1147   1151   1154     1  0.0000000  1.2552000  3
   1144   1141   1147   1148     1  180.0000771  2.0083200  2
   1144   1141   1147   1148     1  0.0000000  1.2552000  3
   1144   1141   1147   1151     1  180.0000771  2.0083200  2
   1144   1141   1147   1151     1  0.0000000  1.2552000  3
   1147   1141   1144   1164     1  0.0000000  0.6508444  3
   1147   1148   1157   1161     1  0.0000000  0.6508444  3
   1147   1151   1154   1160     1  0.0000000  0.6508444  3
   1148   1147   1151   1154     1  180.0000771  2.0083200  2
   1148   1147   1151   1154     1  0.0000000  1.2552000  3
   1148   1157   1161   1163     1  180.0000771  0.0000000  2
   1148   1157   1161   3950     1  0.0000000  0.2928800  2
   1148   1157   1161   3950     1  0.0000000  0.4184000  4
   1151   1147   1148   1157     1  180.0000771  2.0083200  2
   1151   1147   1148   1157     1  0.0000000  1.2552000  3
   1151   1154   1160   3877     1  0.0000000  0.2928800  2
   1151   1154   1160   3877     1  0.0000000  0.4184000  4
   1151   1154   1160   1162     1  180.0000771  0.0000000  2
   1154   1160   3877   3879     1  180.0000771  6.2760000  1
   1154   1160   3877   3879     1  0.0000000  0.0000000  2
   1157   1161   3950   3952     1  180.0000771  6.2760000  1
   1157   1161   3950   3952     1  0.0000000  0.0000000  2
   1160   3877   3879   3881     1  0.0000000  2.2175200  1
   1160   3877   3879   3881     1  0.0000000  0.0000000  2
   1160   3877   3879   3881     1  180.0000771  0.6276000  3
   1160   3877   3879   3881     1  180.0000771  2.0920000  4
   1161   3950   3952   3954     1  0.0000000  2.2175200  1
   1161   3950   3952   3954     1  0.0000000  0.0000000  2
   1161   3950   3952   3954     1  180.0000771  0.6276000  3
   1161   3950   3952   3954     1  180.0000771  2.0920000  4
   1162   1160   3877   3879     1  180.0000771  10.4600000  2
   1163   1161   3950   3952     1  180.0000771  10.4600000  2
   1166   1172   1173   1182     1  180.0000771  2.0083200  2
   1166   1172   1173   1182     1  0.0000000  1.2552000  3
   1166   1172   1176   1179     1  180.0000771  2.0083200  2
   1166   1172   1176   1179     1  0.0000000  1.2552000  3
   1169   1166   1172   1173     1  180.0000771  2.0083200  2
   1169   1166   1172   1173     1  0.0000000  1.2552000  3
   1169   1166   1172   1176     1  180.0000771  2.0083200  2
   1169   1166   1172   1176     1  0.0000000  1.2552000  3
   1172   1166   1169   1189     1  0.0000000  0.6508444  3
   1172   1173   1182   1186     1  0.0000000  0.6508444  3
   1172   1176   1179   1185     1  0.0000000  0.6508444  3
   1173   1172   1176   1179     1  180.0000771  2.0083200  2
   1173   1172   1176   1179     1  0.0000000  1.2552000  3
   1173   1182   1186   1188     1  180.0000771  0.0000000  2
   1173   1182   1186   4096     1  0.0000000  0.2928800  2
   1173   1182   1186   4096     1  0.0000000  0.4184000  4
   1176   1172   1173   1182     1  180.0000771  2.0083200  2
   1176   1172   1173   1182     1  0.0000000  1.2552000  3
   1176   1179   1185   4023     1  0.0000000  0.2928800  2
   1176   1179   1185   4023     1  0.0000000  0.4184000  4
   1176   1179   1185   1187     1  180.0000771  0.0000000  2
   1179   1185   4023   4025     1  180.0000771  6.2760000  1
   1179   1185   4023   4025     1  0.0000000  0.0000000  2
   1182   1186   4096   4098     1  180.0000771  6.2760000  1
   1182   1186   4096   4098     1  0.0000000  0.0000000  2
   1185   4023   4025   4027     1  0.0000000  2.2175200  1
   1185   4023   4025   4027     1  0.0000000  0.0000000  2
   1185   4023   4025   4027     1  180.0000771  0.6276000  3
   1185   4023   4025   4027     1  180.0000771  2.0920000  4
   1186   4096   4098   4100     1  0.0000000  2.2175200  1
   1186   4096   4098   4100     1  0.0000000  0.0000000  2
   1186   4096   4098   4100     1  180.0000771  0.6276000  3
   1186   4096   4098   4100     1  180.0000771  2.0920000  4
   1187   1185   4023   4025     1  180.0000771  10.4600000  2
   1188   1186   4096   4098     1  180.0000771  10.4600000  2
   1191   1197   1198   1207     1  180.0000771  2.0083200  2
   1191   1197   1198   1207     1  0.0000000  1.2552000  3
   1191   1197   1201   1204     1  180.0000771  2.0083200  2
   1191   1197   1201   1204     1  0.0000000  1.2552000  3
   1194   1191   1197   1198     1  180.0000771  2.0083200  2
   1194   1191   1197   1198     1  0.0000000  1.2552000  3
   1194   1191   1197   1201     1  180.0000771  2.0083200  2
   1194   1191   1197   1201     1  0.0000000  1.2552000  3
   1197   1191   1194   1214     1  0.0000000  0.6508444  3
   1197   1198   1207   1211     1  0.0000000  0.6508444  3
   1197   1201   1204   1210     1  0.0000000  0.6508444  3
   1198   1197   1201   1204     1  180.0000771  2.0083200  2
   1198   1197   1201   1204     1  0.0000000  1.2552000  3
   1198   1207   1211   1213     1  180.0000771  0.0000000  2
   1198   1207   1211   4242     1  0.0000000  0.2928800  2
   1198   1207   1211   4242     1  0.0000000  0.4184000  4
   1201   1197   1198   1207     1  180.0000771  2.0083200  2
   1201   1197   1198   1207     1  0.0000000  1.2552000  3
   1201   1204   1210   4169     1  0.0000000  0.2928800  2
   1201   1204   1210   4169     1  0.0000000  0.4184000  4
   1201   1204   1210   1212     1  180.0000771  0.0000000  2
   1204   1210   4169   4171     1  180.0000771  6.2760000  1
   1204   1210   4169   4171     1  0.0000000  0.0000000  2
   1207   1211   4242   4244     1  180.0000771  6.2760000  1
   1207   1211   4242   4244     1  0.0000000  0.0000000  2
   1210   4169   4171   4173     1  0.0000000  2.2175200  1
   1210   4169   4171   4173     1  0.0000000  0.0000000  2
   1210   4169   4171   4173     1  180.0000771  0.6276000  3
   1210   4169   4171   4173     1  180.0000771  2.0920000  4
   1211   4242   4244   4246     1  0.0000000  2.2175200  1
   1211   4242   4244   4246     1  0.0000000  0.0000000  2
   1211   4242   4244   4246     1  180.0000771  0.6276000  3
   1211   4242   4244   4246     1  180.0000771  2.0920000  4
   1212   1210   4169   4171     1  180.0000771  10.4600000  2
   1213   1211   4242   4244     1  180.0000771  10.4600000  2
   1216   1222   1223   1232     1  180.0000771  2.0083200  2
   1216   1222   1223   1232     1  0.0000000  1.2552000  3
   1216   1222   1226   1229     1  180.0000771  2.0083200  2
   1216   1222   1226   1229     1  0.0000000  1.2552000  3
   1219   1216   1222   1223     1  180.0000771  2.0083200  2
   1219   1216   1222   1223     1  0.0000000  1.2552000  3
   1219   1216   1222   1226     1  180.0000771  2.0083200  2
   1219   1216   1222   1226     1  0.0000000  1.2552000  3
   1222   1216   1219   1239     1  0.0000000  0.6508444  3
   1222   1223   1232   1236     1  0.0000000  0.6508444  3
   1222   1226   1229   1235     1  0.0000000  0.6508444  3
   1223   1222   1226   1229     1  180.0000771  2.0083200  2
   1223   1222   1226   1229     1  0.0000000  1.2552000  3
   1223   1232   1236   1238     1  180.0000771  0.0000000  2
   1223   1232   1236   4388     1  0.0000000  0.2928800  2
   1223   1232   1236   4388     1  0.0000000  0.4184000  4
   1226   1222   1223   1232     1  180.0000771  2.0083200  2
   1226   1222   1223   1232     1  0.0000000  1.2552000  3
   1226   1229   1235   4315     1  0.0000000  0.2928800  2
   1226   1229   1235   4315     1  0.0000000  0.4184000  4
   1226   1229   1235   1237     1  180.0000771  0.0000000  2
   1229   1235   4315   4317     1  180.0000771  6.2760000  1
   1229   1235   4315   4317     1  0.0000000  0.0000000  2
   1232   1236   4388   4390     1  180.0000771  6.2760000  1
   1232   1236   4388   4390     1  0.0000000  0.0000000  2
   1235   4315   4317   4319     1  0.0000000  2.2175200  1
   1235   4315   4317   4319     1  0.0000000  0.0000000  2
   1235   4315   4317   4319     1  180.0000771  0.6276000  3
   1235   4315   4317   4319     1  180.0000771  2.0920000  4
   1236   4388   4390   4392     1  0.0000000  2.2175200  1
   1236   4388   4390   4392     1  0.0000000  0.0000000  2
   1236   4388   4390   4392     1  180.0000771  0.6276000  3
   1236   4388   4390   4392     1  180.0000771  2.0920000  4
   1237   1235   4315   4317     1  180.0000771  10.4600000  2
   1238   1236   4388   4390     1  180.0000771  10.4600000  2
   1241   1247   1248   1257     1  180.0000771  2.0083200  2
   1241   1247   1248   1257     1  0.0000000  1.2552000  3
   1241   1247   1251   1254     1  180.0000771  2.0083200  2
   1241   1247   1251   1254     1  0.0000000  1.2552000  3
   1244   1241   1247   1248     1  180.0000771  2.0083200  2
   1244   1241   1247   1248     1  0.0000000  1.2552000  3
   1244   1241   1247   1251     1  180.0000771  2.0083200  2
   1244   1241   1247   1251     1  0.0000000  1.2552000  3
   1247   1241   1244   1264     1  0.0000000  0.6508444  3
   1247   1248   1257   1261     1  0.0000000  0.6508444  3
   1247   1251   1254   1260     1  0.0000000  0.6508444  3
   1248   1247   1251   1254     1  180.0000771  2.0083200  2
   1248   1247   1251   1254     1  0.0000000  1.2552000  3
   1248   1257   1261   1263     1  180.0000771  0.0000000  2
   1248   1257   1261   4534     1  0.0000000  0.2928800  2
   1248   1257   1261   4534     1  0.0000000  0.4184000  4
   1251   1247   1248   1257     1  180.0000771  2.0083200  2
   1251   1247   1248   1257     1  0.0000000  1.2552000  3
   1251   1254   1260   4461     1  0.0000000  0.2928800  2
   1251   1254   1260   4461     1  0.0000000  0.4184000  4
   1251   1254   1260   1262     1  180.0000771  0.0000000  2
   1254   1260   4461   4463     1  180.0000771  6.2760000  1
   1254   1260   4461   4463     1  0.0000000  0.0000000  2
   1257   1261   4534   4536     1  180.0000771  6.2760000  1
   1257   1261   4534   4536     1  0.0000000  0.0000000  2
   1260   4461   4463   4465     1  0.0000000  2.2175200  1
   1260   4461   4463   4465     1  0.0000000  0.0000000  2
   1260   4461   4463   4465     1  180.0000771  0.6276000  3
   1260   4461   4463   4465     1  180.0000771  2.0920000  4
   1261   4534   4536   4538     1  0.0000000  2.2175200  1
   1261   4534   4536   4538     1  0.0000000  0.0000000  2
   1261   4534   4536   4538     1  180.0000771  0.6276000  3
   1261   4534   4536   4538     1  180.0000771  2.0920000  4
   1262   1260   4461   4463     1  180.0000771  10.4600000  2
   1263   1261   4534   4536     1  180.0000771  10.4600000  2
   1266   1272   1273   1282     1  180.0000771  2.0083200  2
   1266   1272   1273   1282     1  0.0000000  1.2552000  3
   1266   1272   1276   1279     1  180.0000771  2.0083200  2
   1266   1272   1276   1279     1  0.0000000  1.2552000  3
   1269   1266   1272   1273     1  180.0000771  2.0083200  2
   1269   1266   1272   1273     1  0.0000000  1.2552000  3
   1269   1266   1272   1276     1  180.0000771  2.0083200  2
   1269   1266   1272   1276     1  0.0000000  1.2552000  3
   1272   1266   1269   1289     1  0.0000000  0.6508444  3
   1272   1273   1282   1286     1  0.0000000  0.6508444  3
   1272   1276   1279   1285     1  0.0000000  0.6508444  3
   1273   1272   1276   1279     1  180.0000771  2.0083200  2
   1273   1272   1276   1279     1  0.0000000  1.2552000  3
   1273   1282   1286   1288     1  180.0000771  0.0000000  2
   1273   1282   1286   4680     1  0.0000000  0.2928800  2
   1273   1282   1286   4680     1  0.0000000  0.4184000  4
   1276   1272   1273   1282     1  180.0000771  2.0083200  2
   1276   1272   1273   1282     1  0.0000000  1.2552000  3
   1276   1279   1285   4607     1  0.0000000  0.2928800  2
   1276   1279   1285   4607     1  0.0000000  0.4184000  4
   1276   1279   1285   1287     1  180.0000771  0.0000000  2
   1279   1285   4607   4609     1  180.0000771  6.2760000  1
   1279   1285   4607   4609     1  0.0000000  0.0000000  2
   1282   1286   4680   4682     1  180.0000771  6.2760000  1
   1282   1286   4680   4682     1  0.0000000  0.0000000  2
   1285   4607   4609   4611     1  0.0000000  2.2175200  1
   1285   4607   4609   4611     1  0.0000000  0.0000000  2
   1285   4607   4609   4611     1  180.0000771  0.6276000  3
   1285   4607   4609   4611     1  180.0000771  2.0920000  4
   1286   4680   4682   4684     1  0.0000000  2.2175200  1
   1286   4680   4682   4684     1  0.0000000  0.0000000  2
   1286   4680   4682   4684     1  180.0000771  0.6276000  3
   1286   4680   4682   4684     1  180.0000771  2.0920000  4
   1287   1285   4607   4609     1  180.0000771  10.4600000  2
   1288   1286   4680   4682     1  180.0000771  10.4600000  2
   1291   1297   1298   1307     1  180.0000771  2.0083200  2
   1291   1297   1298   1307     1  0.0000000  1.2552000  3
   1291   1297   1301   1304     1  180.0000771  2.0083200  2
   1291   1297   1301   1304     1  0.0000000  1.2552000  3
   1294   1291   1297   1298     1  180.0000771  2.0083200  2
   1294   1291   1297   1298     1  0.0000000  1.2552000  3
   1294   1291   1297   1301     1  180.0000771  2.0083200  2
   1294   1291   1297   1301     1  0.0000000  1.2552000  3
   1297   1291   1294   1314     1  0.0000000  0.6508444  3
   1297   1298   1307   1311     1  0.0000000  0.6508444  3
   1297   1301   1304   1310     1  0.0000000  0.6508444  3
   1298   1297   1301   1304     1  180.0000771  2.0083200  2
   1298   1297   1301   1304     1  0.0000000  1.2552000  3
   1298   1307   1311   1313     1  180.0000771  0.0000000  2
   1298   1307   1311   4826     1  0.0000000  0.2928800  2
   1298   1307   1311   4826     1  0.0000000  0.4184000  4
   1301   1297   1298   1307     1  180.0000771  2.0083200  2
   1301   1297   1298   1307     1  0.0000000  1.2552000  3
   1301   1304   1310   4753     1  0.0000000  0.2928800  2
   1301   1304   1310   4753     1  0.0000000  0.4184000  4
   1301   1304   1310   1312     1  180.0000771  0.0000000  2
   1304   1310   4753   4755     1  180.0000771  6.2760000  1
   1304   1310   4753   4755     1  0.0000000  0.0000000  2
   1307   1311   4826   4828     1  180.0000771  6.2760000  1
   1307   1311   4826   4828     1  0.0000000  0.0000000  2
   1310   4753   4755   4757     1  0.0000000  2.2175200  1
   1310   4753   4755   4757     1  0.0000000  0.0000000  2
   1310   4753   4755   4757     1  180.0000771  0.6276000  3
   1310   4753   4755   4757     1  180.0000771  2.0920000  4
   1311   4826   4828   4830     1  0.0000000  2.2175200  1
   1311   4826   4828   4830     1  0.0000000  0.0000000  2
   1311   4826   4828   4830     1  180.0000771  0.6276000  3
   1311   4826   4828   4830     1  180.0000771  2.0920000  4
   1312   1310   4753   4755     1  180.0000771  10.4600000  2
   1313   1311   4826   4828     1  180.0000771  10.4600000  2
   1316   1322   1323   1332     1  180.0000771  2.0083200  2
   1316   1322   1323   1332     1  0.0000000  1.2552000  3
   1316   1322   1326   1329     1  180.0000771  2.0083200  2
   1316   1322   1326   1329     1  0.0000000  1.2552000  3
   1319   1316   1322   1323     1  180.0000771  2.0083200  2
   1319   1316   1322   1323     1  0.0000000  1.2552000  3
   1319   1316   1322   1326     1  180.0000771  2.0083200  2
   1319   1316   1322   1326     1  0.0000000  1.2552000  3
   1322   1316   1319   1339     1  0.0000000  0.6508444  3
   1322   1323   1332   1336     1  0.0000000  0.6508444  3
   1322   1326   1329   1335     1  0.0000000  0.6508444  3
   1323   1322   1326   1329     1  180.0000771  2.0083200  2
   1323   1322   1326   1329     1  0.0000000  1.2552000  3
   1323   1332   1336   1338     1  180.0000771  0.0000000  2
   1323   1332   1336   4972     1  0.0000000  0.2928800  2
   1323   1332   1336   4972     1  0.0000000  0.4184000  4
   1326   1322   1323   1332     1  180.0000771  2.0083200  2
   1326   1322   1323   1332     1  0.0000000  1.2552000  3
   1326   1329   1335   4899     1  0.0000000  0.2928800  2
   1326   1329   1335   4899     1  0.0000000  0.4184000  4
   1326   1329   1335   1337     1  180.0000771  0.0000000  2
   1329   1335   4899   4901     1  180.0000771  6.2760000  1
   1329   1335   4899   4901     1  0.0000000  0.0000000  2
   1332   1336   4972   4974     1  180.0000771  6.2760000  1
   1332   1336   4972   4974     1  0.0000000  0.0000000  2
   1335   4899   4901   4903     1  0.0000000  2.2175200  1
   1335   4899   4901   4903     1  0.0000000  0.0000000  2
   1335   4899   4901   4903     1  180.0000771  0.6276000  3
   1335   4899   4901   4903     1  180.0000771  2.0920000  4
   1336   4972   4974   4976     1  0.0000000  2.2175200  1
   1336   4972   4974   4976     1  0.0000000  0.0000000  2
   1336   4972   4974   4976     1  180.0000771  0.6276000  3
   1336   4972   4974   4976     1  180.0000771  2.0920000  4
   1337   1335   4899   4901     1  180.0000771  10.4600000  2
   1338   1336   4972   4974     1  180.0000771  10.4600000  2
   1341   1347   1348   1357     1  180.0000771  2.0083200  2
   1341   1347   1348   1357     1  0.0000000  1.2552000  3
   1341   1347   1351   1354     1  180.0000771  2.0083200  2
   1341   1347   1351   1354     1  0.0000000  1.2552000  3
   1344   1341   1347   1348     1  180.0000771  2.0083200  2
   1344   1341   1347   1348     1  0.0000000  1.2552000  3
   1344   1341   1347   1351     1  180.0000771  2.0083200  2
   1344   1341   1347   1351     1  0.0000000  1.2552000  3
   1347   1341   1344   1364     1  0.0000000  0.6508444  3
   1347   1348   1357   1361     1  0.0000000  0.6508444  3
   1347   1351   1354   1360     1  0.0000000  0.6508444  3
   1348   1347   1351   1354     1  180.0000771  2.0083200  2
   1348   1347   1351   1354     1  0.0000000  1.2552000  3
   1348   1357   1361   1363     1  180.0000771  0.0000000  2
   1348   1357   1361   5118     1  0.0000000  0.2928800  2
   1348   1357   1361   5118     1  0.0000000  0.4184000  4
   1351   1347   1348   1357     1  180.0000771  2.0083200  2
   1351   1347   1348   1357     1  0.0000000  1.2552000  3
   1351   1354   1360   5045     1  0.0000000  0.2928800  2
   1351   1354   1360   5045     1  0.0000000  0.4184000  4
   1351   1354   1360   1362     1  180.0000771  0.0000000  2
   1354   1360   5045   5047     1  180.0000771  6.2760000  1
   1354   1360   5045   5047     1  0.0000000  0.0000000  2
   1357   1361   5118   5120     1  180.0000771  6.2760000  1
   1357   1361   5118   5120     1  0.0000000  0.0000000  2
   1360   5045   5047   5049     1  0.0000000  2.2175200  1
   1360   5045   5047   5049     1  0.0000000  0.0000000  2
   1360   5045   5047   5049     1  180.0000771  0.6276000  3
   1360   5045   5047   5049     1  180.0000771  2.0920000  4
   1361   5118   5120   5122     1  0.0000000  2.2175200  1
   1361   5118   5120   5122     1  0.0000000  0.0000000  2
   1361   5118   5120   5122     1  180.0000771  0.6276000  3
   1361   5118   5120   5122     1  180.0000771  2.0920000  4
   1362   1360   5045   5047     1  180.0000771  10.4600000  2
   1363   1361   5118   5120     1  180.0000771  10.4600000  2
   1366   1372   1373   1382     1  180.0000771  2.0083200  2
   1366   1372   1373   1382     1  0.0000000  1.2552000  3
   1366   1372   1376   1379     1  180.0000771  2.0083200  2
   1366   1372   1376   1379     1  0.0000000  1.2552000  3
   1369   1366   1372   1373     1  180.0000771  2.0083200  2
   1369   1366   1372   1373     1  0.0000000  1.2552000  3
   1369   1366   1372   1376     1  180.0000771  2.0083200  2
   1369   1366   1372   1376     1  0.0000000  1.2552000  3
   1372   1366   1369   1389     1  0.0000000  0.6508444  3
   1372   1373   1382   1386     1  0.0000000  0.6508444  3
   1372   1376   1379   1385     1  0.0000000  0.6508444  3
   1373   1372   1376   1379     1  180.0000771  2.0083200  2
   1373   1372   1376   1379     1  0.0000000  1.2552000  3
   1373   1382   1386   1388     1  180.0000771  0.0000000  2
   1373   1382   1386   5264     1  0.0000000  0.2928800  2
   1373   1382   1386   5264     1  0.0000000  0.4184000  4
   1376   1372   1373   1382     1  180.0000771  2.0083200  2
   1376   1372   1373   1382     1  0.0000000  1.2552000  3
   1376   1379   1385   5191     1  0.0000000  0.2928800  2
   1376   1379   1385   5191     1  0.0000000  0.4184000  4
   1376   1379   1385   1387     1  180.0000771  0.0000000  2
   1379   1385   5191   5193     1  180.0000771  6.2760000  1
   1379   1385   5191   5193     1  0.0000000  0.0000000  2
   1382   1386   5264   5266     1  180.0000771  6.2760000  1
   1382   1386   5264   5266     1  0.0000000  0.0000000  2
   1385   5191   5193   5195     1  0.0000000  2.2175200  1
   1385   5191   5193   5195     1  0.0000000  0.0000000  2
   1385   5191   5193   5195     1  180.0000771  0.6276000  3
   1385   5191   5193   5195     1  180.0000771  2.0920000  4
   1386   5264   5266   5268     1  0.0000000  2.2175200  1
   1386   5264   5266   5268     1  0.0000000  0.0000000  2
   1386   5264   5266   5268     1  180.0000771  0.6276000  3
   1386   5264   5266   5268     1  180.0000771  2.0920000  4
   1387   1385   5191   5193     1  180.0000771  10.4600000  2
   1388   1386   5264   5266     1  180.0000771  10.4600000  2
   1391   1397   1398   1407     1  180.0000771  2.0083200  2
   1391   1397   1398   1407     1  0.0000000  1.2552000  3
   1391   1397   1401   1404     1  180.0000771  2.0083200  2
   1391   1397   1401   1404     1  0.0000000  1.2552000  3
   1394   1391   1397   1398     1  180.0000771  2.0083200  2
   1394   1391   1397   1398     1  0.0000000  1.2552000  3
   1394   1391   1397   1401     1  180.0000771  2.0083200  2
   1394   1391   1397   1401     1  0.0000000  1.2552000  3
   1397   1391   1394   1414     1  0.0000000  0.6508444  3
   1397   1398   1407   1411     1  0.0000000  0.6508444  3
   1397   1401   1404   1410     1  0.0000000  0.6508444  3
   1398   1397   1401   1404     1  180.0000771  2.0083200  2
   1398   1397   1401   1404     1  0.0000000  1.2552000  3
   1398   1407   1411   1413     1  180.0000771  0.0000000  2
   1398   1407   1411   5410     1  0.0000000  0.2928800  2
   1398   1407   1411   5410     1  0.0000000  0.4184000  4
   1401   1397   1398   1407     1  180.0000771  2.0083200  2
   1401   1397   1398   1407     1  0.0000000  1.2552000  3
   1401   1404   1410   5337     1  0.0000000  0.2928800  2
   1401   1404   1410   5337     1  0.0000000  0.4184000  4
   1401   1404   1410   1412     1  180.0000771  0.0000000  2
   1404   1410   5337   5339     1  180.0000771  6.2760000  1
   1404   1410   5337   5339     1  0.0000000  0.0000000  2
   1407   1411   5410   5412     1  180.0000771  6.2760000  1
   1407   1411   5410   5412     1  0.0000000  0.0000000  2
   1410   5337   5339   5341     1  0.0000000  2.2175200  1
   1410   5337   5339   5341     1  0.0000000  0.0000000  2
   1410   5337   5339   5341     1  180.0000771  0.6276000  3
   1410   5337   5339   5341     1  180.0000771  2.0920000  4
   1411   5410   5412   5414     1  0.0000000  2.2175200  1
   1411   5410   5412   5414     1  0.0000000  0.0000000  2
   1411   5410   5412   5414     1  180.0000771  0.6276000  3
   1411   5410   5412   5414     1  180.0000771  2.0920000  4
   1412   1410   5337   5339     1  180.0000771  10.4600000  2
   1413   1411   5410   5412     1  180.0000771  10.4600000  2
   1416   1422   1423   1432     1  180.0000771  2.0083200  2
   1416   1422   1423   1432     1  0.0000000  1.2552000  3
   1416   1422   1426   1429     1  180.0000771  2.0083200  2
   1416   1422   1426   1429     1  0.0000000  1.2552000  3
   1419   1416   1422   1423     1  180.0000771  2.0083200  2
   1419   1416   1422   1423     1  0.0000000  1.2552000  3
   1419   1416   1422   1426     1  180.0000771  2.0083200  2
   1419   1416   1422   1426     1  0.0000000  1.2552000  3
   1422   1416   1419   1439     1  0.0000000  0.6508444  3
   1422   1423   1432   1436     1  0.0000000  0.6508444  3
   1422   1426   1429   1435     1  0.0000000  0.6508444  3
   1423   1422   1426   1429     1  180.0000771  2.0083200  2
   1423   1422   1426   1429     1  0.0000000  1.2552000  3
   1423   1432   1436   1438     1  180.0000771  0.0000000  2
   1423   1432   1436   5556     1  0.0000000  0.2928800  2
   1423   1432   1436   5556     1  0.0000000  0.4184000  4
   1426   1422   1423   1432     1  180.0000771  2.0083200  2
   1426   1422   1423   1432     1  0.0000000  1.2552000  3
   1426   1429   1435   5483     1  0.0000000  0.2928800  2
   1426   1429   1435   5483     1  0.0000000  0.4184000  4
   1426   1429   1435   1437     1  180.0000771  0.0000000  2
   1429   1435   5483   5485     1  180.0000771  6.2760000  1
   1429   1435   5483   5485     1  0.0000000  0.0000000  2
   1432   1436   5556   5558     1  180.0000771  6.2760000  1
   1432   1436   5556   5558     1  0.0000000  0.0000000  2
   1435   5483   5485   5487     1  0.0000000  2.2175200  1
   1435   5483   5485   5487     1  0.0000000  0.0000000  2
   1435   5483   5485   5487     1  180.0000771  0.6276000  3
   1435   5483   5485   5487     1  180.0000771  2.0920000  4
   1436   5556   5558   5560     1  0.0000000  2.2175200  1
   1436   5556   5558   5560     1  0.0000000  0.0000000  2
   1436   5556   5558   5560     1  180.0000771  0.6276000  3
   1436   5556   5558   5560     1  180.0000771  2.0920000  4
   1437   1435   5483   5485     1  180.0000771  10.4600000  2
   1438   1436   5556   5558     1  180.0000771  10.4600000  2
   1441   1447   1448   1457     1  180.0000771  2.0083200  2
   1441   1447   1448   1457     1  0.0000000  1.2552000  3
   1441   1447   1451   1454     1  180.0000771  2.0083200  2
   1441   1447   1451   1454     1  0.0000000  1.2552000  3
   1444   1441   1447   1448     1  180.0000771  2.0083200  2
   1444   1441   1447   1448     1  0.0000000  1.2552000  3
   1444   1441   1447   1451     1  180.0000771  2.0083200  2
   1444   1441   1447   1451     1  0.0000000  1.2552000  3
   1447   1441   1444   1464     1  0.0000000  0.6508444  3
   1447   1448   1457   1461     1  0.0000000  0.6508444  3
   1447   1451   1454   1460     1  0.0000000  0.6508444  3
   1448   1447   1451   1454     1  180.0000771  2.0083200  2
   1448   1447   1451   1454     1  0.0000000  1.2552000  3
   1448   1457   1461   1463     1  180.0000771  0.0000000  2
   1448   1457   1461   5702     1  0.0000000  0.2928800  2
   1448   1457   1461   5702     1  0.0000000  0.4184000  4
   1451   1447   1448   1457     1  180.0000771  2.0083200  2
   1451   1447   1448   1457     1  0.0000000  1.2552000  3
   1451   1454   1460   5629     1  0.0000000  0.2928800  2
   1451   1454   1460   5629     1  0.0000000  0.4184000  4
   1451   1454   1460   1462     1  180.0000771  0.0000000  2
   1454   1460   5629   5631     1  180.0000771  6.2760000  1
   1454   1460   5629   5631     1  0.0000000  0.0000000  2
   1457   1461   5702   5704     1  180.0000771  6.2760000  1
   1457   1461   5702   5704     1  0.0000000  0.0000000  2
   1460   5629   5631   5633     1  0.0000000  2.2175200  1
   1460   5629   5631   5633     1  0.0000000  0.0000000  2
   1460   5629   5631   5633     1  180.0000771  0.6276000  3
   1460   5629   5631   5633     1  180.0000771  2.0920000  4
   1461   5702   5704   5706     1  0.0000000  2.2175200  1
   1461   5702   5704   5706     1  0.0000000  0.0000000  2
   1461   5702   5704   5706     1  180.0000771  0.6276000  3
   1461   5702   5704   5706     1  180.0000771  2.0920000  4
   1462   1460   5629   5631     1  180.0000771  10.4600000  2
   1463   1461   5702   5704     1  180.0000771  10.4600000  2
   1466   1472   1473   1482     1  180.0000771  2.0083200  2
   1466   1472   1473   1482     1  0.0000000  1.2552000  3
   1466   1472   1476   1479     1  180.0000771  2.0083200  2
   1466   1472   1476   1479     1  0.0000000  1.2552000  3
   1469   1466   1472   1473     1  180.0000771  2.0083200  2
   1469   1466   1472   1473     1  0.0000000  1.2552000  3
   1469   1466   1472   1476     1  180.0000771  2.0083200  2
   1469   1466   1472   1476     1  0.0000000  1.2552000  3
   1472   1466   1469   1489     1  0.0000000  0.6508444  3
   1472   1473   1482   1486     1  0.0000000  0.6508444  3
   1472   1476   1479   1485     1  0.0000000  0.6508444  3
   1473   1472   1476   1479     1  180.0000771  2.0083200  2
   1473   1472   1476   1479     1  0.0000000  1.2552000  3
   1473   1482   1486   1488     1  180.0000771  0.0000000  2
   1473   1482   1486   5848     1  0.0000000  0.2928800  2
   1473   1482   1486   5848     1  0.0000000  0.4184000  4
   1476   1472   1473   1482     1  180.0000771  2.0083200  2
   1476   1472   1473   1482     1  0.0000000  1.2552000  3
   1476   1479   1485   5775     1  0.0000000  0.2928800  2
   1476   1479   1485   5775     1  0.0000000  0.4184000  4
   1476   1479   1485   1487     1  180.0000771  0.0000000  2
   1479   1485   5775   5777     1  180.0000771  6.2760000  1
   1479   1485   5775   5777     1  0.0000000  0.0000000  2
   1482   1486   5848   5850     1  180.0000771  6.2760000  1
   1482   1486   5848   5850     1  0.0000000  0.0000000  2
   1485   5775   5777   5779     1  0.0000000  2.2175200  1
   1485   5775   5777   5779     1  0.0000000  0.0000000  2
   1485   5775   5777   5779     1  180.0000771  0.6276000  3
   1485   5775   5777   5779     1  180.0000771  2.0920000  4
   1486   5848   5850   5852     1  0.0000000  2.2175200  1
   1486   5848   5850   5852     1  0.0000000  0.0000000  2
   1486   5848   5850   5852     1  180.0000771  0.6276000  3
   1486   5848   5850   5852     1  180.0000771  2.0920000  4
   1487   1485   5775   5777     1  180.0000771  10.4600000  2
   1488   1486   5848   5850     1  180.0000771  10.4600000  2
   1491   1497   1498   1507     1  180.0000771  2.0083200  2
   1491   1497   1498   1507     1  0.0000000  1.2552000  3
   1491   1497   1501   1504     1  180.0000771  2.0083200  2
   1491   1497   1501   1504     1  0.0000000  1.2552000  3
   1494   1491   1497   1498     1  180.0000771  2.0083200  2
   1494   1491   1497   1498     1  0.0000000  1.2552000  3
   1494   1491   1497   1501     1  180.0000771  2.0083200  2
   1494   1491   1497   1501     1  0.0000000  1.2552000  3
   1497   1491   1494   1514     1  0.0000000  0.6508444  3
   1497   1498   1507   1511     1  0.0000000  0.6508444  3
   1497   1501   1504   1510     1  0.0000000  0.6508444  3
   1498   1497   1501   1504     1  180.0000771  2.0083200  2
   1498   1497   1501   1504     1  0.0000000  1.2552000  3
   1498   1507   1511   1513     1  180.0000771  0.0000000  2
   1498   1507   1511   5994     1  0.0000000  0.2928800  2
   1498   1507   1511   5994     1  0.0000000  0.4184000  4
   1501   1497   1498   1507     1  180.0000771  2.0083200  2
   1501   1497   1498   1507     1  0.0000000  1.2552000  3
   1501   1504   1510   5921     1  0.0000000  0.2928800  2
   1501   1504   1510   5921     1  0.0000000  0.4184000  4
   1501   1504   1510   1512     1  180.0000771  0.0000000  2
   1504   1510   5921   5923     1  180.0000771  6.2760000  1
   1504   1510   5921   5923     1  0.0000000  0.0000000  2
   1507   1511   5994   5996     1  180.0000771  6.2760000  1
   1507   1511   5994   5996     1  0.0000000  0.0000000  2
   1510   5921   5923   5925     1  0.0000000  2.2175200  1
   1510   5921   5923   5925     1  0.0000000  0.0000000  2
   1510   5921   5923   5925     1  180.0000771  0.6276000  3
   1510   5921   5923   5925     1  180.0000771  2.0920000  4
   1511   5994   5996   5998     1  0.0000000  2.2175200  1
   1511   5994   5996   5998     1  0.0000000  0.0000000  2
   1511   5994   5996   5998     1  180.0000771  0.6276000  3
   1511   5994   5996   5998     1  180.0000771  2.0920000  4
   1512   1510   5921   5923     1  180.0000771  10.4600000  2
   1513   1511   5994   5996     1  180.0000771  10.4600000  2
   1516   1522   1523   1532     1  180.0000771  2.0083200  2
   1516   1522   1523   1532     1  0.0000000  1.2552000  3
   1516   1522   1526   1529     1  180.0000771  2.0083200  2
   1516   1522   1526   1529     1  0.0000000  1.2552000  3
   1519   1516   1522   1523     1  180.0000771  2.0083200  2
   1519   1516   1522   1523     1  0.0000000  1.2552000  3
   1519   1516   1522   1526     1  180.0000771  2.0083200  2
   1519   1516   1522   1526     1  0.0000000  1.2552000  3
   1522   1516   1519   1539     1  0.0000000  0.6508444  3
   1522   1523   1532   1536     1  0.0000000  0.6508444  3
   1522   1526   1529   1535     1  0.0000000  0.6508444  3
   1523   1522   1526   1529     1  180.0000771  2.0083200  2
   1523   1522   1526   1529     1  0.0000000  1.2552000  3
   1523   1532   1536   6140     1  0.0000000  0.2928800  2
   1523   1532   1536   6140     1  0.0000000  0.4184000  4
   1523   1532   1536   1538     1  180.0000771  0.0000000  2
   1526   1522   1523   1532     1  180.0000771  2.0083200  2
   1526   1522   1523   1532     1  0.0000000  1.2552000  3
   1526   1529   1535   6067     1  0.0000000  0.2928800  2
   1526   1529   1535   6067     1  0.0000000  0.4184000  4
   1526   1529   1535   1537     1  180.0000771  0.0000000  2
   1529   1535   6067   6069     1  180.0000771  6.2760000  1
   1529   1535   6067   6069     1  0.0000000  0.0000000  2
   1532   1536   6140   6142     1  180.0000771  6.2760000  1
   1532   1536   6140   6142     1  0.0000000  0.0000000  2
   1535   6067   6069   6071     1  0.0000000  2.2175200  1
   1535   6067   6069   6071     1  0.0000000  0.0000000  2
   1535   6067   6069   6071     1  180.0000771  0.6276000  3
   1535   6067   6069   6071     1  180.0000771  2.0920000  4
   1536   6140   6142   6144     1  0.0000000  2.2175200  1
   1536   6140   6142   6144     1  0.0000000  0.0000000  2
   1536   6140   6142   6144     1  180.0000771  0.6276000  3
   1536   6140   6142   6144     1  180.0000771  2.0920000  4
   1537   1535   6067   6069     1  180.0000771  10.4600000  2
   1538   1536   6140   6142     1  180.0000771  10.4600000  2
   1541   1543   1545   1549     1  0.0000000  0.6508444  3
   1543   1545   1549   1550     1  180.0000771  2.0083200  2
   1543   1545   1549   1550     1  0.0000000  1.2552000  3
   1543   1545   1549   1551     1  180.0000771  2.0083200  2
   1543   1545   1549   1551     1  0.0000000  1.2552000  3
   1545   1549   1550   1561     1  180.0000771  2.0083200  2
   1545   1549   1550   1561     1  0.0000000  1.2552000  3
   1545   1549   1551   1553     1  180.0000771  2.0083200  2
   1545   1549   1551   1553     1  0.0000000  1.2552000  3
   1549   1550   1561   1564     1  0.0000000  0.6508444  3
   1549   1551   1553   1557     1  0.0000000  0.6508444  3
   1550   1549   1551   1553     1  180.0000771  2.0083200  2
   1550   1549   1551   1553     1  0.0000000  1.2552000  3
   1550   1561   1564   1565     1  180.0000771  0.0000000  2
   1550   1561   1564   1613     1  180.0000771  0.0000000  2
   1551   1549   1550   1561     1  180.0000771  2.0083200  2
   1551   1549   1550   1561     1  0.0000000  1.2552000  3
   1551   1553   1557   1558     1  180.0000771  0.0000000  2
   1551   1553   1557   1589     1  180.0000771  0.0000000  2
   1553   1557   1589   1570     1  180.0000771  6.0668000  2
   1553   1557   1589   1570     1  180.0000771  1.4644000  4
   1557   1589   1570   1569     1  0.0000000  1.2552000  3
   1557   1589   1570   1571     1  0.0000000  1.2552000  3
   1558   1557   1589   1570     1  180.0000771  6.0668000  2
   1558   1557   1589   1570     1  180.0000771  1.4644000  4
   1561   1564   1613   1594     1  180.0000771  6.0668000  2
   1561   1564   1613   1594     1  180.0000771  1.4644000  4
   1564   1613   1594   1593     1  0.0000000  1.2552000  3
   1564   1613   1594   1595     1  0.0000000  1.2552000  3
   1565   1564   1613   1594     1  180.0000771  6.0668000  2
   1565   1564   1613   1594     1  180.0000771  1.4644000  4
   1566   1567   1569   1570     1  180.0000771  0.8368000  1
   1566   1567   1569   1570     1  180.0000771  1.0460000  2
   1566   1567   1569   1570     1  0.0000000  0.7531200  3
   1566   1567   1569   1576     1  0.0000000  0.6508444  3
   1566   1584   1571   1570     1  180.0000771  0.4184000  2
   1566   1584   1571   1570     1  0.0000000  1.6024720  3
   1566   1584   1571   1575     1  0.0000000  1.6038667  3
   1567   1566   1577   1582     1  0.0000000  0.6508444  3
   1567   1566   1584   1571     1  180.0000771  0.4184000  2
   1567   1566   1584   1571     1  0.0000000  1.6024720  3
   1567   1569   1570   1571     1  180.0000771  0.8368000  1
   1567   1569   1570   1571     1  180.0000771  1.0460000  2
   1567   1569   1570   1571     1  0.0000000  0.7531200  3
   1567   1569   1570   1589     1  0.0000000  0.6508444  3
   1569   1567   1566   1577     1  180.0000771  0.8368000  1
   1569   1567   1566   1577     1  180.0000771  1.0460000  2
   1569   1567   1566   1577     1  0.0000000  0.7531200  3
   1569   1567   1566   1584     1  0.0000000  0.6508444  3
   1569   1570   1571   1575     1  0.0000000  0.6508444  3
   1569   1570   1571   1584     1  0.0000000  0.6508444  3
   1570   1569   1567   1587     1  0.0000000  0.6508444  3
   1571   1570   1569   1576     1  0.0000000  0.6508444  3
   1571   1584   1566   1577     1  180.0000771  0.4184000  2
   1571   1584   1566   1577     1  0.0000000  1.6024720  3
   1575   1571   1570   1589     1  0.0000000  0.6508444  3
   1576   1569   1567   1587     1  0.0000000  4.9162000  2
   1576   1569   1567   1587     1  0.0000000  0.6024960  3
   1576   1569   1570   1589     1  0.0000000  0.6508444  3
   1577   1566   1567   1587     1  0.0000000  0.6508444  3
   1582   1577   1566   1584     1  0.0000000  4.9162000  2
   1582   1577   1566   1584     1  0.0000000  0.6024960  3
   1584   1566   1567   1587     1  0.0000000  4.9162000  2
   1584   1566   1567   1587     1  0.0000000  0.6024960  3
   1584   1571   1570   1589     1  0.0000000  0.6508444  3
   1590   1591   1593   1594     1  180.0000771  0.8368000  1
   1590   1591   1593   1594     1  180.0000771  1.0460000  2
   1590   1591   1593   1594     1  0.0000000  0.7531200  3
   1590   1591   1593   1600     1  0.0000000  0.6508444  3
   1590   1608   1595   1594     1  180.0000771  0.4184000  2
   1590   1608   1595   1594     1  0.0000000  1.6024720  3
   1590   1608   1595   1599     1  0.0000000  1.6038667  3
   1591   1590   1601   1606     1  0.0000000  0.6508444  3
   1591   1590   1608   1595     1  180.0000771  0.4184000  2
   1591   1590   1608   1595     1  0.0000000  1.6024720  3
   1591   1593   1594   1595     1  180.0000771  0.8368000  1
   1591   1593   1594   1595     1  180.0000771  1.0460000  2
   1591   1593   1594   1595     1  0.0000000  0.7531200  3
   1591   1593   1594   1613     1  0.0000000  0.6508444  3
   1593   1591   1590   1601     1  180.0000771  0.8368000  1
   1593   1591   1590   1601     1  180.0000771  1.0460000  2
   1593   1591   1590   1601     1  0.0000000  0.7531200  3
   1593   1591   1590   1608     1  0.0000000  0.6508444  3
   1593   1594   1595   1599     1  0.0000000  0.6508444  3
   1593   1594   1595   1608     1  0.0000000  0.6508444  3
   1594   1593   1591   1611     1  0.0000000  0.6508444  3
   1595   1594   1593   1600     1  0.0000000  0.6508444  3
   1595   1608   1590   1601     1  180.0000771  0.4184000  2
   1595   1608   1590   1601     1  0.0000000  1.6024720  3
   1599   1595   1594   1613     1  0.0000000  0.6508444  3
   1600   1593   1591   1611     1  0.0000000  4.9162000  2
   1600   1593   1591   1611     1  0.0000000  0.6024960  3
   1600   1593   1594   1613     1  0.0000000  0.6508444  3
   1601   1590   1591   1611     1  0.0000000  0.6508444  3
   1606   1601   1590   1608     1  0.0000000  4.9162000  2
   1606   1601   1590   1608     1  0.0000000  0.6024960  3
   1608   1590   1591   1611     1  0.0000000  4.9162000  2
   1608   1590   1591   1611     1  0.0000000  0.6024960  3
   1608   1595   1594   1613     1  0.0000000  0.6508444  3
   1614   1616   1618   1622     1  0.0000000  0.6508444  3
   1616   1618   1622   1623     1  180.0000771  2.0083200  2
   1616   1618   1622   1623     1  0.0000000  1.2552000  3
   1616   1618   1622   1624     1  180.0000771  2.0083200  2
   1616   1618   1622   1624     1  0.0000000  1.2552000  3
   1618   1622   1623   1634     1  180.0000771  2.0083200  2
   1618   1622   1623   1634     1  0.0000000  1.2552000  3
   1618   1622   1624   1626     1  180.0000771  2.0083200  2
   1618   1622   1624   1626     1  0.0000000  1.2552000  3
   1622   1623   1634   1637     1  0.0000000  0.6508444  3
   1622   1624   1626   1630     1  0.0000000  0.6508444  3
   1623   1634   1637   1638     1  180.0000771  0.0000000  2
   1623   1634   1637   1686     1  180.0000771  0.0000000  2
   1623   1622   1624   1626     1  180.0000771  2.0083200  2
   1623   1622   1624   1626     1  0.0000000  1.2552000  3
   1624   1626   1630   1631     1  180.0000771  0.0000000  2
   1624   1626   1630   1662     1  180.0000771  0.0000000  2
   1624   1622   1623   1634     1  180.0000771  2.0083200  2
   1624   1622   1623   1634     1  0.0000000  1.2552000  3
   1626   1630   1662   1643     1  180.0000771  6.0668000  2
   1626   1630   1662   1643     1  180.0000771  1.4644000  4
   1630   1662   1643   1644     1  0.0000000  1.2552000  3
   1630   1662   1643   1642     1  0.0000000  1.2552000  3
   1631   1630   1662   1643     1  180.0000771  6.0668000  2
   1631   1630   1662   1643     1  180.0000771  1.4644000  4
   1634   1637   1686   1667     1  180.0000771  6.0668000  2
   1634   1637   1686   1667     1  180.0000771  1.4644000  4
   1637   1686   1667   1668     1  0.0000000  1.2552000  3
   1637   1686   1667   1666     1  0.0000000  1.2552000  3
   1638   1637   1686   1667     1  180.0000771  6.0668000  2
   1638   1637   1686   1667     1  180.0000771  1.4644000  4
   1639   1640   1642   1643     1  180.0000771  0.8368000  1
   1639   1640   1642   1643     1  180.0000771  1.0460000  2
   1639   1640   1642   1643     1  0.0000000  0.7531200  3
   1639   1640   1642   1649     1  0.0000000  0.6508444  3
   1639   1657   1644   1648     1  0.0000000  1.6038667  3
   1639   1657   1644   1643     1  180.0000771  0.4184000  2
   1639   1657   1644   1643     1  0.0000000  1.6024720  3
   1640   1642   1643   1644     1  180.0000771  0.8368000  1
   1640   1642   1643   1644     1  180.0000771  1.0460000  2
   1640   1642   1643   1644     1  0.0000000  0.7531200  3
   1640   1642   1643   1662     1  0.0000000  0.6508444  3
   1640   1639   1650   1655     1  0.0000000  0.6508444  3
   1640   1639   1657   1644     1  180.0000771  0.4184000  2
   1640   1639   1657   1644     1  0.0000000  1.6024720  3
   1642   1643   1644   1648     1  0.0000000  0.6508444  3
   1642   1643   1644   1657     1  0.0000000  0.6508444  3
   1642   1640   1639   1650     1  180.0000771  0.8368000  1
   1642   1640   1639   1650     1  180.0000771  1.0460000  2
   1642   1640   1639   1650     1  0.0000000  0.7531200  3
   1642   1640   1639   1657     1  0.0000000  0.6508444  3
   1643   1642   1640   1660     1  0.0000000  0.6508444  3
   1644   1657   1639   1650     1  180.0000771  0.4184000  2
   1644   1657   1639   1650     1  0.0000000  1.6024720  3
   1644   1643   1642   1649     1  0.0000000  0.6508444  3
   1648   1644   1643   1662     1  0.0000000  0.6508444  3
   1649   1642   1643   1662     1  0.0000000  0.6508444  3
   1649   1642   1640   1660     1  0.0000000  4.9162000  2
   1649   1642   1640   1660     1  0.0000000  0.6024960  3
   1650   1639   1640   1660     1  0.0000000  0.6508444  3
   1655   1650   1639   1657     1  0.0000000  4.9162000  2
   1655   1650   1639   1657     1  0.0000000  0.6024960  3
   1657   1644   1643   1662     1  0.0000000  0.6508444  3
   1657   1639   1640   1660     1  0.0000000  4.9162000  2
   1657   1639   1640   1660     1  0.0000000  0.6024960  3
   1663   1664   1666   1667     1  180.0000771  0.8368000  1
   1663   1664   1666   1667     1  180.0000771  1.0460000  2
   1663   1664   1666   1667     1  0.0000000  0.7531200  3
   1663   1664   1666   1673     1  0.0000000  0.6508444  3
   1663   1681   1668   1672     1  0.0000000  1.6038667  3
   1663   1681   1668   1667     1  180.0000771  0.4184000  2
   1663   1681   1668   1667     1  0.0000000  1.6024720  3
   1664   1666   1667   1668     1  180.0000771  0.8368000  1
   1664   1666   1667   1668     1  180.0000771  1.0460000  2
   1664   1666   1667   1668     1  0.0000000  0.7531200  3
   1664   1666   1667   1686     1  0.0000000  0.6508444  3
   1664   1663   1674   1679     1  0.0000000  0.6508444  3
   1664   1663   1681   1668     1  180.0000771  0.4184000  2
   1664   1663   1681   1668     1  0.0000000  1.6024720  3
   1666   1667   1668   1672     1  0.0000000  0.6508444  3
   1666   1667   1668   1681     1  0.0000000  0.6508444  3
   1666   1664   1663   1674     1  180.0000771  0.8368000  1
   1666   1664   1663   1674     1  180.0000771  1.0460000  2
   1666   1664   1663   1674     1  0.0000000  0.7531200  3
   1666   1664   1663   1681     1  0.0000000  0.6508444  3
   1667   1666   1664   1684     1  0.0000000  0.6508444  3
   1668   1681   1663   1674     1  180.0000771  0.4184000  2
   1668   1681   1663   1674     1  0.0000000  1.6024720  3
   1668   1667   1666   1673     1  0.0000000  0.6508444  3
   1672   1668   1667   1686     1  0.0000000  0.6508444  3
   1673   1666   1667   1686     1  0.0000000  0.6508444  3
   1673   1666   1664   1684     1  0.0000000  4.9162000  2
   1673   1666   1664   1684     1  0.0000000  0.6024960  3
   1674   1663   1664   1684     1  0.0000000  0.6508444  3
   1679   1674   1663   1681     1  0.0000000  4.9162000  2
   1679   1674   1663   1681     1  0.0000000  0.6024960  3
   1681   1668   1667   1686     1  0.0000000  0.6508444  3
   1681   1663   1664   1684     1  0.0000000  4.9162000  2
   1681   1663   1664   1684     1  0.0000000  0.6024960  3
   1687   1689   1691   1695     1  0.0000000  0.6508444  3
   1689   1691   1695   1696     1  180.0000771  2.0083200  2
   1689   1691   1695   1696     1  0.0000000  1.2552000  3
   1689   1691   1695   1697     1  180.0000771  2.0083200  2
   1689   1691   1695   1697     1  0.0000000  1.2552000  3
   1691   1695   1696   1707     1  180.0000771  2.0083200  2
   1691   1695   1696   1707     1  0.0000000  1.2552000  3
   1691   1695   1697   1699     1  180.0000771  2.0083200  2
   1691   1695   1697   1699     1  0.0000000  1.2552000  3
   1695   1696   1707   1710     1  0.0000000  0.6508444  3
   1695   1697   1699   1703     1  0.0000000  0.6508444  3
   1696   1695   1697   1699     1  180.0000771  2.0083200  2
   1696   1695   1697   1699     1  0.0000000  1.2552000  3
   1696   1707   1710   1711     1  180.0000771  0.0000000  2
   1696   1707   1710   1759     1  180.0000771  0.0000000  2
   1697   1695   1696   1707     1  180.0000771  2.0083200  2
   1697   1695   1696   1707     1  0.0000000  1.2552000  3
   1697   1699   1703   1704     1  180.0000771  0.0000000  2
   1697   1699   1703   1735     1  180.0000771  0.0000000  2
   1699   1703   1735   1716     1  180.0000771  6.0668000  2
   1699   1703   1735   1716     1  180.0000771  1.4644000  4
   1703   1735   1716   1715     1  0.0000000  1.2552000  3
   1703   1735   1716   1717     1  0.0000000  1.2552000  3
   1704   1703   1735   1716     1  180.0000771  6.0668000  2
   1704   1703   1735   1716     1  180.0000771  1.4644000  4
   1707   1710   1759   1740     1  180.0000771  6.0668000  2
   1707   1710   1759   1740     1  180.0000771  1.4644000  4
   1710   1759   1740   1739     1  0.0000000  1.2552000  3
   1710   1759   1740   1741     1  0.0000000  1.2552000  3
   1711   1710   1759   1740     1  180.0000771  6.0668000  2
   1711   1710   1759   1740     1  180.0000771  1.4644000  4
   1712   1713   1715   1716     1  180.0000771  0.8368000  1
   1712   1713   1715   1716     1  180.0000771  1.0460000  2
   1712   1713   1715   1716     1  0.0000000  0.7531200  3
   1712   1713   1715   1722     1  0.0000000  0.6508444  3
   1712   1730   1717   1716     1  180.0000771  0.4184000  2
   1712   1730   1717   1716     1  0.0000000  1.6024720  3
   1712   1730   1717   1721     1  0.0000000  1.6038667  3
   1713   1712   1723   1728     1  0.0000000  0.6508444  3
   1713   1712   1730   1717     1  180.0000771  0.4184000  2
   1713   1712   1730   1717     1  0.0000000  1.6024720  3
   1713   1715   1716   1717     1  180.0000771  0.8368000  1
   1713   1715   1716   1717     1  180.0000771  1.0460000  2
   1713   1715   1716   1717     1  0.0000000  0.7531200  3
   1713   1715   1716   1735     1  0.0000000  0.6508444  3
   1715   1713   1712   1723     1  180.0000771  0.8368000  1
   1715   1713   1712   1723     1  180.0000771  1.0460000  2
   1715   1713   1712   1723     1  0.0000000  0.7531200  3
   1715   1713   1712   1730     1  0.0000000  0.6508444  3
   1715   1716   1717   1721     1  0.0000000  0.6508444  3
   1715   1716   1717   1730     1  0.0000000  0.6508444  3
   1716   1715   1713   1733     1  0.0000000  0.6508444  3
   1717   1716   1715   1722     1  0.0000000  0.6508444  3
   1717   1730   1712   1723     1  180.0000771  0.4184000  2
   1717   1730   1712   1723     1  0.0000000  1.6024720  3
   1721   1717   1716   1735     1  0.0000000  0.6508444  3
   1722   1715   1713   1733     1  0.0000000  4.9162000  2
   1722   1715   1713   1733     1  0.0000000  0.6024960  3
   1722   1715   1716   1735     1  0.0000000  0.6508444  3
   1723   1712   1713   1733     1  0.0000000  0.6508444  3
   1728   1723   1712   1730     1  0.0000000  4.9162000  2
   1728   1723   1712   1730     1  0.0000000  0.6024960  3
   1730   1712   1713   1733     1  0.0000000  4.9162000  2
   1730   1712   1713   1733     1  0.0000000  0.6024960  3
   1730   1717   1716   1735     1  0.0000000  0.6508444  3
   1736   1737   1739   1740     1  180.0000771  0.8368000  1
   1736   1737   1739   1740     1  180.0000771  1.0460000  2
   1736   1737   1739   1740     1  0.0000000  0.7531200  3
   1736   1737   1739   1746     1  0.0000000  0.6508444  3
   1736   1754   1741   1740     1  180.0000771  0.4184000  2
   1736   1754   1741   1740     1  0.0000000  1.6024720  3
   1736   1754   1741   1745     1  0.0000000  1.6038667  3
   1737   1736   1747   1752     1  0.0000000  0.6508444  3
   1737   1736   1754   1741     1  180.0000771  0.4184000  2
   1737   1736   1754   1741     1  0.0000000  1.6024720  3
   1737   1739   1740   1741     1  180.0000771  0.8368000  1
   1737   1739   1740   1741     1  180.0000771  1.0460000  2
   1737   1739   1740   1741     1  0.0000000  0.7531200  3
   1737   1739   1740   1759     1  0.0000000  0.6508444  3
   1739   1737   1736   1747     1  180.0000771  0.8368000  1
   1739   1737   1736   1747     1  180.0000771  1.0460000  2
   1739   1737   1736   1747     1  0.0000000  0.7531200  3
   1739   1737   1736   1754     1  0.0000000  0.6508444  3
   1739   1740   1741   1745     1  0.0000000  0.6508444  3
   1739   1740   1741   1754     1  0.0000000  0.6508444  3
   1740   1739   1737   1757     1  0.0000000  0.6508444  3
   1741   1740   1739   1746     1  0.0000000  0.6508444  3
   1741   1754   1736   1747     1  180.0000771  0.4184000  2
   1741   1754   1736   1747     1  0.0000000  1.6024720  3
   1745   1741   1740   1759     1  0.0000000  0.6508444  3
   1746   1739   1737   1757     1  0.0000000  4.9162000  2
   1746   1739   1737   1757     1  0.0000000  0.6024960  3
   1746   1739   1740   1759     1  0.0000000  0.6508444  3
   1747   1736   1737   1757     1  0.0000000  0.6508444  3
   1752   1747   1736   1754     1  0.0000000  4.9162000  2
   1752   1747   1736   1754     1  0.0000000  0.6024960  3
   1754   1736   1737   1757     1  0.0000000  4.9162000  2
   1754   1736   1737   1757     1  0.0000000  0.6024960  3
   1754   1741   1740   1759     1  0.0000000  0.6508444  3
   1760   1762   1764   1768     1  0.0000000  0.6508444  3
   1762   1764   1768   1769     1  180.0000771  2.0083200  2
   1762   1764   1768   1769     1  0.0000000  1.2552000  3
   1762   1764   1768   1770     1  180.0000771  2.0083200  2
   1762   1764   1768   1770     1  0.0000000  1.2552000  3
   1764   1768   1769   1780     1  180.0000771  2.0083200  2
   1764   1768   1769   1780     1  0.0000000  1.2552000  3
   1764   1768   1770   1772     1  180.0000771  2.0083200  2
   1764   1768   1770   1772     1  0.0000000  1.2552000  3
   1768   1769   1780   1783     1  0.0000000  0.6508444  3
   1768   1770   1772   1776     1  0.0000000  0.6508444  3
   1769   1780   1783   1784     1  180.0000771  0.0000000  2
   1769   1780   1783   1832     1  180.0000771  0.0000000  2
   1769   1768   1770   1772     1  180.0000771  2.0083200  2
   1769   1768   1770   1772     1  0.0000000  1.2552000  3
   1770   1772   1776   1777     1  180.0000771  0.0000000  2
   1770   1772   1776   1808     1  180.0000771  0.0000000  2
   1770   1768   1769   1780     1  180.0000771  2.0083200  2
   1770   1768   1769   1780     1  0.0000000  1.2552000  3
   1772   1776   1808   1789     1  180.0000771  6.0668000  2
   1772   1776   1808   1789     1  180.0000771  1.4644000  4
   1776   1808   1789   1790     1  0.0000000  1.2552000  3
   1776   1808   1789   1788     1  0.0000000  1.2552000  3
   1777   1776   1808   1789     1  180.0000771  6.0668000  2
   1777   1776   1808   1789     1  180.0000771  1.4644000  4
   1780   1783   1832   1813     1  180.0000771  6.0668000  2
   1780   1783   1832   1813     1  180.0000771  1.4644000  4
   1783   1832   1813   1814     1  0.0000000  1.2552000  3
   1783   1832   1813   1812     1  0.0000000  1.2552000  3
   1784   1783   1832   1813     1  180.0000771  6.0668000  2
   1784   1783   1832   1813     1  180.0000771  1.4644000  4
   1785   1786   1788   1789     1  180.0000771  0.8368000  1
   1785   1786   1788   1789     1  180.0000771  1.0460000  2
   1785   1786   1788   1789     1  0.0000000  0.7531200  3
   1785   1786   1788   1795     1  0.0000000  0.6508444  3
   1785   1803   1790   1794     1  0.0000000  1.6038667  3
   1785   1803   1790   1789     1  180.0000771  0.4184000  2
   1785   1803   1790   1789     1  0.0000000  1.6024720  3
   1786   1788   1789   1790     1  180.0000771  0.8368000  1
   1786   1788   1789   1790     1  180.0000771  1.0460000  2
   1786   1788   1789   1790     1  0.0000000  0.7531200  3
   1786   1788   1789   1808     1  0.0000000  0.6508444  3
   1786   1785   1796   1801     1  0.0000000  0.6508444  3
   1786   1785   1803   1790     1  180.0000771  0.4184000  2
   1786   1785   1803   1790     1  0.0000000  1.6024720  3
   1788   1789   1790   1794     1  0.0000000  0.6508444  3
   1788   1789   1790   1803     1  0.0000000  0.6508444  3
   1788   1786   1785   1796     1  180.0000771  0.8368000  1
   1788   1786   1785   1796     1  180.0000771  1.0460000  2
   1788   1786   1785   1796     1  0.0000000  0.7531200  3
   1788   1786   1785   1803     1  0.0000000  0.6508444  3
   1789   1788   1786   1806     1  0.0000000  0.6508444  3
   1790   1803   1785   1796     1  180.0000771  0.4184000  2
   1790   1803   1785   1796     1  0.0000000  1.6024720  3
   1790   1789   1788   1795     1  0.0000000  0.6508444  3
   1794   1790   1789   1808     1  0.0000000  0.6508444  3
   1795   1788   1789   1808     1  0.0000000  0.6508444  3
   1795   1788   1786   1806     1  0.0000000  4.9162000  2
   1795   1788   1786   1806     1  0.0000000  0.6024960  3
   1796   1785   1786   1806     1  0.0000000  0.6508444  3
   1801   1796   1785   1803     1  0.0000000  4.9162000  2
   1801   1796   1785   1803     1  0.0000000  0.6024960  3
   1803   1790   1789   1808     1  0.0000000  0.6508444  3
   1803   1785   1786   1806     1  0.0000000  4.9162000  2
   1803   1785   1786   1806     1  0.0000000  0.6024960  3
   1809   1810   1812   1813     1  180.0000771  0.8368000  1
   1809   1810   1812   1813     1  180.0000771  1.0460000  2
   1809   1810   1812   1813     1  0.0000000  0.7531200  3
   1809   1810   1812   1819     1  0.0000000  0.6508444  3
   1809   1827   1814   1818     1  0.0000000  1.6038667  3
   1809   1827   1814   1813     1  180.0000771  0.4184000  2
   1809   1827   1814   1813     1  0.0000000  1.6024720  3
   1810   1812   1813   1814     1  180.0000771  0.8368000  1
   1810   1812   1813   1814     1  180.0000771  1.0460000  2
   1810   1812   1813   1814     1  0.0000000  0.7531200  3
   1810   1812   1813   1832     1  0.0000000  0.6508444  3
   1810   1809   1820   1825     1  0.0000000  0.6508444  3
   1810   1809   1827   1814     1  180.0000771  0.4184000  2
   1810   1809   1827   1814     1  0.0000000  1.6024720  3
   1812   1813   1814   1818     1  0.0000000  0.6508444  3
   1812   1813   1814   1827     1  0.0000000  0.6508444  3
   1812   1810   1809   1820     1  180.0000771  0.8368000  1
   1812   1810   1809   1820     1  180.0000771  1.0460000  2
   1812   1810   1809   1820     1  0.0000000  0.7531200  3
   1812   1810   1809   1827     1  0.0000000  0.6508444  3
   1813   1812   1810   1830     1  0.0000000  0.6508444  3
   1814   1827   1809   1820     1  180.0000771  0.4184000  2
   1814   1827   1809   1820     1  0.0000000  1.6024720  3
   1814   1813   1812   1819     1  0.0000000  0.6508444  3
   1818   1814   1813   1832     1  0.0000000  0.6508444  3
   1819   1812   1813   1832     1  0.0000000  0.6508444  3
   1819   1812   1810   1830     1  0.0000000  4.9162000  2
   1819   1812   1810   1830     1  0.0000000  0.6024960  3
   1820   1809   1810   1830     1  0.0000000  0.6508444  3
   1825   1820   1809   1827     1  0.0000000  4.9162000  2
   1825   1820   1809   1827     1  0.0000000  0.6024960  3
   1827   1814   1813   1832     1  0.0000000  0.6508444  3
   1827   1809   1810   1830     1  0.0000000  4.9162000  2
   1827   1809   1810   1830     1  0.0000000  0.6024960  3
   1833   1835   1837   1841     1  0.0000000  0.6508444  3
   1835   1837   1841   1842     1  180.0000771  2.0083200  2
   1835   1837   1841   1842     1  0.0000000  1.2552000  3
   1835   1837   1841   1843     1  180.0000771  2.0083200  2
   1835   1837   1841   1843     1  0.0000000  1.2552000  3
   1837   1841   1842   1853     1  180.0000771  2.0083200  2
   1837   1841   1842   1853     1  0.0000000  1.2552000  3
   1837   1841   1843   1845     1  180.0000771  2.0083200  2
   1837   1841   1843   1845     1  0.0000000  1.2552000  3
   1841   1842   1853   1856     1  0.0000000  0.6508444  3
   1841   1843   1845   1849     1  0.0000000  0.6508444  3
   1842   1841   1843   1845     1  180.0000771  2.0083200  2
   1842   1841   1843   1845     1  0.0000000  1.2552000  3
   1842   1853   1856   1857     1  180.0000771  0.0000000  2
   1842   1853   1856   1905     1  180.0000771  0.0000000  2
   1843   1841   1842   1853     1  180.0000771  2.0083200  2
   1843   1841   1842   1853     1  0.0000000  1.2552000  3
   1843   1845   1849   1850     1  180.0000771  0.0000000  2
   1843   1845   1849   1881     1  180.0000771  0.0000000  2
   1845   1849   1881   1862     1  180.0000771  6.0668000  2
   1845   1849   1881   1862     1  180.0000771  1.4644000  4
   1849   1881   1862   1861     1  0.0000000  1.2552000  3
   1849   1881   1862   1863     1  0.0000000  1.2552000  3
   1850   1849   1881   1862     1  180.0000771  6.0668000  2
   1850   1849   1881   1862     1  180.0000771  1.4644000  4
   1853   1856   1905   1886     1  180.0000771  6.0668000  2
   1853   1856   1905   1886     1  180.0000771  1.4644000  4
   1856   1905   1886   1885     1  0.0000000  1.2552000  3
   1856   1905   1886   1887     1  0.0000000  1.2552000  3
   1857   1856   1905   1886     1  180.0000771  6.0668000  2
   1857   1856   1905   1886     1  180.0000771  1.4644000  4
   1858   1859   1861   1862     1  180.0000771  0.8368000  1
   1858   1859   1861   1862     1  180.0000771  1.0460000  2
   1858   1859   1861   1862     1  0.0000000  0.7531200  3
   1858   1859   1861   1868     1  0.0000000  0.6508444  3
   1858   1876   1863   1862     1  180.0000771  0.4184000  2
   1858   1876   1863   1862     1  0.0000000  1.6024720  3
   1858   1876   1863   1867     1  0.0000000  1.6038667  3
   1859   1858   1869   1874     1  0.0000000  0.6508444  3
   1859   1858   1876   1863     1  180.0000771  0.4184000  2
   1859   1858   1876   1863     1  0.0000000  1.6024720  3
   1859   1861   1862   1863     1  180.0000771  0.8368000  1
   1859   1861   1862   1863     1  180.0000771  1.0460000  2
   1859   1861   1862   1863     1  0.0000000  0.7531200  3
   1859   1861   1862   1881     1  0.0000000  0.6508444  3
   1861   1859   1858   1869     1  180.0000771  0.8368000  1
   1861   1859   1858   1869     1  180.0000771  1.0460000  2
   1861   1859   1858   1869     1  0.0000000  0.7531200  3
   1861   1859   1858   1876     1  0.0000000  0.6508444  3
   1861   1862   1863   1867     1  0.0000000  0.6508444  3
   1861   1862   1863   1876     1  0.0000000  0.6508444  3
   1862   1861   1859   1879     1  0.0000000  0.6508444  3
   1863   1862   1861   1868     1  0.0000000  0.6508444  3
   1863   1876   1858   1869     1  180.0000771  0.4184000  2
   1863   1876   1858   1869     1  0.0000000  1.6024720  3
   1867   1863   1862   1881     1  0.0000000  0.6508444  3
   1868   1861   1859   1879     1  0.0000000  4.9162000  2
   1868   1861   1859   1879     1  0.0000000  0.6024960  3
   1868   1861   1862   1881     1  0.0000000  0.6508444  3
   1869   1858   1859   1879     1  0.0000000  0.6508444  3
   1874   1869   1858   1876     1  0.0000000  4.9162000  2
   1874   1869   1858   1876     1  0.0000000  0.6024960  3
   1876   1858   1859   1879     1  0.0000000  4.9162000  2
   1876   1858   1859   1879     1  0.0000000  0.6024960  3
   1876   1863   1862   1881     1  0.0000000  0.6508444  3
   1882   1883   1885   1886     1  180.0000771  0.8368000  1
   1882   1883   1885   1886     1  180.0000771  1.0460000  2
   1882   1883   1885   1886     1  0.0000000  0.7531200  3
   1882   1883   1885   1892     1  0.0000000  0.6508444  3
   1882   1900   1887   1886     1  180.0000771  0.4184000  2
   1882   1900   1887   1886     1  0.0000000  1.6024720  3
   1882   1900   1887   1891     1  0.0000000  1.6038667  3
   1883   1882   1893   1898     1  0.0000000  0.6508444  3
   1883   1882   1900   1887     1  180.0000771  0.4184000  2
   1883   1882   1900   1887     1  0.0000000  1.6024720  3
   1883   1885   1886   1887     1  180.0000771  0.8368000  1
   1883   1885   1886   1887     1  180.0000771  1.0460000  2
   1883   1885   1886   1887     1  0.0000000  0.7531200  3
   1883   1885   1886   1905     1  0.0000000  0.6508444  3
   1885   1883   1882   1893     1  180.0000771  0.8368000  1
   1885   1883   1882   1893     1  180.0000771  1.0460000  2
   1885   1883   1882   1893     1  0.0000000  0.7531200  3
   1885   1883   1882   1900     1  0.0000000  0.6508444  3
   1885   1886   1887   1891     1  0.0000000  0.6508444  3
   1885   1886   1887   1900     1  0.0000000  0.6508444  3
   1886   1885   1883   1903     1  0.0000000  0.6508444  3
   1887   1886   1885   1892     1  0.0000000  0.6508444  3
   1887   1900   1882   1893     1  180.0000771  0.4184000  2
   1887   1900   1882   1893     1  0.0000000  1.6024720  3
   1891   1887   1886   1905     1  0.0000000  0.6508444  3
   1892   1885   1883   1903     1  0.0000000  4.9162000  2
   1892   1885   1883   1903     1  0.0000000  0.6024960  3
   1892   1885   1886   1905     1  0.0000000  0.6508444  3
   1893   1882   1883   1903     1  0.0000000  0.6508444  3
   1898   1893   1882   1900     1  0.0000000  4.9162000  2
   1898   1893   1882   1900     1  0.0000000  0.6024960  3
   1900   1882   1883   1903     1  0.0000000  4.9162000  2
   1900   1882   1883   1903     1  0.0000000  0.6024960  3
   1900   1887   1886   1905     1  0.0000000  0.6508444  3
   1906   1908   1910   1914     1  0.0000000  0.6508444  3
   1908   1910   1914   1915     1  180.0000771  2.0083200  2
   1908   1910   1914   1915     1  0.0000000  1.2552000  3
   1908   1910   1914   1916     1  180.0000771  2.0083200  2
   1908   1910   1914   1916     1  0.0000000  1.2552000  3
   1910   1914   1915   1926     1  180.0000771  2.0083200  2
   1910   1914   1915   1926     1  0.0000000  1.2552000  3
   1910   1914   1916   1918     1  180.0000771  2.0083200  2
   1910   1914   1916   1918     1  0.0000000  1.2552000  3
   1914   1915   1926   1929     1  0.0000000  0.6508444  3
   1914   1916   1918   1922     1  0.0000000  0.6508444  3
   1915   1926   1929   1930     1  180.0000771  0.0000000  2
   1915   1926   1929   1978     1  180.0000771  0.0000000  2
   1915   1914   1916   1918     1  180.0000771  2.0083200  2
   1915   1914   1916   1918     1  0.0000000  1.2552000  3
   1916   1918   1922   1923     1  180.0000771  0.0000000  2
   1916   1918   1922   1954     1  180.0000771  0.0000000  2
   1916   1914   1915   1926     1  180.0000771  2.0083200  2
   1916   1914   1915   1926     1  0.0000000  1.2552000  3
   1918   1922   1954   1935     1  180.0000771  6.0668000  2
   1918   1922   1954   1935     1  180.0000771  1.4644000  4
   1922   1954   1935   1936     1  0.0000000  1.2552000  3
   1922   1954   1935   1934     1  0.0000000  1.2552000  3
   1923   1922   1954   1935     1  180.0000771  6.0668000  2
   1923   1922   1954   1935     1  180.0000771  1.4644000  4
   1926   1929   1978   1959     1  180.0000771  6.0668000  2
   1926   1929   1978   1959     1  180.0000771  1.4644000  4
   1929   1978   1959   1960     1  0.0000000  1.2552000  3
   1929   1978   1959   1958     1  0.0000000  1.2552000  3
   1930   1929   1978   1959     1  180.0000771  6.0668000  2
   1930   1929   1978   1959     1  180.0000771  1.4644000  4
   1931   1932   1934   1935     1  180.0000771  0.8368000  1
   1931   1932   1934   1935     1  180.0000771  1.0460000  2
   1931   1932   1934   1935     1  0.0000000  0.7531200  3
   1931   1932   1934   1941     1  0.0000000  0.6508444  3
   1931   1949   1936   1940     1  0.0000000  1.6038667  3
   1931   1949   1936   1935     1  180.0000771  0.4184000  2
   1931   1949   1936   1935     1  0.0000000  1.6024720  3
   1932   1934   1935   1936     1  180.0000771  0.8368000  1
   1932   1934   1935   1936     1  180.0000771  1.0460000  2
   1932   1934   1935   1936     1  0.0000000  0.7531200  3
   1932   1934   1935   1954     1  0.0000000  0.6508444  3
   1932   1931   1942   1947     1  0.0000000  0.6508444  3
   1932   1931   1949   1936     1  180.0000771  0.4184000  2
   1932   1931   1949   1936     1  0.0000000  1.6024720  3
   1934   1935   1936   1940     1  0.0000000  0.6508444  3
   1934   1935   1936   1949     1  0.0000000  0.6508444  3
   1934   1932   1931   1942     1  180.0000771  0.8368000  1
   1934   1932   1931   1942     1  180.0000771  1.0460000  2
   1934   1932   1931   1942     1  0.0000000  0.7531200  3
   1934   1932   1931   1949     1  0.0000000  0.6508444  3
   1935   1934   1932   1952     1  0.0000000  0.6508444  3
   1936   1949   1931   1942     1  180.0000771  0.4184000  2
   1936   1949   1931   1942     1  0.0000000  1.6024720  3
   1936   1935   1934   1941     1  0.0000000  0.6508444  3
   1940   1936   1935   1954     1  0.0000000  0.6508444  3
   1941   1934   1935   1954     1  0.0000000  0.6508444  3
   1941   1934   1932   1952     1  0.0000000  4.9162000  2
   1941   1934   1932   1952     1  0.0000000  0.6024960  3
   1942   1931   1932   1952     1  0.0000000  0.6508444  3
   1947   1942   1931   1949     1  0.0000000  4.9162000  2
   1947   1942   1931   1949     1  0.0000000  0.6024960  3
   1949   1936   1935   1954     1  0.0000000  0.6508444  3
   1949   1931   1932   1952     1  0.0000000  4.9162000  2
   1949   1931   1932   1952     1  0.0000000  0.6024960  3
   1955   1956   1958   1959     1  180.0000771  0.8368000  1
   1955   1956   1958   1959     1  180.0000771  1.0460000  2
   1955   1956   1958   1959     1  0.0000000  0.7531200  3
   1955   1956   1958   1965     1  0.0000000  0.6508444  3
   1955   1973   1960   1964     1  0.0000000  1.6038667  3
   1955   1973   1960   1959     1  180.0000771  0.4184000  2
   1955   1973   1960   1959     1  0.0000000  1.6024720  3
   1956   1958   1959   1960     1  180.0000771  0.8368000  1
   1956   1958   1959   1960     1  180.0000771  1.0460000  2
   1956   1958   1959   1960     1  0.0000000  0.7531200  3
   1956   1958   1959   1978     1  0.0000000  0.6508444  3
   1956   1955   1966   1971     1  0.0000000  0.6508444  3
   1956   1955   1973   1960     1  180.0000771  0.4184000  2
   1956   1955   1973   1960     1  0.0000000  1.6024720  3
   1958   1959   1960   1964     1  0.0000000  0.6508444  3
   1958   1959   1960   1973     1  0.0000000  0.6508444  3
   1958   1956   1955   1966     1  180.0000771  0.8368000  1
   1958   1956   1955   1966     1  180.0000771  1.0460000  2
   1958   1956   1955   1966     1  0.0000000  0.7531200  3
   1958   1956   1955   1973     1  0.0000000  0.6508444  3
   1959   1958   1956   1976     1  0.0000000  0.6508444  3
   1960   1973   1955   1966     1  180.0000771  0.4184000  2
   1960   1973   1955   1966     1  0.0000000  1.6024720  3
   1960   1959   1958   1965     1  0.0000000  0.6508444  3
   1964   1960   1959   1978     1  0.0000000  0.6508444  3
   1965   1958   1959   1978     1  0.0000000  0.6508444  3
   1965   1958   1956   1976     1  0.0000000  4.9162000  2
   1965   1958   1956   1976     1  0.0000000  0.6024960  3
   1966   1955   1956   1976     1  0.0000000  0.6508444  3
   1971   1966   1955   1973     1  0.0000000  4.9162000  2
   1971   1966   1955   1973     1  0.0000000  0.6024960  3
   1973   1960   1959   1978     1  0.0000000  0.6508444  3
   1973   1955   1956   1976     1  0.0000000  4.9162000  2
   1973   1955   1956   1976     1  0.0000000  0.6024960  3
   1979   1981   1983   1987     1  0.0000000  0.6508444  3
   1981   1983   1987   1988     1  180.0000771  2.0083200  2
   1981   1983   1987   1988     1  0.0000000  1.2552000  3
   1981   1983   1987   1989     1  180.0000771  2.0083200  2
   1981   1983   1987   1989     1  0.0000000  1.2552000  3
   1983   1987   1988   1999     1  180.0000771  2.0083200  2
   1983   1987   1988   1999     1  0.0000000  1.2552000  3
   1983   1987   1989   1991     1  180.0000771  2.0083200  2
   1983   1987   1989   1991     1  0.0000000  1.2552000  3
   1987   1988   1999   2002     1  0.0000000  0.6508444  3
   1987   1989   1991   1995     1  0.0000000  0.6508444  3
   1988   1987   1989   1991     1  180.0000771  2.0083200  2
   1988   1987   1989   1991     1  0.0000000  1.2552000  3
   1988   1999   2002   2003     1  180.0000771  0.0000000  2
   1988   1999   2002   2051     1  180.0000771  0.0000000  2
   1989   1987   1988   1999     1  180.0000771  2.0083200  2
   1989   1987   1988   1999     1  0.0000000  1.2552000  3
   1989   1991   1995   1996     1  180.0000771  0.0000000  2
   1989   1991   1995   2027     1  180.0000771  0.0000000  2
   1991   1995   2027   2008     1  180.0000771  6.0668000  2
   1991   1995   2027   2008     1  180.0000771  1.4644000  4
   1995   2027   2008   2007     1  0.0000000  1.2552000  3
   1995   2027   2008   2009     1  0.0000000  1.2552000  3
   1996   1995   2027   2008     1  180.0000771  6.0668000  2
   1996   1995   2027   2008     1  180.0000771  1.4644000  4
   1999   2002   2051   2032     1  180.0000771  6.0668000  2
   1999   2002   2051   2032     1  180.0000771  1.4644000  4
   2002   2051   2032   2031     1  0.0000000  1.2552000  3
   2002   2051   2032   2033     1  0.0000000  1.2552000  3
   2003   2002   2051   2032     1  180.0000771  6.0668000  2
   2003   2002   2051   2032     1  180.0000771  1.4644000  4
   2004   2005   2007   2008     1  180.0000771  0.8368000  1
   2004   2005   2007   2008     1  180.0000771  1.0460000  2
   2004   2005   2007   2008     1  0.0000000  0.7531200  3
   2004   2005   2007   2014     1  0.0000000  0.6508444  3
   2004   2022   2009   2008     1  180.0000771  0.4184000  2
   2004   2022   2009   2008     1  0.0000000  1.6024720  3
   2004   2022   2009   2013     1  0.0000000  1.6038667  3
   2005   2004   2015   2020     1  0.0000000  0.6508444  3
   2005   2004   2022   2009     1  180.0000771  0.4184000  2
   2005   2004   2022   2009     1  0.0000000  1.6024720  3
   2005   2007   2008   2009     1  180.0000771  0.8368000  1
   2005   2007   2008   2009     1  180.0000771  1.0460000  2
   2005   2007   2008   2009     1  0.0000000  0.7531200  3
   2005   2007   2008   2027     1  0.0000000  0.6508444  3
   2007   2005   2004   2015     1  180.0000771  0.8368000  1
   2007   2005   2004   2015     1  180.0000771  1.0460000  2
   2007   2005   2004   2015     1  0.0000000  0.7531200  3
   2007   2005   2004   2022     1  0.0000000  0.6508444  3
   2007   2008   2009   2013     1  0.0000000  0.6508444  3
   2007   2008   2009   2022     1  0.0000000  0.6508444  3
   2008   2007   2005   2025     1  0.0000000  0.6508444  3
   2009   2008   2007   2014     1  0.0000000  0.6508444  3
   2009   2022   2004   2015     1  180.0000771  0.4184000  2
   2009   2022   2004   2015     1  0.0000000  1.6024720  3
   2013   2009   2008   2027     1  0.0000000  0.6508444  3
   2014   2007   2005   2025     1  0.0000000  4.9162000  2
   2014   2007   2005   2025     1  0.0000000  0.6024960  3
   2014   2007   2008   2027     1  0.0000000  0.6508444  3
   2015   2004   2005   2025     1  0.0000000  0.6508444  3
   2020   2015   2004   2022     1  0.0000000  4.9162000  2
   2020   2015   2004   2022     1  0.0000000  0.6024960  3
   2022   2004   2005   2025     1  0.0000000  4.9162000  2
   2022   2004   2005   2025     1  0.0000000  0.6024960  3
   2022   2009   2008   2027     1  0.0000000  0.6508444  3
   2028   2029   2031   2032     1  180.0000771  0.8368000  1
   2028   2029   2031   2032     1  180.0000771  1.0460000  2
   2028   2029   2031   2032     1  0.0000000  0.7531200  3
   2028   2029   2031   2038     1  0.0000000  0.6508444  3
   2028   2046   2033   2032     1  180.0000771  0.4184000  2
   2028   2046   2033   2032     1  0.0000000  1.6024720  3
   2028   2046   2033   2037     1  0.0000000  1.6038667  3
   2029   2028   2039   2044     1  0.0000000  0.6508444  3
   2029   2028   2046   2033     1  180.0000771  0.4184000  2
   2029   2028   2046   2033     1  0.0000000  1.6024720  3
   2029   2031   2032   2033     1  180.0000771  0.8368000  1
   2029   2031   2032   2033     1  180.0000771  1.0460000  2
   2029   2031   2032   2033     1  0.0000000  0.7531200  3
   2029   2031   2032   2051     1  0.0000000  0.6508444  3
   2031   2029   2028   2039     1  180.0000771  0.8368000  1
   2031   2029   2028   2039     1  180.0000771  1.0460000  2
   2031   2029   2028   2039     1  0.0000000  0.7531200  3
   2031   2029   2028   2046     1  0.0000000  0.6508444  3
   2031   2032   2033   2037     1  0.0000000  0.6508444  3
   2031   2032   2033   2046     1  0.0000000  0.6508444  3
   2032   2031   2029   2049     1  0.0000000  0.6508444  3
   2033   2032   2031   2038     1  0.0000000  0.6508444  3
   2033   2046   2028   2039     1  180.0000771  0.4184000  2
   2033   2046   2028   2039     1  0.0000000  1.6024720  3
   2037   2033   2032   2051     1  0.0000000  0.6508444  3
   2038   2031   2029   2049     1  0.0000000  4.9162000  2
   2038   2031   2029   2049     1  0.0000000  0.6024960  3
   2038   2031   2032   2051     1  0.0000000  0.6508444  3
   2039   2028   2029   2049     1  0.0000000  0.6508444  3
   2044   2039   2028   2046     1  0.0000000  4.9162000  2
   2044   2039   2028   2046     1  0.0000000  0.6024960  3
   2046   2028   2029   2049     1  0.0000000  4.9162000  2
   2046   2028   2029   2049     1  0.0000000  0.6024960  3
   2046   2033   2032   2051     1  0.0000000  0.6508444  3
   2052   2054   2056   2060     1  0.0000000  0.6508444  3
   2054   2056   2060   2061     1  180.0000771  2.0083200  2
   2054   2056   2060   2061     1  0.0000000  1.2552000  3
   2054   2056   2060   2062     1  180.0000771  2.0083200  2
   2054   2056   2060   2062     1  0.0000000  1.2552000  3
   2056   2060   2061   2072     1  180.0000771  2.0083200  2
   2056   2060   2061   2072     1  0.0000000  1.2552000  3
   2056   2060   2062   2064     1  180.0000771  2.0083200  2
   2056   2060   2062   2064     1  0.0000000  1.2552000  3
   2060   2061   2072   2075     1  0.0000000  0.6508444  3
   2060   2062   2064   2068     1  0.0000000  0.6508444  3
   2061   2072   2075   2076     1  180.0000771  0.0000000  2
   2061   2072   2075   2124     1  180.0000771  0.0000000  2
   2061   2060   2062   2064     1  180.0000771  2.0083200  2
   2061   2060   2062   2064     1  0.0000000  1.2552000  3
   2062   2064   2068   2069     1  180.0000771  0.0000000  2
   2062   2064   2068   2100     1  180.0000771  0.0000000  2
   2062   2060   2061   2072     1  180.0000771  2.0083200  2
   2062   2060   2061   2072     1  0.0000000  1.2552000  3
   2064   2068   2100   2081     1  180.0000771  6.0668000  2
   2064   2068   2100   2081     1  180.0000771  1.4644000  4
   2068   2100   2081   2082     1  0.0000000  1.2552000  3
   2068   2100   2081   2080     1  0.0000000  1.2552000  3
   2069   2068   2100   2081     1  180.0000771  6.0668000  2
   2069   2068   2100   2081     1  180.0000771  1.4644000  4
   2072   2075   2124   2105     1  180.0000771  6.0668000  2
   2072   2075   2124   2105     1  180.0000771  1.4644000  4
   2075   2124   2105   2106     1  0.0000000  1.2552000  3
   2075   2124   2105   2104     1  0.0000000  1.2552000  3
   2076   2075   2124   2105     1  180.0000771  6.0668000  2
   2076   2075   2124   2105     1  180.0000771  1.4644000  4
   2077   2078   2080   2081     1  180.0000771  0.8368000  1
   2077   2078   2080   2081     1  180.0000771  1.0460000  2
   2077   2078   2080   2081     1  0.0000000  0.7531200  3
   2077   2078   2080   2087     1  0.0000000  0.6508444  3
   2077   2095   2082   2086     1  0.0000000  1.6038667  3
   2077   2095   2082   2081     1  180.0000771  0.4184000  2
   2077   2095   2082   2081     1  0.0000000  1.6024720  3
   2078   2080   2081   2082     1  180.0000771  0.8368000  1
   2078   2080   2081   2082     1  180.0000771  1.0460000  2
   2078   2080   2081   2082     1  0.0000000  0.7531200  3
   2078   2080   2081   2100     1  0.0000000  0.6508444  3
   2078   2077   2088   2093     1  0.0000000  0.6508444  3
   2078   2077   2095   2082     1  180.0000771  0.4184000  2
   2078   2077   2095   2082     1  0.0000000  1.6024720  3
   2080   2081   2082   2086     1  0.0000000  0.6508444  3
   2080   2081   2082   2095     1  0.0000000  0.6508444  3
   2080   2078   2077   2088     1  180.0000771  0.8368000  1
   2080   2078   2077   2088     1  180.0000771  1.0460000  2
   2080   2078   2077   2088     1  0.0000000  0.7531200  3
   2080   2078   2077   2095     1  0.0000000  0.6508444  3
   2081   2080   2078   2098     1  0.0000000  0.6508444  3
   2082   2095   2077   2088     1  180.0000771  0.4184000  2
   2082   2095   2077   2088     1  0.0000000  1.6024720  3
   2082   2081   2080   2087     1  0.0000000  0.6508444  3
   2086   2082   2081   2100     1  0.0000000  0.6508444  3
   2087   2080   2081   2100     1  0.0000000  0.6508444  3
   2087   2080   2078   2098     1  0.0000000  4.9162000  2
   2087   2080   2078   2098     1  0.0000000  0.6024960  3
   2088   2077   2078   2098     1  0.0000000  0.6508444  3
   2093   2088   2077   2095     1  0.0000000  4.9162000  2
   2093   2088   2077   2095     1  0.0000000  0.6024960  3
   2095   2082   2081   2100     1  0.0000000  0.6508444  3
   2095   2077   2078   2098     1  0.0000000  4.9162000  2
   2095   2077   2078   2098     1  0.0000000  0.6024960  3
   2101   2102   2104   2105     1  180.0000771  0.8368000  1
   2101   2102   2104   2105     1  180.0000771  1.0460000  2
   2101   2102   2104   2105     1  0.0000000  0.7531200  3
   2101   2102   2104   2111     1  0.0000000  0.6508444  3
   2101   2119   2106   2110     1  0.0000000  1.6038667  3
   2101   2119   2106   2105     1  180.0000771  0.4184000  2
   2101   2119   2106   2105     1  0.0000000  1.6024720  3
   2102   2104   2105   2106     1  180.0000771  0.8368000  1
   2102   2104   2105   2106     1  180.0000771  1.0460000  2
   2102   2104   2105   2106     1  0.0000000  0.7531200  3
   2102   2104   2105   2124     1  0.0000000  0.6508444  3
   2102   2101   2112   2117     1  0.0000000  0.6508444  3
   2102   2101   2119   2106     1  180.0000771  0.4184000  2
   2102   2101   2119   2106     1  0.0000000  1.6024720  3
   2104   2105   2106   2110     1  0.0000000  0.6508444  3
   2104   2105   2106   2119     1  0.0000000  0.6508444  3
   2104   2102   2101   2112     1  180.0000771  0.8368000  1
   2104   2102   2101   2112     1  180.0000771  1.0460000  2
   2104   2102   2101   2112     1  0.0000000  0.7531200  3
   2104   2102   2101   2119     1  0.0000000  0.6508444  3
   2105   2104   2102   2122     1  0.0000000  0.6508444  3
   2106   2119   2101   2112     1  180.0000771  0.4184000  2
   2106   2119   2101   2112     1  0.0000000  1.6024720  3
   2106   2105   2104   2111     1  0.0000000  0.6508444  3
   2110   2106   2105   2124     1  0.0000000  0.6508444  3
   2111   2104   2105   2124     1  0.0000000  0.6508444  3
   2111   2104   2102   2122     1  0.0000000  4.9162000  2
   2111   2104   2102   2122     1  0.0000000  0.6024960  3
   2112   2101   2102   2122     1  0.0000000  0.6508444  3
   2117   2112   2101   2119     1  0.0000000  4.9162000  2
   2117   2112   2101   2119     1  0.0000000  0.6024960  3
   2119   2106   2105   2124     1  0.0000000  0.6508444  3
   2119   2101   2102   2122     1  0.0000000  4.9162000  2
   2119   2101   2102   2122     1  0.0000000  0.6024960  3
   2125   2127   2129   2133     1  0.0000000  0.6508444  3
   2127   2129   2133   2134     1  180.0000771  2.0083200  2
   2127   2129   2133   2134     1  0.0000000  1.2552000  3
   2127   2129   2133   2135     1  180.0000771  2.0083200  2
   2127   2129   2133   2135     1  0.0000000  1.2552000  3
   2129   2133   2134   2145     1  180.0000771  2.0083200  2
   2129   2133   2134   2145     1  0.0000000  1.2552000  3
   2129   2133   2135   2137     1  180.0000771  2.0083200  2
   2129   2133   2135   2137     1  0.0000000  1.2552000  3
   2133   2134   2145   2148     1  0.0000000  0.6508444  3
   2133   2135   2137   2141     1  0.0000000  0.6508444  3
   2134   2133   2135   2137     1  180.0000771  2.0083200  2
   2134   2133   2135   2137     1  0.0000000  1.2552000  3
   2134   2145   2148   2149     1  180.0000771  0.0000000  2
   2134   2145   2148   2197     1  180.0000771  0.0000000  2
   2135   2133   2134   2145     1  180.0000771  2.0083200  2
   2135   2133   2134   2145     1  0.0000000  1.2552000  3
   2135   2137   2141   2142     1  180.0000771  0.0000000  2
   2135   2137   2141   2173     1  180.0000771  0.0000000  2
   2137   2141   2173   2154     1  180.0000771  6.0668000  2
   2137   2141   2173   2154     1  180.0000771  1.4644000  4
   2141   2173   2154   2153     1  0.0000000  1.2552000  3
   2141   2173   2154   2155     1  0.0000000  1.2552000  3
   2142   2141   2173   2154     1  180.0000771  6.0668000  2
   2142   2141   2173   2154     1  180.0000771  1.4644000  4
   2145   2148   2197   2178     1  180.0000771  6.0668000  2
   2145   2148   2197   2178     1  180.0000771  1.4644000  4
   2148   2197   2178   2177     1  0.0000000  1.2552000  3
   2148   2197   2178   2179     1  0.0000000  1.2552000  3
   2149   2148   2197   2178     1  180.0000771  6.0668000  2
   2149   2148   2197   2178     1  180.0000771  1.4644000  4
   2150   2151   2153   2154     1  180.0000771  0.8368000  1
   2150   2151   2153   2154     1  180.0000771  1.0460000  2
   2150   2151   2153   2154     1  0.0000000  0.7531200  3
   2150   2151   2153   2160     1  0.0000000  0.6508444  3
   2150   2168   2155   2154     1  180.0000771  0.4184000  2
   2150   2168   2155   2154     1  0.0000000  1.6024720  3
   2150   2168   2155   2159     1  0.0000000  1.6038667  3
   2151   2150   2161   2166     1  0.0000000  0.6508444  3
   2151   2150   2168   2155     1  180.0000771  0.4184000  2
   2151   2150   2168   2155     1  0.0000000  1.6024720  3
   2151   2153   2154   2155     1  180.0000771  0.8368000  1
   2151   2153   2154   2155     1  180.0000771  1.0460000  2
   2151   2153   2154   2155     1  0.0000000  0.7531200  3
   2151   2153   2154   2173     1  0.0000000  0.6508444  3
   2153   2151   2150   2161     1  180.0000771  0.8368000  1
   2153   2151   2150   2161     1  180.0000771  1.0460000  2
   2153   2151   2150   2161     1  0.0000000  0.7531200  3
   2153   2151   2150   2168     1  0.0000000  0.6508444  3
   2153   2154   2155   2159     1  0.0000000  0.6508444  3
   2153   2154   2155   2168     1  0.0000000  0.6508444  3
   2154   2153   2151   2171     1  0.0000000  0.6508444  3
   2155   2154   2153   2160     1  0.0000000  0.6508444  3
   2155   2168   2150   2161     1  180.0000771  0.4184000  2
   2155   2168   2150   2161     1  0.0000000  1.6024720  3
   2159   2155   2154   2173     1  0.0000000  0.6508444  3
   2160   2153   2151   2171     1  0.0000000  4.9162000  2
   2160   2153   2151   2171     1  0.0000000  0.6024960  3
   2160   2153   2154   2173     1  0.0000000  0.6508444  3
   2161   2150   2151   2171     1  0.0000000  0.6508444  3
   2166   2161   2150   2168     1  0.0000000  4.9162000  2
   2166   2161   2150   2168     1  0.0000000  0.6024960  3
   2168   2150   2151   2171     1  0.0000000  4.9162000  2
   2168   2150   2151   2171     1  0.0000000  0.6024960  3
   2168   2155   2154   2173     1  0.0000000  0.6508444  3
   2174   2175   2177   2178     1  180.0000771  0.8368000  1
   2174   2175   2177   2178     1  180.0000771  1.0460000  2
   2174   2175   2177   2178     1  0.0000000  0.7531200  3
   2174   2175   2177   2184     1  0.0000000  0.6508444  3
   2174   2192   2179   2178     1  180.0000771  0.4184000  2
   2174   2192   2179   2178     1  0.0000000  1.6024720  3
   2174   2192   2179   2183     1  0.0000000  1.6038667  3
   2175   2174   2185   2190     1  0.0000000  0.6508444  3
   2175   2174   2192   2179     1  180.0000771  0.4184000  2
   2175   2174   2192   2179     1  0.0000000  1.6024720  3
   2175   2177   2178   2179     1  180.0000771  0.8368000  1
   2175   2177   2178   2179     1  180.0000771  1.0460000  2
   2175   2177   2178   2179     1  0.0000000  0.7531200  3
   2175   2177   2178   2197     1  0.0000000  0.6508444  3
   2177   2175   2174   2185     1  180.0000771  0.8368000  1
   2177   2175   2174   2185     1  180.0000771  1.0460000  2
   2177   2175   2174   2185     1  0.0000000  0.7531200  3
   2177   2175   2174   2192     1  0.0000000  0.6508444  3
   2177   2178   2179   2183     1  0.0000000  0.6508444  3
   2177   2178   2179   2192     1  0.0000000  0.6508444  3
   2178   2177   2175   2195     1  0.0000000  0.6508444  3
   2179   2178   2177   2184     1  0.0000000  0.6508444  3
   2179   2192   2174   2185     1  180.0000771  0.4184000  2
   2179   2192   2174   2185     1  0.0000000  1.6024720  3
   2183   2179   2178   2197     1  0.0000000  0.6508444  3
   2184   2177   2175   2195     1  0.0000000  4.9162000  2
   2184   2177   2175   2195     1  0.0000000  0.6024960  3
   2184   2177   2178   2197     1  0.0000000  0.6508444  3
   2185   2174   2175   2195     1  0.0000000  0.6508444  3
   2190   2185   2174   2192     1  0.0000000  4.9162000  2
   2190   2185   2174   2192     1  0.0000000  0.6024960  3
   2192   2174   2175   2195     1  0.0000000  4.9162000  2
   2192   2174   2175   2195     1  0.0000000  0.6024960  3
   2192   2179   2178   2197     1  0.0000000  0.6508444  3
   2198   2200   2202   2206     1  0.0000000  0.6508444  3
   2200   2202   2206   2207     1  180.0000771  2.0083200  2
   2200   2202   2206   2207     1  0.0000000  1.2552000  3
   2200   2202   2206   2208     1  180.0000771  2.0083200  2
   2200   2202   2206   2208     1  0.0000000  1.2552000  3
   2202   2206   2207   2218     1  180.0000771  2.0083200  2
   2202   2206   2207   2218     1  0.0000000  1.2552000  3
   2202   2206   2208   2210     1  180.0000771  2.0083200  2
   2202   2206   2208   2210     1  0.0000000  1.2552000  3
   2206   2207   2218   2221     1  0.0000000  0.6508444  3
   2206   2208   2210   2214     1  0.0000000  0.6508444  3
   2207   2218   2221   2222     1  180.0000771  0.0000000  2
   2207   2218   2221   2270     1  180.0000771  0.0000000  2
   2207   2206   2208   2210     1  180.0000771  2.0083200  2
   2207   2206   2208   2210     1  0.0000000  1.2552000  3
   2208   2210   2214   2215     1  180.0000771  0.0000000  2
   2208   2210   2214   2246     1  180.0000771  0.0000000  2
   2208   2206   2207   2218     1  180.0000771  2.0083200  2
   2208   2206   2207   2218     1  0.0000000  1.2552000  3
   2210   2214   2246   2227     1  180.0000771  6.0668000  2
   2210   2214   2246   2227     1  180.0000771  1.4644000  4
   2214   2246   2227   2228     1  0.0000000  1.2552000  3
   2214   2246   2227   2226     1  0.0000000  1.2552000  3
   2215   2214   2246   2227     1  180.0000771  6.0668000  2
   2215   2214   2246   2227     1  180.0000771  1.4644000  4
   2218   2221   2270   2251     1  180.0000771  6.0668000  2
   2218   2221   2270   2251     1  180.0000771  1.4644000  4
   2221   2270   2251   2252     1  0.0000000  1.2552000  3
   2221   2270   2251   2250     1  0.0000000  1.2552000  3
   2222   2221   2270   2251     1  180.0000771  6.0668000  2
   2222   2221   2270   2251     1  180.0000771  1.4644000  4
   2223   2224   2226   2227     1  180.0000771  0.8368000  1
   2223   2224   2226   2227     1  180.0000771  1.0460000  2
   2223   2224   2226   2227     1  0.0000000  0.7531200  3
   2223   2224   2226   2233     1  0.0000000  0.6508444  3
   2223   2241   2228   2232     1  0.0000000  1.6038667  3
   2223   2241   2228   2227     1  180.0000771  0.4184000  2
   2223   2241   2228   2227     1  0.0000000  1.6024720  3
   2224   2226   2227   2228     1  180.0000771  0.8368000  1
   2224   2226   2227   2228     1  180.0000771  1.0460000  2
   2224   2226   2227   2228     1  0.0000000  0.7531200  3
   2224   2226   2227   2246     1  0.0000000  0.6508444  3
   2224   2223   2234   2239     1  0.0000000  0.6508444  3
   2224   2223   2241   2228     1  180.0000771  0.4184000  2
   2224   2223   2241   2228     1  0.0000000  1.6024720  3
   2226   2227   2228   2232     1  0.0000000  0.6508444  3
   2226   2227   2228   2241     1  0.0000000  0.6508444  3
   2226   2224   2223   2234     1  180.0000771  0.8368000  1
   2226   2224   2223   2234     1  180.0000771  1.0460000  2
   2226   2224   2223   2234     1  0.0000000  0.7531200  3
   2226   2224   2223   2241     1  0.0000000  0.6508444  3
   2227   2226   2224   2244     1  0.0000000  0.6508444  3
   2228   2241   2223   2234     1  180.0000771  0.4184000  2
   2228   2241   2223   2234     1  0.0000000  1.6024720  3
   2228   2227   2226   2233     1  0.0000000  0.6508444  3
   2232   2228   2227   2246     1  0.0000000  0.6508444  3
   2233   2226   2227   2246     1  0.0000000  0.6508444  3
   2233   2226   2224   2244     1  0.0000000  4.9162000  2
   2233   2226   2224   2244     1  0.0000000  0.6024960  3
   2234   2223   2224   2244     1  0.0000000  0.6508444  3
   2239   2234   2223   2241     1  0.0000000  4.9162000  2
   2239   2234   2223   2241     1  0.0000000  0.6024960  3
   2241   2228   2227   2246     1  0.0000000  0.6508444  3
   2241   2223   2224   2244     1  0.0000000  4.9162000  2
   2241   2223   2224   2244     1  0.0000000  0.6024960  3
   2247   2248   2250   2251     1  180.0000771  0.8368000  1
   2247   2248   2250   2251     1  180.0000771  1.0460000  2
   2247   2248   2250   2251     1  0.0000000  0.7531200  3
   2247   2248   2250   2257     1  0.0000000  0.6508444  3
   2247   2265   2252   2256     1  0.0000000  1.6038667  3
   2247   2265   2252   2251     1  180.0000771  0.4184000  2
   2247   2265   2252   2251     1  0.0000000  1.6024720  3
   2248   2250   2251   2252     1  180.0000771  0.8368000  1
   2248   2250   2251   2252     1  180.0000771  1.0460000  2
   2248   2250   2251   2252     1  0.0000000  0.7531200  3
   2248   2250   2251   2270     1  0.0000000  0.6508444  3
   2248   2247   2258   2263     1  0.0000000  0.6508444  3
   2248   2247   2265   2252     1  180.0000771  0.4184000  2
   2248   2247   2265   2252     1  0.0000000  1.6024720  3
   2250   2251   2252   2256     1  0.0000000  0.6508444  3
   2250   2251   2252   2265     1  0.0000000  0.6508444  3
   2250   2248   2247   2258     1  180.0000771  0.8368000  1
   2250   2248   2247   2258     1  180.0000771  1.0460000  2
   2250   2248   2247   2258     1  0.0000000  0.7531200  3
   2250   2248   2247   2265     1  0.0000000  0.6508444  3
   2251   2250   2248   2268     1  0.0000000  0.6508444  3
   2252   2265   2247   2258     1  180.0000771  0.4184000  2
   2252   2265   2247   2258     1  0.0000000  1.6024720  3
   2252   2251   2250   2257     1  0.0000000  0.6508444  3
   2256   2252   2251   2270     1  0.0000000  0.6508444  3
   2257   2250   2251   2270     1  0.0000000  0.6508444  3
   2257   2250   2248   2268     1  0.0000000  4.9162000  2
   2257   2250   2248   2268     1  0.0000000  0.6024960  3
   2258   2247   2248   2268     1  0.0000000  0.6508444  3
   2263   2258   2247   2265     1  0.0000000  4.9162000  2
   2263   2258   2247   2265     1  0.0000000  0.6024960  3
   2265   2252   2251   2270     1  0.0000000  0.6508444  3
   2265   2247   2248   2268     1  0.0000000  4.9162000  2
   2265   2247   2248   2268     1  0.0000000  0.6024960  3
   2271   2273   2275   2279     1  0.0000000  0.6508444  3
   2273   2275   2279   2280     1  180.0000771  2.0083200  2
   2273   2275   2279   2280     1  0.0000000  1.2552000  3
   2273   2275   2279   2281     1  180.0000771  2.0083200  2
   2273   2275   2279   2281     1  0.0000000  1.2552000  3
   2275   2279   2280   2291     1  180.0000771  2.0083200  2
   2275   2279   2280   2291     1  0.0000000  1.2552000  3
   2275   2279   2281   2283     1  180.0000771  2.0083200  2
   2275   2279   2281   2283     1  0.0000000  1.2552000  3
   2279   2280   2291   2294     1  0.0000000  0.6508444  3
   2279   2281   2283   2287     1  0.0000000  0.6508444  3
   2280   2279   2281   2283     1  180.0000771  2.0083200  2
   2280   2279   2281   2283     1  0.0000000  1.2552000  3
   2280   2291   2294   2295     1  180.0000771  0.0000000  2
   2280   2291   2294   2343     1  180.0000771  0.0000000  2
   2281   2279   2280   2291     1  180.0000771  2.0083200  2
   2281   2279   2280   2291     1  0.0000000  1.2552000  3
   2281   2283   2287   2288     1  180.0000771  0.0000000  2
   2281   2283   2287   2319     1  180.0000771  0.0000000  2
   2283   2287   2319   2300     1  180.0000771  6.0668000  2
   2283   2287   2319   2300     1  180.0000771  1.4644000  4
   2287   2319   2300   2299     1  0.0000000  1.2552000  3
   2287   2319   2300   2301     1  0.0000000  1.2552000  3
   2288   2287   2319   2300     1  180.0000771  6.0668000  2
   2288   2287   2319   2300     1  180.0000771  1.4644000  4
   2291   2294   2343   2324     1  180.0000771  6.0668000  2
   2291   2294   2343   2324     1  180.0000771  1.4644000  4
   2294   2343   2324   2323     1  0.0000000  1.2552000  3
   2294   2343   2324   2325     1  0.0000000  1.2552000  3
   2295   2294   2343   2324     1  180.0000771  6.0668000  2
   2295   2294   2343   2324     1  180.0000771  1.4644000  4
   2296   2297   2299   2300     1  180.0000771  0.8368000  1
   2296   2297   2299   2300     1  180.0000771  1.0460000  2
   2296   2297   2299   2300     1  0.0000000  0.7531200  3
   2296   2297   2299   2306     1  0.0000000  0.6508444  3
   2296   2314   2301   2300     1  180.0000771  0.4184000  2
   2296   2314   2301   2300     1  0.0000000  1.6024720  3
   2296   2314   2301   2305     1  0.0000000  1.6038667  3
   2297   2296   2307   2312     1  0.0000000  0.6508444  3
   2297   2296   2314   2301     1  180.0000771  0.4184000  2
   2297   2296   2314   2301     1  0.0000000  1.6024720  3
   2297   2299   2300   2301     1  180.0000771  0.8368000  1
   2297   2299   2300   2301     1  180.0000771  1.0460000  2
   2297   2299   2300   2301     1  0.0000000  0.7531200  3
   2297   2299   2300   2319     1  0.0000000  0.6508444  3
   2299   2297   2296   2307     1  180.0000771  0.8368000  1
   2299   2297   2296   2307     1  180.0000771  1.0460000  2
   2299   2297   2296   2307     1  0.0000000  0.7531200  3
   2299   2297   2296   2314     1  0.0000000  0.6508444  3
   2299   2300   2301   2305     1  0.0000000  0.6508444  3
   2299   2300   2301   2314     1  0.0000000  0.6508444  3
   2300   2299   2297   2317     1  0.0000000  0.6508444  3
   2301   2300   2299   2306     1  0.0000000  0.6508444  3
   2301   2314   2296   2307     1  180.0000771  0.4184000  2
   2301   2314   2296   2307     1  0.0000000  1.6024720  3
   2305   2301   2300   2319     1  0.0000000  0.6508444  3
   2306   2299   2297   2317     1  0.0000000  4.9162000  2
   2306   2299   2297   2317     1  0.0000000  0.6024960  3
   2306   2299   2300   2319     1  0.0000000  0.6508444  3
   2307   2296   2297   2317     1  0.0000000  0.6508444  3
   2312   2307   2296   2314     1  0.0000000  4.9162000  2
   2312   2307   2296   2314     1  0.0000000  0.6024960  3
   2314   2296   2297   2317     1  0.0000000  4.9162000  2
   2314   2296   2297   2317     1  0.0000000  0.6024960  3
   2314   2301   2300   2319     1  0.0000000  0.6508444  3
   2320   2321   2323   2324     1  180.0000771  0.8368000  1
   2320   2321   2323   2324     1  180.0000771  1.0460000  2
   2320   2321   2323   2324     1  0.0000000  0.7531200  3
   2320   2321   2323   2330     1  0.0000000  0.6508444  3
   2320   2338   2325   2324     1  180.0000771  0.4184000  2
   2320   2338   2325   2324     1  0.0000000  1.6024720  3
   2320   2338   2325   2329     1  0.0000000  1.6038667  3
   2321   2320   2331   2336     1  0.0000000  0.6508444  3
   2321   2320   2338   2325     1  180.0000771  0.4184000  2
   2321   2320   2338   2325     1  0.0000000  1.6024720  3
   2321   2323   2324   2325     1  180.0000771  0.8368000  1
   2321   2323   2324   2325     1  180.0000771  1.0460000  2
   2321   2323   2324   2325     1  0.0000000  0.7531200  3
   2321   2323   2324   2343     1  0.0000000  0.6508444  3
   2323   2321   2320   2331     1  180.0000771  0.8368000  1
   2323   2321   2320   2331     1  180.0000771  1.0460000  2
   2323   2321   2320   2331     1  0.0000000  0.7531200  3
   2323   2321   2320   2338     1  0.0000000  0.6508444  3
   2323   2324   2325   2329     1  0.0000000  0.6508444  3
   2323   2324   2325   2338     1  0.0000000  0.6508444  3
   2324   2323   2321   2341     1  0.0000000  0.6508444  3
   2325   2324   2323   2330     1  0.0000000  0.6508444  3
   2325   2338   2320   2331     1  180.0000771  0.4184000  2
   2325   2338   2320   2331     1  0.0000000  1.6024720  3
   2329   2325   2324   2343     1  0.0000000  0.6508444  3
   2330   2323   2321   2341     1  0.0000000  4.9162000  2
   2330   2323   2321   2341     1  0.0000000  0.6024960  3
   2330   2323   2324   2343     1  0.0000000  0.6508444  3
   2331   2320   2321   2341     1  0.0000000  0.6508444  3
   2336   2331   2320   2338     1  0.0000000  4.9162000  2
   2336   2331   2320   2338     1  0.0000000  0.6024960  3
   2338   2320   2321   2341     1  0.0000000  4.9162000  2
   2338   2320   2321   2341     1  0.0000000  0.6024960  3
   2338   2325   2324   2343     1  0.0000000  0.6508444  3
   2344   2346   2348   2352     1  0.0000000  0.6508444  3
   2346   2348   2352   2353     1  180.0000771  2.0083200  2
   2346   2348   2352   2353     1  0.0000000  1.2552000  3
   2346   2348   2352   2354     1  180.0000771  2.0083200  2
   2346   2348   2352   2354     1  0.0000000  1.2552000  3
   2348   2352   2353   2364     1  180.0000771  2.0083200  2
   2348   2352   2353   2364     1  0.0000000  1.2552000  3
   2348   2352   2354   2356     1  180.0000771  2.0083200  2
   2348   2352   2354   2356     1  0.0000000  1.2552000  3
   2352   2353   2364   2367     1  0.0000000  0.6508444  3
   2352   2354   2356   2360     1  0.0000000  0.6508444  3
   2353   2364   2367   2368     1  180.0000771  0.0000000  2
   2353   2364   2367   2416     1  180.0000771  0.0000000  2
   2353   2352   2354   2356     1  180.0000771  2.0083200  2
   2353   2352   2354   2356     1  0.0000000  1.2552000  3
   2354   2356   2360   2361     1  180.0000771  0.0000000  2
   2354   2356   2360   2392     1  180.0000771  0.0000000  2
   2354   2352   2353   2364     1  180.0000771  2.0083200  2
   2354   2352   2353   2364     1  0.0000000  1.2552000  3
   2356   2360   2392   2373     1  180.0000771  6.0668000  2
   2356   2360   2392   2373     1  180.0000771  1.4644000  4
   2360   2392   2373   2374     1  0.0000000  1.2552000  3
   2360   2392   2373   2372     1  0.0000000  1.2552000  3
   2361   2360   2392   2373     1  180.0000771  6.0668000  2
   2361   2360   2392   2373     1  180.0000771  1.4644000  4
   2364   2367   2416   2397     1  180.0000771  6.0668000  2
   2364   2367   2416   2397     1  180.0000771  1.4644000  4
   2367   2416   2397   2398     1  0.0000000  1.2552000  3
   2367   2416   2397   2396     1  0.0000000  1.2552000  3
   2368   2367   2416   2397     1  180.0000771  6.0668000  2
   2368   2367   2416   2397     1  180.0000771  1.4644000  4
   2369   2370   2372   2373     1  180.0000771  0.8368000  1
   2369   2370   2372   2373     1  180.0000771  1.0460000  2
   2369   2370   2372   2373     1  0.0000000  0.7531200  3
   2369   2370   2372   2379     1  0.0000000  0.6508444  3
   2369   2387   2374   2378     1  0.0000000  1.6038667  3
   2369   2387   2374   2373     1  180.0000771  0.4184000  2
   2369   2387   2374   2373     1  0.0000000  1.6024720  3
   2370   2372   2373   2374     1  180.0000771  0.8368000  1
   2370   2372   2373   2374     1  180.0000771  1.0460000  2
   2370   2372   2373   2374     1  0.0000000  0.7531200  3
   2370   2372   2373   2392     1  0.0000000  0.6508444  3
   2370   2369   2380   2385     1  0.0000000  0.6508444  3
   2370   2369   2387   2374     1  180.0000771  0.4184000  2
   2370   2369   2387   2374     1  0.0000000  1.6024720  3
   2372   2373   2374   2378     1  0.0000000  0.6508444  3
   2372   2373   2374   2387     1  0.0000000  0.6508444  3
   2372   2370   2369   2380     1  180.0000771  0.8368000  1
   2372   2370   2369   2380     1  180.0000771  1.0460000  2
   2372   2370   2369   2380     1  0.0000000  0.7531200  3
   2372   2370   2369   2387     1  0.0000000  0.6508444  3
   2373   2372   2370   2390     1  0.0000000  0.6508444  3
   2374   2387   2369   2380     1  180.0000771  0.4184000  2
   2374   2387   2369   2380     1  0.0000000  1.6024720  3
   2374   2373   2372   2379     1  0.0000000  0.6508444  3
   2378   2374   2373   2392     1  0.0000000  0.6508444  3
   2379   2372   2373   2392     1  0.0000000  0.6508444  3
   2379   2372   2370   2390     1  0.0000000  4.9162000  2
   2379   2372   2370   2390     1  0.0000000  0.6024960  3
   2380   2369   2370   2390     1  0.0000000  0.6508444  3
   2385   2380   2369   2387     1  0.0000000  4.9162000  2
   2385   2380   2369   2387     1  0.0000000  0.6024960  3
   2387   2374   2373   2392     1  0.0000000  0.6508444  3
   2387   2369   2370   2390     1  0.0000000  4.9162000  2
   2387   2369   2370   2390     1  0.0000000  0.6024960  3
   2393   2394   2396   2397     1  180.0000771  0.8368000  1
   2393   2394   2396   2397     1  180.0000771  1.0460000  2
   2393   2394   2396   2397     1  0.0000000  0.7531200  3
   2393   2394   2396   2403     1  0.0000000  0.6508444  3
   2393   2411   2398   2402     1  0.0000000  1.6038667  3
   2393   2411   2398   2397     1  180.0000771  0.4184000  2
   2393   2411   2398   2397     1  0.0000000  1.6024720  3
   2394   2396   2397   2398     1  180.0000771  0.8368000  1
   2394   2396   2397   2398     1  180.0000771  1.0460000  2
   2394   2396   2397   2398     1  0.0000000  0.7531200  3
   2394   2396   2397   2416     1  0.0000000  0.6508444  3
   2394   2393   2404   2409     1  0.0000000  0.6508444  3
   2394   2393   2411   2398     1  180.0000771  0.4184000  2
   2394   2393   2411   2398     1  0.0000000  1.6024720  3
   2396   2397   2398   2402     1  0.0000000  0.6508444  3
   2396   2397   2398   2411     1  0.0000000  0.6508444  3
   2396   2394   2393   2404     1  180.0000771  0.8368000  1
   2396   2394   2393   2404     1  180.0000771  1.0460000  2
   2396   2394   2393   2404     1  0.0000000  0.7531200  3
   2396   2394   2393   2411     1  0.0000000  0.6508444  3
   2397   2396   2394   2414     1  0.0000000  0.6508444  3
   2398   2411   2393   2404     1  180.0000771  0.4184000  2
   2398   2411   2393   2404     1  0.0000000  1.6024720  3
   2398   2397   2396   2403     1  0.0000000  0.6508444  3
   2402   2398   2397   2416     1  0.0000000  0.6508444  3
   2403   2396   2397   2416     1  0.0000000  0.6508444  3
   2403   2396   2394   2414     1  0.0000000  4.9162000  2
   2403   2396   2394   2414     1  0.0000000  0.6024960  3
   2404   2393   2394   2414     1  0.0000000  0.6508444  3
   2409   2404   2393   2411     1  0.0000000  4.9162000  2
   2409   2404   2393   2411     1  0.0000000  0.6024960  3
   2411   2398   2397   2416     1  0.0000000  0.6508444  3
   2411   2393   2394   2414     1  0.0000000  4.9162000  2
   2411   2393   2394   2414     1  0.0000000  0.6024960  3
   2417   2419   2421   2425     1  0.0000000  0.6508444  3
   2419   2421   2425   2426     1  180.0000771  2.0083200  2
   2419   2421   2425   2426     1  0.0000000  1.2552000  3
   2419   2421   2425   2427     1  180.0000771  2.0083200  2
   2419   2421   2425   2427     1  0.0000000  1.2552000  3
   2421   2425   2426   2437     1  180.0000771  2.0083200  2
   2421   2425   2426   2437     1  0.0000000  1.2552000  3
   2421   2425   2427   2429     1  180.0000771  2.0083200  2
   2421   2425   2427   2429     1  0.0000000  1.2552000  3
   2425   2426   2437   2440     1  0.0000000  0.6508444  3
   2425   2427   2429   2433     1  0.0000000  0.6508444  3
   2426   2425   2427   2429     1  180.0000771  2.0083200  2
   2426   2425   2427   2429     1  0.0000000  1.2552000  3
   2426   2437   2440   2441     1  180.0000771  0.0000000  2
   2426   2437   2440   2489     1  180.0000771  0.0000000  2
   2427   2425   2426   2437     1  180.0000771  2.0083200  2
   2427   2425   2426   2437     1  0.0000000  1.2552000  3
   2427   2429   2433   2434     1  180.0000771  0.0000000  2
   2427   2429   2433   2465     1  180.0000771  0.0000000  2
   2429   2433   2465   2446     1  180.0000771  6.0668000  2
   2429   2433   2465   2446     1  180.0000771  1.4644000  4
   2433   2465   2446   2445     1  0.0000000  1.2552000  3
   2433   2465   2446   2447     1  0.0000000  1.2552000  3
   2434   2433   2465   2446     1  180.0000771  6.0668000  2
   2434   2433   2465   2446     1  180.0000771  1.4644000  4
   2437   2440   2489   2470     1  180.0000771  6.0668000  2
   2437   2440   2489   2470     1  180.0000771  1.4644000  4
   2440   2489   2470   2469     1  0.0000000  1.2552000  3
   2440   2489   2470   2471     1  0.0000000  1.2552000  3
   2441   2440   2489   2470     1  180.0000771  6.0668000  2
   2441   2440   2489   2470     1  180.0000771  1.4644000  4
   2442   2443   2445   2446     1  180.0000771  0.8368000  1
   2442   2443   2445   2446     1  180.0000771  1.0460000  2
   2442   2443   2445   2446     1  0.0000000  0.7531200  3
   2442   2443   2445   2452     1  0.0000000  0.6508444  3
   2442   2460   2447   2446     1  180.0000771  0.4184000  2
   2442   2460   2447   2446     1  0.0000000  1.6024720  3
   2442   2460   2447   2451     1  0.0000000  1.6038667  3
   2443   2442   2453   2458     1  0.0000000  0.6508444  3
   2443   2442   2460   2447     1  180.0000771  0.4184000  2
   2443   2442   2460   2447     1  0.0000000  1.6024720  3
   2443   2445   2446   2447     1  180.0000771  0.8368000  1
   2443   2445   2446   2447     1  180.0000771  1.0460000  2
   2443   2445   2446   2447     1  0.0000000  0.7531200  3
   2443   2445   2446   2465     1  0.0000000  0.6508444  3
   2445   2443   2442   2453     1  180.0000771  0.8368000  1
   2445   2443   2442   2453     1  180.0000771  1.0460000  2
   2445   2443   2442   2453     1  0.0000000  0.7531200  3
   2445   2443   2442   2460     1  0.0000000  0.6508444  3
   2445   2446   2447   2451     1  0.0000000  0.6508444  3
   2445   2446   2447   2460     1  0.0000000  0.6508444  3
   2446   2445   2443   2463     1  0.0000000  0.6508444  3
   2447   2446   2445   2452     1  0.0000000  0.6508444  3
   2447   2460   2442   2453     1  180.0000771  0.4184000  2
   2447   2460   2442   2453     1  0.0000000  1.6024720  3
   2451   2447   2446   2465     1  0.0000000  0.6508444  3
   2452   2445   2443   2463     1  0.0000000  4.9162000  2
   2452   2445   2443   2463     1  0.0000000  0.6024960  3
   2452   2445   2446   2465     1  0.0000000  0.6508444  3
   2453   2442   2443   2463     1  0.0000000  0.6508444  3
   2458   2453   2442   2460     1  0.0000000  4.9162000  2
   2458   2453   2442   2460     1  0.0000000  0.6024960  3
   2460   2442   2443   2463     1  0.0000000  4.9162000  2
   2460   2442   2443   2463     1  0.0000000  0.6024960  3
   2460   2447   2446   2465     1  0.0000000  0.6508444  3
   2466   2467   2469   2470     1  180.0000771  0.8368000  1
   2466   2467   2469   2470     1  180.0000771  1.0460000  2
   2466   2467   2469   2470     1  0.0000000  0.7531200  3
   2466   2467   2469   2476     1  0.0000000  0.6508444  3
   2466   2484   2471   2470     1  180.0000771  0.4184000  2
   2466   2484   2471   2470     1  0.0000000  1.6024720  3
   2466   2484   2471   2475     1  0.0000000  1.6038667  3
   2467   2466   2477   2482     1  0.0000000  0.6508444  3
   2467   2466   2484   2471     1  180.0000771  0.4184000  2
   2467   2466   2484   2471     1  0.0000000  1.6024720  3
   2467   2469   2470   2471     1  180.0000771  0.8368000  1
   2467   2469   2470   2471     1  180.0000771  1.0460000  2
   2467   2469   2470   2471     1  0.0000000  0.7531200  3
   2467   2469   2470   2489     1  0.0000000  0.6508444  3
   2469   2467   2466   2477     1  180.0000771  0.8368000  1
   2469   2467   2466   2477     1  180.0000771  1.0460000  2
   2469   2467   2466   2477     1  0.0000000  0.7531200  3
   2469   2467   2466   2484     1  0.0000000  0.6508444  3
   2469   2470   2471   2475     1  0.0000000  0.6508444  3
   2469   2470   2471   2484     1  0.0000000  0.6508444  3
   2470   2469   2467   2487     1  0.0000000  0.6508444  3
   2471   2470   2469   2476     1  0.0000000  0.6508444  3
   2471   2484   2466   2477     1  180.0000771  0.4184000  2
   2471   2484   2466   2477     1  0.0000000  1.6024720  3
   2475   2471   2470   2489     1  0.0000000  0.6508444  3
   2476   2469   2467   2487     1  0.0000000  4.9162000  2
   2476   2469   2467   2487     1  0.0000000  0.6024960  3
   2476   2469   2470   2489     1  0.0000000  0.6508444  3
   2477   2466   2467   2487     1  0.0000000  0.6508444  3
   2482   2477   2466   2484     1  0.0000000  4.9162000  2
   2482   2477   2466   2484     1  0.0000000  0.6024960  3
   2484   2466   2467   2487     1  0.0000000  4.9162000  2
   2484   2466   2467   2487     1  0.0000000  0.6024960  3
   2484   2471   2470   2489     1  0.0000000  0.6508444  3
   2490   2492   2494   2498     1  0.0000000  0.6508444  3
   2492   2494   2498   2499     1  180.0000771  2.0083200  2
   2492   2494   2498   2499     1  0.0000000  1.2552000  3
   2492   2494   2498   2500     1  180.0000771  2.0083200  2
   2492   2494   2498   2500     1  0.0000000  1.2552000  3
   2494   2498   2499   2510     1  180.0000771  2.0083200  2
   2494   2498   2499   2510     1  0.0000000  1.2552000  3
   2494   2498   2500   2502     1  180.0000771  2.0083200  2
   2494   2498   2500   2502     1  0.0000000  1.2552000  3
   2498   2499   2510   2513     1  0.0000000  0.6508444  3
   2498   2500   2502   2506     1  0.0000000  0.6508444  3
   2499   2510   2513   2514     1  180.0000771  0.0000000  2
   2499   2510   2513   2562     1  180.0000771  0.0000000  2
   2499   2498   2500   2502     1  180.0000771  2.0083200  2
   2499   2498   2500   2502     1  0.0000000  1.2552000  3
   2500   2502   2506   2507     1  180.0000771  0.0000000  2
   2500   2502   2506   2538     1  180.0000771  0.0000000  2
   2500   2498   2499   2510     1  180.0000771  2.0083200  2
   2500   2498   2499   2510     1  0.0000000  1.2552000  3
   2502   2506   2538   2519     1  180.0000771  6.0668000  2
   2502   2506   2538   2519     1  180.0000771  1.4644000  4
   2506   2538   2519   2520     1  0.0000000  1.2552000  3
   2506   2538   2519   2518     1  0.0000000  1.2552000  3
   2507   2506   2538   2519     1  180.0000771  6.0668000  2
   2507   2506   2538   2519     1  180.0000771  1.4644000  4
   2510   2513   2562   2543     1  180.0000771  6.0668000  2
   2510   2513   2562   2543     1  180.0000771  1.4644000  4
   2513   2562   2543   2544     1  0.0000000  1.2552000  3
   2513   2562   2543   2542     1  0.0000000  1.2552000  3
   2514   2513   2562   2543     1  180.0000771  6.0668000  2
   2514   2513   2562   2543     1  180.0000771  1.4644000  4
   2515   2516   2518   2519     1  180.0000771  0.8368000  1
   2515   2516   2518   2519     1  180.0000771  1.0460000  2
   2515   2516   2518   2519     1  0.0000000  0.7531200  3
   2515   2516   2518   2525     1  0.0000000  0.6508444  3
   2515   2533   2520   2524     1  0.0000000  1.6038667  3
   2515   2533   2520   2519     1  180.0000771  0.4184000  2
   2515   2533   2520   2519     1  0.0000000  1.6024720  3
   2516   2518   2519   2520     1  180.0000771  0.8368000  1
   2516   2518   2519   2520     1  180.0000771  1.0460000  2
   2516   2518   2519   2520     1  0.0000000  0.7531200  3
   2516   2518   2519   2538     1  0.0000000  0.6508444  3
   2516   2515   2526   2531     1  0.0000000  0.6508444  3
   2516   2515   2533   2520     1  180.0000771  0.4184000  2
   2516   2515   2533   2520     1  0.0000000  1.6024720  3
   2518   2519   2520   2524     1  0.0000000  0.6508444  3
   2518   2519   2520   2533     1  0.0000000  0.6508444  3
   2518   2516   2515   2526     1  180.0000771  0.8368000  1
   2518   2516   2515   2526     1  180.0000771  1.0460000  2
   2518   2516   2515   2526     1  0.0000000  0.7531200  3
   2518   2516   2515   2533     1  0.0000000  0.6508444  3
   2519   2518   2516   2536     1  0.0000000  0.6508444  3
   2520   2533   2515   2526     1  180.0000771  0.4184000  2
   2520   2533   2515   2526     1  0.0000000  1.6024720  3
   2520   2519   2518   2525     1  0.0000000  0.6508444  3
   2524   2520   2519   2538     1  0.0000000  0.6508444  3
   2525   2518   2519   2538     1  0.0000000  0.6508444  3
   2525   2518   2516   2536     1  0.0000000  4.9162000  2
   2525   2518   2516   2536     1  0.0000000  0.6024960  3
   2526   2515   2516   2536     1  0.0000000  0.6508444  3
   2531   2526   2515   2533     1  0.0000000  4.9162000  2
   2531   2526   2515   2533     1  0.0000000  0.6024960  3
   2533   2520   2519   2538     1  0.0000000  0.6508444  3
   2533   2515   2516   2536     1  0.0000000  4.9162000  2
   2533   2515   2516   2536     1  0.0000000  0.6024960  3
   2539   2540   2542   2543     1  180.0000771  0.8368000  1
   2539   2540   2542   2543     1  180.0000771  1.0460000  2
   2539   2540   2542   2543     1  0.0000000  0.7531200  3
   2539   2540   2542   2549     1  0.0000000  0.6508444  3
   2539   2557   2544   2548     1  0.0000000  1.6038667  3
   2539   2557   2544   2543     1  180.0000771  0.4184000  2
   2539   2557   2544   2543     1  0.0000000  1.6024720  3
   2540   2542   2543   2544     1  180.0000771  0.8368000  1
   2540   2542   2543   2544     1  180.0000771  1.0460000  2
   2540   2542   2543   2544     1  0.0000000  0.7531200  3
   2540   2542   2543   2562     1  0.0000000  0.6508444  3
   2540   2539   2550   2555     1  0.0000000  0.6508444  3
   2540   2539   2557   2544     1  180.0000771  0.4184000  2
   2540   2539   2557   2544     1  0.0000000  1.6024720  3
   2542   2543   2544   2548     1  0.0000000  0.6508444  3
   2542   2543   2544   2557     1  0.0000000  0.6508444  3
   2542   2540   2539   2550     1  180.0000771  0.8368000  1
   2542   2540   2539   2550     1  180.0000771  1.0460000  2
   2542   2540   2539   2550     1  0.0000000  0.7531200  3
   2542   2540   2539   2557     1  0.0000000  0.6508444  3
   2543   2542   2540   2560     1  0.0000000  0.6508444  3
   2544   2557   2539   2550     1  180.0000771  0.4184000  2
   2544   2557   2539   2550     1  0.0000000  1.6024720  3
   2544   2543   2542   2549     1  0.0000000  0.6508444  3
   2548   2544   2543   2562     1  0.0000000  0.6508444  3
   2549   2542   2543   2562     1  0.0000000  0.6508444  3
   2549   2542   2540   2560     1  0.0000000  4.9162000  2
   2549   2542   2540   2560     1  0.0000000  0.6024960  3
   2550   2539   2540   2560     1  0.0000000  0.6508444  3
   2555   2550   2539   2557     1  0.0000000  4.9162000  2
   2555   2550   2539   2557     1  0.0000000  0.6024960  3
   2557   2544   2543   2562     1  0.0000000  0.6508444  3
   2557   2539   2540   2560     1  0.0000000  4.9162000  2
   2557   2539   2540   2560     1  0.0000000  0.6024960  3
   2563   2565   2567   2571     1  0.0000000  0.6508444  3
   2565   2567   2571   2572     1  180.0000771  2.0083200  2
   2565   2567   2571   2572     1  0.0000000  1.2552000  3
   2565   2567   2571   2573     1  180.0000771  2.0083200  2
   2565   2567   2571   2573     1  0.0000000  1.2552000  3
   2567   2571   2572   2583     1  180.0000771  2.0083200  2
   2567   2571   2572   2583     1  0.0000000  1.2552000  3
   2567   2571   2573   2575     1  180.0000771  2.0083200  2
   2567   2571   2573   2575     1  0.0000000  1.2552000  3
   2571   2572   2583   2586     1  0.0000000  0.6508444  3
   2571   2573   2575   2579     1  0.0000000  0.6508444  3
   2572   2571   2573   2575     1  180.0000771  2.0083200  2
   2572   2571   2573   2575     1  0.0000000  1.2552000  3
   2572   2583   2586   2587     1  180.0000771  0.0000000  2
   2572   2583   2586   2635     1  180.0000771  0.0000000  2
   2573   2571   2572   2583     1  180.0000771  2.0083200  2
   2573   2571   2572   2583     1  0.0000000  1.2552000  3
   2573   2575   2579   2580     1  180.0000771  0.0000000  2
   2573   2575   2579   2611     1  180.0000771  0.0000000  2
   2575   2579   2611   2592     1  180.0000771  6.0668000  2
   2575   2579   2611   2592     1  180.0000771  1.4644000  4
   2579   2611   2592   2591     1  0.0000000  1.2552000  3
   2579   2611   2592   2593     1  0.0000000  1.2552000  3
   2580   2579   2611   2592     1  180.0000771  6.0668000  2
   2580   2579   2611   2592     1  180.0000771  1.4644000  4
   2583   2586   2635   2616     1  180.0000771  6.0668000  2
   2583   2586   2635   2616     1  180.0000771  1.4644000  4
   2586   2635   2616   2615     1  0.0000000  1.2552000  3
   2586   2635   2616   2617     1  0.0000000  1.2552000  3
   2587   2586   2635   2616     1  180.0000771  6.0668000  2
   2587   2586   2635   2616     1  180.0000771  1.4644000  4
   2588   2589   2591   2592     1  180.0000771  0.8368000  1
   2588   2589   2591   2592     1  180.0000771  1.0460000  2
   2588   2589   2591   2592     1  0.0000000  0.7531200  3
   2588   2589   2591   2598     1  0.0000000  0.6508444  3
   2588   2606   2593   2592     1  180.0000771  0.4184000  2
   2588   2606   2593   2592     1  0.0000000  1.6024720  3
   2588   2606   2593   2597     1  0.0000000  1.6038667  3
   2589   2588   2599   2604     1  0.0000000  0.6508444  3
   2589   2588   2606   2593     1  180.0000771  0.4184000  2
   2589   2588   2606   2593     1  0.0000000  1.6024720  3
   2589   2591   2592   2593     1  180.0000771  0.8368000  1
   2589   2591   2592   2593     1  180.0000771  1.0460000  2
   2589   2591   2592   2593     1  0.0000000  0.7531200  3
   2589   2591   2592   2611     1  0.0000000  0.6508444  3
   2591   2589   2588   2599     1  180.0000771  0.8368000  1
   2591   2589   2588   2599     1  180.0000771  1.0460000  2
   2591   2589   2588   2599     1  0.0000000  0.7531200  3
   2591   2589   2588   2606     1  0.0000000  0.6508444  3
   2591   2592   2593   2597     1  0.0000000  0.6508444  3
   2591   2592   2593   2606     1  0.0000000  0.6508444  3
   2592   2591   2589   2609     1  0.0000000  0.6508444  3
   2593   2592   2591   2598     1  0.0000000  0.6508444  3
   2593   2606   2588   2599     1  180.0000771  0.4184000  2
   2593   2606   2588   2599     1  0.0000000  1.6024720  3
   2597   2593   2592   2611     1  0.0000000  0.6508444  3
   2598   2591   2589   2609     1  0.0000000  4.9162000  2
   2598   2591   2589   2609     1  0.0000000  0.6024960  3
   2598   2591   2592   2611     1  0.0000000  0.6508444  3
   2599   2588   2589   2609     1  0.0000000  0.6508444  3
   2604   2599   2588   2606     1  0.0000000  4.9162000  2
   2604   2599   2588   2606     1  0.0000000  0.6024960  3
   2606   2588   2589   2609     1  0.0000000  4.9162000  2
   2606   2588   2589   2609     1  0.0000000  0.6024960  3
   2606   2593   2592   2611     1  0.0000000  0.6508444  3
   2612   2613   2615   2616     1  180.0000771  0.8368000  1
   2612   2613   2615   2616     1  180.0000771  1.0460000  2
   2612   2613   2615   2616     1  0.0000000  0.7531200  3
   2612   2613   2615   2622     1  0.0000000  0.6508444  3
   2612   2630   2617   2616     1  180.0000771  0.4184000  2
   2612   2630   2617   2616     1  0.0000000  1.6024720  3
   2612   2630   2617   2621     1  0.0000000  1.6038667  3
   2613   2612   2623   2628     1  0.0000000  0.6508444  3
   2613   2612   2630   2617     1  180.0000771  0.4184000  2
   2613   2612   2630   2617     1  0.0000000  1.6024720  3
   2613   2615   2616   2617     1  180.0000771  0.8368000  1
   2613   2615   2616   2617     1  180.0000771  1.0460000  2
   2613   2615   2616   2617     1  0.0000000  0.7531200  3
   2613   2615   2616   2635     1  0.0000000  0.6508444  3
   2615   2613   2612   2623     1  180.0000771  0.8368000  1
   2615   2613   2612   2623     1  180.0000771  1.0460000  2
   2615   2613   2612   2623     1  0.0000000  0.7531200  3
   2615   2613   2612   2630     1  0.0000000  0.6508444  3
   2615   2616   2617   2621     1  0.0000000  0.6508444  3
   2615   2616   2617   2630     1  0.0000000  0.6508444  3
   2616   2615   2613   2633     1  0.0000000  0.6508444  3
   2617   2616   2615   2622     1  0.0000000  0.6508444  3
   2617   2630   2612   2623     1  180.0000771  0.4184000  2
   2617   2630   2612   2623     1  0.0000000  1.6024720  3
   2621   2617   2616   2635     1  0.0000000  0.6508444  3
   2622   2615   2613   2633     1  0.0000000  4.9162000  2
   2622   2615   2613   2633     1  0.0000000  0.6024960  3
   2622   2615   2616   2635     1  0.0000000  0.6508444  3
   2623   2612   2613   2633     1  0.0000000  0.6508444  3
   2628   2623   2612   2630     1  0.0000000  4.9162000  2
   2628   2623   2612   2630     1  0.0000000  0.6024960  3
   2630   2612   2613   2633     1  0.0000000  4.9162000  2
   2630   2612   2613   2633     1  0.0000000  0.6024960  3
   2630   2617   2616   2635     1  0.0000000  0.6508444  3
   2636   2638   2640   2644     1  0.0000000  0.6508444  3
   2638   2640   2644   2645     1  180.0000771  2.0083200  2
   2638   2640   2644   2645     1  0.0000000  1.2552000  3
   2638   2640   2644   2646     1  180.0000771  2.0083200  2
   2638   2640   2644   2646     1  0.0000000  1.2552000  3
   2640   2644   2645   2656     1  180.0000771  2.0083200  2
   2640   2644   2645   2656     1  0.0000000  1.2552000  3
   2640   2644   2646   2648     1  180.0000771  2.0083200  2
   2640   2644   2646   2648     1  0.0000000  1.2552000  3
   2644   2645   2656   2659     1  0.0000000  0.6508444  3
   2644   2646   2648   2652     1  0.0000000  0.6508444  3
   2645   2656   2659   2660     1  180.0000771  0.0000000  2
   2645   2656   2659   2708     1  180.0000771  0.0000000  2
   2645   2644   2646   2648     1  180.0000771  2.0083200  2
   2645   2644   2646   2648     1  0.0000000  1.2552000  3
   2646   2648   2652   2653     1  180.0000771  0.0000000  2
   2646   2648   2652   2684     1  180.0000771  0.0000000  2
   2646   2644   2645   2656     1  180.0000771  2.0083200  2
   2646   2644   2645   2656     1  0.0000000  1.2552000  3
   2648   2652   2684   2665     1  180.0000771  6.0668000  2
   2648   2652   2684   2665     1  180.0000771  1.4644000  4
   2652   2684   2665   2666     1  0.0000000  1.2552000  3
   2652   2684   2665   2664     1  0.0000000  1.2552000  3
   2653   2652   2684   2665     1  180.0000771  6.0668000  2
   2653   2652   2684   2665     1  180.0000771  1.4644000  4
   2656   2659   2708   2689     1  180.0000771  6.0668000  2
   2656   2659   2708   2689     1  180.0000771  1.4644000  4
   2659   2708   2689   2690     1  0.0000000  1.2552000  3
   2659   2708   2689   2688     1  0.0000000  1.2552000  3
   2660   2659   2708   2689     1  180.0000771  6.0668000  2
   2660   2659   2708   2689     1  180.0000771  1.4644000  4
   2661   2662   2664   2665     1  180.0000771  0.8368000  1
   2661   2662   2664   2665     1  180.0000771  1.0460000  2
   2661   2662   2664   2665     1  0.0000000  0.7531200  3
   2661   2662   2664   2671     1  0.0000000  0.6508444  3
   2661   2679   2666   2670     1  0.0000000  1.6038667  3
   2661   2679   2666   2665     1  180.0000771  0.4184000  2
   2661   2679   2666   2665     1  0.0000000  1.6024720  3
   2662   2664   2665   2666     1  180.0000771  0.8368000  1
   2662   2664   2665   2666     1  180.0000771  1.0460000  2
   2662   2664   2665   2666     1  0.0000000  0.7531200  3
   2662   2664   2665   2684     1  0.0000000  0.6508444  3
   2662   2661   2672   2677     1  0.0000000  0.6508444  3
   2662   2661   2679   2666     1  180.0000771  0.4184000  2
   2662   2661   2679   2666     1  0.0000000  1.6024720  3
   2664   2665   2666   2670     1  0.0000000  0.6508444  3
   2664   2665   2666   2679     1  0.0000000  0.6508444  3
   2664   2662   2661   2672     1  180.0000771  0.8368000  1
   2664   2662   2661   2672     1  180.0000771  1.0460000  2
   2664   2662   2661   2672     1  0.0000000  0.7531200  3
   2664   2662   2661   2679     1  0.0000000  0.6508444  3
   2665   2664   2662   2682     1  0.0000000  0.6508444  3
   2666   2679   2661   2672     1  180.0000771  0.4184000  2
   2666   2679   2661   2672     1  0.0000000  1.6024720  3
   2666   2665   2664   2671     1  0.0000000  0.6508444  3
   2670   2666   2665   2684     1  0.0000000  0.6508444  3
   2671   2664   2665   2684     1  0.0000000  0.6508444  3
   2671   2664   2662   2682     1  0.0000000  4.9162000  2
   2671   2664   2662   2682     1  0.0000000  0.6024960  3
   2672   2661   2662   2682     1  0.0000000  0.6508444  3
   2677   2672   2661   2679     1  0.0000000  4.9162000  2
   2677   2672   2661   2679     1  0.0000000  0.6024960  3
   2679   2666   2665   2684     1  0.0000000  0.6508444  3
   2679   2661   2662   2682     1  0.0000000  4.9162000  2
   2679   2661   2662   2682     1  0.0000000  0.6024960  3
   2685   2686   2688   2689     1  180.0000771  0.8368000  1
   2685   2686   2688   2689     1  180.0000771  1.0460000  2
   2685   2686   2688   2689     1  0.0000000  0.7531200  3
   2685   2686   2688   2695     1  0.0000000  0.6508444  3
   2685   2703   2690   2694     1  0.0000000  1.6038667  3
   2685   2703   2690   2689     1  180.0000771  0.4184000  2
   2685   2703   2690   2689     1  0.0000000  1.6024720  3
   2686   2688   2689   2690     1  180.0000771  0.8368000  1
   2686   2688   2689   2690     1  180.0000771  1.0460000  2
   2686   2688   2689   2690     1  0.0000000  0.7531200  3
   2686   2688   2689   2708     1  0.0000000  0.6508444  3
   2686   2685   2696   2701     1  0.0000000  0.6508444  3
   2686   2685   2703   2690     1  180.0000771  0.4184000  2
   2686   2685   2703   2690     1  0.0000000  1.6024720  3
   2688   2689   2690   2694     1  0.0000000  0.6508444  3
   2688   2689   2690   2703     1  0.0000000  0.6508444  3
   2688   2686   2685   2696     1  180.0000771  0.8368000  1
   2688   2686   2685   2696     1  180.0000771  1.0460000  2
   2688   2686   2685   2696     1  0.0000000  0.7531200  3
   2688   2686   2685   2703     1  0.0000000  0.6508444  3
   2689   2688   2686   2706     1  0.0000000  0.6508444  3
   2690   2703   2685   2696     1  180.0000771  0.4184000  2
   2690   2703   2685   2696     1  0.0000000  1.6024720  3
   2690   2689   2688   2695     1  0.0000000  0.6508444  3
   2694   2690   2689   2708     1  0.0000000  0.6508444  3
   2695   2688   2689   2708     1  0.0000000  0.6508444  3
   2695   2688   2686   2706     1  0.0000000  4.9162000  2
   2695   2688   2686   2706     1  0.0000000  0.6024960  3
   2696   2685   2686   2706     1  0.0000000  0.6508444  3
   2701   2696   2685   2703     1  0.0000000  4.9162000  2
   2701   2696   2685   2703     1  0.0000000  0.6024960  3
   2703   2690   2689   2708     1  0.0000000  0.6508444  3
   2703   2685   2686   2706     1  0.0000000  4.9162000  2
   2703   2685   2686   2706     1  0.0000000  0.6024960  3
   2709   2711   2713   2717     1  0.0000000  0.6508444  3
   2711   2713   2717   2718     1  180.0000771  2.0083200  2
   2711   2713   2717   2718     1  0.0000000  1.2552000  3
   2711   2713   2717   2719     1  180.0000771  2.0083200  2
   2711   2713   2717   2719     1  0.0000000  1.2552000  3
   2713   2717   2718   2729     1  180.0000771  2.0083200  2
   2713   2717   2718   2729     1  0.0000000  1.2552000  3
   2713   2717   2719   2721     1  180.0000771  2.0083200  2
   2713   2717   2719   2721     1  0.0000000  1.2552000  3
   2717   2718   2729   2732     1  0.0000000  0.6508444  3
   2717   2719   2721   2725     1  0.0000000  0.6508444  3
   2718   2717   2719   2721     1  180.0000771  2.0083200  2
   2718   2717   2719   2721     1  0.0000000  1.2552000  3
   2718   2729   2732   2733     1  180.0000771  0.0000000  2
   2718   2729   2732   2781     1  180.0000771  0.0000000  2
   2719   2717   2718   2729     1  180.0000771  2.0083200  2
   2719   2717   2718   2729     1  0.0000000  1.2552000  3
   2719   2721   2725   2726     1  180.0000771  0.0000000  2
   2719   2721   2725   2757     1  180.0000771  0.0000000  2
   2721   2725   2757   2738     1  180.0000771  6.0668000  2
   2721   2725   2757   2738     1  180.0000771  1.4644000  4
   2725   2757   2738   2737     1  0.0000000  1.2552000  3
   2725   2757   2738   2739     1  0.0000000  1.2552000  3
   2726   2725   2757   2738     1  180.0000771  6.0668000  2
   2726   2725   2757   2738     1  180.0000771  1.4644000  4
   2729   2732   2781   2762     1  180.0000771  6.0668000  2
   2729   2732   2781   2762     1  180.0000771  1.4644000  4
   2732   2781   2762   2761     1  0.0000000  1.2552000  3
   2732   2781   2762   2763     1  0.0000000  1.2552000  3
   2733   2732   2781   2762     1  180.0000771  6.0668000  2
   2733   2732   2781   2762     1  180.0000771  1.4644000  4
   2734   2735   2737   2738     1  180.0000771  0.8368000  1
   2734   2735   2737   2738     1  180.0000771  1.0460000  2
   2734   2735   2737   2738     1  0.0000000  0.7531200  3
   2734   2735   2737   2744     1  0.0000000  0.6508444  3
   2734   2752   2739   2738     1  180.0000771  0.4184000  2
   2734   2752   2739   2738     1  0.0000000  1.6024720  3
   2734   2752   2739   2743     1  0.0000000  1.6038667  3
   2735   2734   2745   2750     1  0.0000000  0.6508444  3
   2735   2734   2752   2739     1  180.0000771  0.4184000  2
   2735   2734   2752   2739     1  0.0000000  1.6024720  3
   2735   2737   2738   2739     1  180.0000771  0.8368000  1
   2735   2737   2738   2739     1  180.0000771  1.0460000  2
   2735   2737   2738   2739     1  0.0000000  0.7531200  3
   2735   2737   2738   2757     1  0.0000000  0.6508444  3
   2737   2735   2734   2745     1  180.0000771  0.8368000  1
   2737   2735   2734   2745     1  180.0000771  1.0460000  2
   2737   2735   2734   2745     1  0.0000000  0.7531200  3
   2737   2735   2734   2752     1  0.0000000  0.6508444  3
   2737   2738   2739   2743     1  0.0000000  0.6508444  3
   2737   2738   2739   2752     1  0.0000000  0.6508444  3
   2738   2737   2735   2755     1  0.0000000  0.6508444  3
   2739   2738   2737   2744     1  0.0000000  0.6508444  3
   2739   2752   2734   2745     1  180.0000771  0.4184000  2
   2739   2752   2734   2745     1  0.0000000  1.6024720  3
   2743   2739   2738   2757     1  0.0000000  0.6508444  3
   2744   2737   2735   2755     1  0.0000000  4.9162000  2
   2744   2737   2735   2755     1  0.0000000  0.6024960  3
   2744   2737   2738   2757     1  0.0000000  0.6508444  3
   2745   2734   2735   2755     1  0.0000000  0.6508444  3
   2750   2745   2734   2752     1  0.0000000  4.9162000  2
   2750   2745   2734   2752     1  0.0000000  0.6024960  3
   2752   2734   2735   2755     1  0.0000000  4.9162000  2
   2752   2734   2735   2755     1  0.0000000  0.6024960  3
   2752   2739   2738   2757     1  0.0000000  0.6508444  3
   2758   2759   2761   2762     1  180.0000771  0.8368000  1
   2758   2759   2761   2762     1  180.0000771  1.0460000  2
   2758   2759   2761   2762     1  0.0000000  0.7531200  3
   2758   2759   2761   2768     1  0.0000000  0.6508444  3
   2758   2776   2763   2762     1  180.0000771  0.4184000  2
   2758   2776   2763   2762     1  0.0000000  1.6024720  3
   2758   2776   2763   2767     1  0.0000000  1.6038667  3
   2759   2758   2769   2774     1  0.0000000  0.6508444  3
   2759   2758   2776   2763     1  180.0000771  0.4184000  2
   2759   2758   2776   2763     1  0.0000000  1.6024720  3
   2759   2761   2762   2763     1  180.0000771  0.8368000  1
   2759   2761   2762   2763     1  180.0000771  1.0460000  2
   2759   2761   2762   2763     1  0.0000000  0.7531200  3
   2759   2761   2762   2781     1  0.0000000  0.6508444  3
   2761   2759   2758   2769     1  180.0000771  0.8368000  1
   2761   2759   2758   2769     1  180.0000771  1.0460000  2
   2761   2759   2758   2769     1  0.0000000  0.7531200  3
   2761   2759   2758   2776     1  0.0000000  0.6508444  3
   2761   2762   2763   2767     1  0.0000000  0.6508444  3
   2761   2762   2763   2776     1  0.0000000  0.6508444  3
   2762   2761   2759   2779     1  0.0000000  0.6508444  3
   2763   2762   2761   2768     1  0.0000000  0.6508444  3
   2763   2776   2758   2769     1  180.0000771  0.4184000  2
   2763   2776   2758   2769     1  0.0000000  1.6024720  3
   2767   2763   2762   2781     1  0.0000000  0.6508444  3
   2768   2761   2759   2779     1  0.0000000  4.9162000  2
   2768   2761   2759   2779     1  0.0000000  0.6024960  3
   2768   2761   2762   2781     1  0.0000000  0.6508444  3
   2769   2758   2759   2779     1  0.0000000  0.6508444  3
   2774   2769   2758   2776     1  0.0000000  4.9162000  2
   2774   2769   2758   2776     1  0.0000000  0.6024960  3
   2776   2758   2759   2779     1  0.0000000  4.9162000  2
   2776   2758   2759   2779     1  0.0000000  0.6024960  3
   2776   2763   2762   2781     1  0.0000000  0.6508444  3
   2782   2784   2786   2790     1  0.0000000  0.6508444  3
   2784   2786   2790   2791     1  180.0000771  2.0083200  2
   2784   2786   2790   2791     1  0.0000000  1.2552000  3
   2784   2786   2790   2792     1  180.0000771  2.0083200  2
   2784   2786   2790   2792     1  0.0000000  1.2552000  3
   2786   2790   2791   2802     1  180.0000771  2.0083200  2
   2786   2790   2791   2802     1  0.0000000  1.2552000  3
   2786   2790   2792   2794     1  180.0000771  2.0083200  2
   2786   2790   2792   2794     1  0.0000000  1.2552000  3
   2790   2791   2802   2805     1  0.0000000  0.6508444  3
   2790   2792   2794   2798     1  0.0000000  0.6508444  3
   2791   2802   2805   2806     1  180.0000771  0.0000000  2
   2791   2802   2805   2854     1  180.0000771  0.0000000  2
   2791   2790   2792   2794     1  180.0000771  2.0083200  2
   2791   2790   2792   2794     1  0.0000000  1.2552000  3
   2792   2794   2798   2799     1  180.0000771  0.0000000  2
   2792   2794   2798   2830     1  180.0000771  0.0000000  2
   2792   2790   2791   2802     1  180.0000771  2.0083200  2
   2792   2790   2791   2802     1  0.0000000  1.2552000  3
   2794   2798   2830   2811     1  180.0000771  6.0668000  2
   2794   2798   2830   2811     1  180.0000771  1.4644000  4
   2798   2830   2811   2812     1  0.0000000  1.2552000  3
   2798   2830   2811   2810     1  0.0000000  1.2552000  3
   2799   2798   2830   2811     1  180.0000771  6.0668000  2
   2799   2798   2830   2811     1  180.0000771  1.4644000  4
   2802   2805   2854   2835     1  180.0000771  6.0668000  2
   2802   2805   2854   2835     1  180.0000771  1.4644000  4
   2805   2854   2835   2836     1  0.0000000  1.2552000  3
   2805   2854   2835   2834     1  0.0000000  1.2552000  3
   2806   2805   2854   2835     1  180.0000771  6.0668000  2
   2806   2805   2854   2835     1  180.0000771  1.4644000  4
   2807   2808   2810   2811     1  180.0000771  0.8368000  1
   2807   2808   2810   2811     1  180.0000771  1.0460000  2
   2807   2808   2810   2811     1  0.0000000  0.7531200  3
   2807   2808   2810   2817     1  0.0000000  0.6508444  3
   2807   2825   2812   2816     1  0.0000000  1.6038667  3
   2807   2825   2812   2811     1  180.0000771  0.4184000  2
   2807   2825   2812   2811     1  0.0000000  1.6024720  3
   2808   2810   2811   2812     1  180.0000771  0.8368000  1
   2808   2810   2811   2812     1  180.0000771  1.0460000  2
   2808   2810   2811   2812     1  0.0000000  0.7531200  3
   2808   2810   2811   2830     1  0.0000000  0.6508444  3
   2808   2807   2818   2823     1  0.0000000  0.6508444  3
   2808   2807   2825   2812     1  180.0000771  0.4184000  2
   2808   2807   2825   2812     1  0.0000000  1.6024720  3
   2810   2811   2812   2816     1  0.0000000  0.6508444  3
   2810   2811   2812   2825     1  0.0000000  0.6508444  3
   2810   2808   2807   2818     1  180.0000771  0.8368000  1
   2810   2808   2807   2818     1  180.0000771  1.0460000  2
   2810   2808   2807   2818     1  0.0000000  0.7531200  3
   2810   2808   2807   2825     1  0.0000000  0.6508444  3
   2811   2810   2808   2828     1  0.0000000  0.6508444  3
   2812   2825   2807   2818     1  180.0000771  0.4184000  2
   2812   2825   2807   2818     1  0.0000000  1.6024720  3
   2812   2811   2810   2817     1  0.0000000  0.6508444  3
   2816   2812   2811   2830     1  0.0000000  0.6508444  3
   2817   2810   2811   2830     1  0.0000000  0.6508444  3
   2817   2810   2808   2828     1  0.0000000  4.9162000  2
   2817   2810   2808   2828     1  0.0000000  0.6024960  3
   2818   2807   2808   2828     1  0.0000000  0.6508444  3
   2823   2818   2807   2825     1  0.0000000  4.9162000  2
   2823   2818   2807   2825     1  0.0000000  0.6024960  3
   2825   2812   2811   2830     1  0.0000000  0.6508444  3
   2825   2807   2808   2828     1  0.0000000  4.9162000  2
   2825   2807   2808   2828     1  0.0000000  0.6024960  3
   2831   2832   2834   2835     1  180.0000771  0.8368000  1
   2831   2832   2834   2835     1  180.0000771  1.0460000  2
   2831   2832   2834   2835     1  0.0000000  0.7531200  3
   2831   2832   2834   2841     1  0.0000000  0.6508444  3
   2831   2849   2836   2840     1  0.0000000  1.6038667  3
   2831   2849   2836   2835     1  180.0000771  0.4184000  2
   2831   2849   2836   2835     1  0.0000000  1.6024720  3
   2832   2834   2835   2836     1  180.0000771  0.8368000  1
   2832   2834   2835   2836     1  180.0000771  1.0460000  2
   2832   2834   2835   2836     1  0.0000000  0.7531200  3
   2832   2834   2835   2854     1  0.0000000  0.6508444  3
   2832   2831   2842   2847     1  0.0000000  0.6508444  3
   2832   2831   2849   2836     1  180.0000771  0.4184000  2
   2832   2831   2849   2836     1  0.0000000  1.6024720  3
   2834   2835   2836   2840     1  0.0000000  0.6508444  3
   2834   2835   2836   2849     1  0.0000000  0.6508444  3
   2834   2832   2831   2842     1  180.0000771  0.8368000  1
   2834   2832   2831   2842     1  180.0000771  1.0460000  2
   2834   2832   2831   2842     1  0.0000000  0.7531200  3
   2834   2832   2831   2849     1  0.0000000  0.6508444  3
   2835   2834   2832   2852     1  0.0000000  0.6508444  3
   2836   2849   2831   2842     1  180.0000771  0.4184000  2
   2836   2849   2831   2842     1  0.0000000  1.6024720  3
   2836   2835   2834   2841     1  0.0000000  0.6508444  3
   2840   2836   2835   2854     1  0.0000000  0.6508444  3
   2841   2834   2835   2854     1  0.0000000  0.6508444  3
   2841   2834   2832   2852     1  0.0000000  4.9162000  2
   2841   2834   2832   2852     1  0.0000000  0.6024960  3
   2842   2831   2832   2852     1  0.0000000  0.6508444  3
   2847   2842   2831   2849     1  0.0000000  4.9162000  2
   2847   2842   2831   2849     1  0.0000000  0.6024960  3
   2849   2836   2835   2854     1  0.0000000  0.6508444  3
   2849   2831   2832   2852     1  0.0000000  4.9162000  2
   2849   2831   2832   2852     1  0.0000000  0.6024960  3
   2855   2857   2859   2863     1  0.0000000  0.6508444  3
   2857   2859   2863   2864     1  180.0000771  2.0083200  2
   2857   2859   2863   2864     1  0.0000000  1.2552000  3
   2857   2859   2863   2865     1  180.0000771  2.0083200  2
   2857   2859   2863   2865     1  0.0000000  1.2552000  3
   2859   2863   2864   2875     1  180.0000771  2.0083200  2
   2859   2863   2864   2875     1  0.0000000  1.2552000  3
   2859   2863   2865   2867     1  180.0000771  2.0083200  2
   2859   2863   2865   2867     1  0.0000000  1.2552000  3
   2863   2864   2875   2878     1  0.0000000  0.6508444  3
   2863   2865   2867   2871     1  0.0000000  0.6508444  3
   2864   2863   2865   2867     1  180.0000771  2.0083200  2
   2864   2863   2865   2867     1  0.0000000  1.2552000  3
   2864   2875   2878   2879     1  180.0000771  0.0000000  2
   2864   2875   2878   2927     1  180.0000771  0.0000000  2
   2865   2863   2864   2875     1  180.0000771  2.0083200  2
   2865   2863   2864   2875     1  0.0000000  1.2552000  3
   2865   2867   2871   2872     1  180.0000771  0.0000000  2
   2865   2867   2871   2903     1  180.0000771  0.0000000  2
   2867   2871   2903   2884     1  180.0000771  6.0668000  2
   2867   2871   2903   2884     1  180.0000771  1.4644000  4
   2871   2903   2884   2883     1  0.0000000  1.2552000  3
   2871   2903   2884   2885     1  0.0000000  1.2552000  3
   2872   2871   2903   2884     1  180.0000771  6.0668000  2
   2872   2871   2903   2884     1  180.0000771  1.4644000  4
   2875   2878   2927   2908     1  180.0000771  6.0668000  2
   2875   2878   2927   2908     1  180.0000771  1.4644000  4
   2878   2927   2908   2907     1  0.0000000  1.2552000  3
   2878   2927   2908   2909     1  0.0000000  1.2552000  3
   2879   2878   2927   2908     1  180.0000771  6.0668000  2
   2879   2878   2927   2908     1  180.0000771  1.4644000  4
   2880   2881   2883   2884     1  180.0000771  0.8368000  1
   2880   2881   2883   2884     1  180.0000771  1.0460000  2
   2880   2881   2883   2884     1  0.0000000  0.7531200  3
   2880   2881   2883   2890     1  0.0000000  0.6508444  3
   2880   2898   2885   2884     1  180.0000771  0.4184000  2
   2880   2898   2885   2884     1  0.0000000  1.6024720  3
   2880   2898   2885   2889     1  0.0000000  1.6038667  3
   2881   2880   2891   2896     1  0.0000000  0.6508444  3
   2881   2880   2898   2885     1  180.0000771  0.4184000  2
   2881   2880   2898   2885     1  0.0000000  1.6024720  3
   2881   2883   2884   2885     1  180.0000771  0.8368000  1
   2881   2883   2884   2885     1  180.0000771  1.0460000  2
   2881   2883   2884   2885     1  0.0000000  0.7531200  3
   2881   2883   2884   2903     1  0.0000000  0.6508444  3
   2883   2881   2880   2891     1  180.0000771  0.8368000  1
   2883   2881   2880   2891     1  180.0000771  1.0460000  2
   2883   2881   2880   2891     1  0.0000000  0.7531200  3
   2883   2881   2880   2898     1  0.0000000  0.6508444  3
   2883   2884   2885   2889     1  0.0000000  0.6508444  3
   2883   2884   2885   2898     1  0.0000000  0.6508444  3
   2884   2883   2881   2901     1  0.0000000  0.6508444  3
   2885   2884   2883   2890     1  0.0000000  0.6508444  3
   2885   2898   2880   2891     1  180.0000771  0.4184000  2
   2885   2898   2880   2891     1  0.0000000  1.6024720  3
   2889   2885   2884   2903     1  0.0000000  0.6508444  3
   2890   2883   2881   2901     1  0.0000000  4.9162000  2
   2890   2883   2881   2901     1  0.0000000  0.6024960  3
   2890   2883   2884   2903     1  0.0000000  0.6508444  3
   2891   2880   2881   2901     1  0.0000000  0.6508444  3
   2896   2891   2880   2898     1  0.0000000  4.9162000  2
   2896   2891   2880   2898     1  0.0000000  0.6024960  3
   2898   2880   2881   2901     1  0.0000000  4.9162000  2
   2898   2880   2881   2901     1  0.0000000  0.6024960  3
   2898   2885   2884   2903     1  0.0000000  0.6508444  3
   2904   2905   2907   2908     1  180.0000771  0.8368000  1
   2904   2905   2907   2908     1  180.0000771  1.0460000  2
   2904   2905   2907   2908     1  0.0000000  0.7531200  3
   2904   2905   2907   2914     1  0.0000000  0.6508444  3
   2904   2922   2909   2908     1  180.0000771  0.4184000  2
   2904   2922   2909   2908     1  0.0000000  1.6024720  3
   2904   2922   2909   2913     1  0.0000000  1.6038667  3
   2905   2904   2915   2920     1  0.0000000  0.6508444  3
   2905   2904   2922   2909     1  180.0000771  0.4184000  2
   2905   2904   2922   2909     1  0.0000000  1.6024720  3
   2905   2907   2908   2909     1  180.0000771  0.8368000  1
   2905   2907   2908   2909     1  180.0000771  1.0460000  2
   2905   2907   2908   2909     1  0.0000000  0.7531200  3
   2905   2907   2908   2927     1  0.0000000  0.6508444  3
   2907   2905   2904   2915     1  180.0000771  0.8368000  1
   2907   2905   2904   2915     1  180.0000771  1.0460000  2
   2907   2905   2904   2915     1  0.0000000  0.7531200  3
   2907   2905   2904   2922     1  0.0000000  0.6508444  3
   2907   2908   2909   2913     1  0.0000000  0.6508444  3
   2907   2908   2909   2922     1  0.0000000  0.6508444  3
   2908   2907   2905   2925     1  0.0000000  0.6508444  3
   2909   2908   2907   2914     1  0.0000000  0.6508444  3
   2909   2922   2904   2915     1  180.0000771  0.4184000  2
   2909   2922   2904   2915     1  0.0000000  1.6024720  3
   2913   2909   2908   2927     1  0.0000000  0.6508444  3
   2914   2907   2905   2925     1  0.0000000  4.9162000  2
   2914   2907   2905   2925     1  0.0000000  0.6024960  3
   2914   2907   2908   2927     1  0.0000000  0.6508444  3
   2915   2904   2905   2925     1  0.0000000  0.6508444  3
   2920   2915   2904   2922     1  0.0000000  4.9162000  2
   2920   2915   2904   2922     1  0.0000000  0.6024960  3
   2922   2904   2905   2925     1  0.0000000  4.9162000  2
   2922   2904   2905   2925     1  0.0000000  0.6024960  3
   2922   2909   2908   2927     1  0.0000000  0.6508444  3
   2928   2930   2932   2936     1  0.0000000  0.6508444  3
   2930   2932   2936   2937     1  180.0000771  2.0083200  2
   2930   2932   2936   2937     1  0.0000000  1.2552000  3
   2930   2932   2936   2938     1  180.0000771  2.0083200  2
   2930   2932   2936   2938     1  0.0000000  1.2552000  3
   2932   2936   2937   2948     1  180.0000771  2.0083200  2
   2932   2936   2937   2948     1  0.0000000  1.2552000  3
   2932   2936   2938   2940     1  180.0000771  2.0083200  2
   2932   2936   2938   2940     1  0.0000000  1.2552000  3
   2936   2937   2948   2951     1  0.0000000  0.6508444  3
   2936   2938   2940   2944     1  0.0000000  0.6508444  3
   2937   2948   2951   2952     1  180.0000771  0.0000000  2
   2937   2948   2951   3000     1  180.0000771  0.0000000  2
   2937   2936   2938   2940     1  180.0000771  2.0083200  2
   2937   2936   2938   2940     1  0.0000000  1.2552000  3
   2938   2940   2944   2945     1  180.0000771  0.0000000  2
   2938   2940   2944   2976     1  180.0000771  0.0000000  2
   2938   2936   2937   2948     1  180.0000771  2.0083200  2
   2938   2936   2937   2948     1  0.0000000  1.2552000  3
   2940   2944   2976   2957     1  180.0000771  6.0668000  2
   2940   2944   2976   2957     1  180.0000771  1.4644000  4
   2944   2976   2957   2958     1  0.0000000  1.2552000  3
   2944   2976   2957   2956     1  0.0000000  1.2552000  3
   2945   2944   2976   2957     1  180.0000771  6.0668000  2
   2945   2944   2976   2957     1  180.0000771  1.4644000  4
   2948   2951   3000   2981     1  180.0000771  6.0668000  2
   2948   2951   3000   2981     1  180.0000771  1.4644000  4
   2951   3000   2981   2982     1  0.0000000  1.2552000  3
   2951   3000   2981   2980     1  0.0000000  1.2552000  3
   2952   2951   3000   2981     1  180.0000771  6.0668000  2
   2952   2951   3000   2981     1  180.0000771  1.4644000  4
   2953   2954   2956   2957     1  180.0000771  0.8368000  1
   2953   2954   2956   2957     1  180.0000771  1.0460000  2
   2953   2954   2956   2957     1  0.0000000  0.7531200  3
   2953   2954   2956   2963     1  0.0000000  0.6508444  3
   2953   2971   2958   2962     1  0.0000000  1.6038667  3
   2953   2971   2958   2957     1  180.0000771  0.4184000  2
   2953   2971   2958   2957     1  0.0000000  1.6024720  3
   2954   2956   2957   2958     1  180.0000771  0.8368000  1
   2954   2956   2957   2958     1  180.0000771  1.0460000  2
   2954   2956   2957   2958     1  0.0000000  0.7531200  3
   2954   2956   2957   2976     1  0.0000000  0.6508444  3
   2954   2953   2964   2969     1  0.0000000  0.6508444  3
   2954   2953   2971   2958     1  180.0000771  0.4184000  2
   2954   2953   2971   2958     1  0.0000000  1.6024720  3
   2956   2957   2958   2962     1  0.0000000  0.6508444  3
   2956   2957   2958   2971     1  0.0000000  0.6508444  3
   2956   2954   2953   2964     1  180.0000771  0.8368000  1
   2956   2954   2953   2964     1  180.0000771  1.0460000  2
   2956   2954   2953   2964     1  0.0000000  0.7531200  3
   2956   2954   2953   2971     1  0.0000000  0.6508444  3
   2957   2956   2954   2974     1  0.0000000  0.6508444  3
   2958   2971   2953   2964     1  180.0000771  0.4184000  2
   2958   2971   2953   2964     1  0.0000000  1.6024720  3
   2958   2957   2956   2963     1  0.0000000  0.6508444  3
   2962   2958   2957   2976     1  0.0000000  0.6508444  3
   2963   2956   2957   2976     1  0.0000000  0.6508444  3
   2963   2956   2954   2974     1  0.0000000  4.9162000  2
   2963   2956   2954   2974     1  0.0000000  0.6024960  3
   2964   2953   2954   2974     1  0.0000000  0.6508444  3
   2969   2964   2953   2971     1  0.0000000  4.9162000  2
   2969   2964   2953   2971     1  0.0000000  0.6024960  3
   2971   2958   2957   2976     1  0.0000000  0.6508444  3
   2971   2953   2954   2974     1  0.0000000  4.9162000  2
   2971   2953   2954   2974     1  0.0000000  0.6024960  3
   2977   2978   2980   2981     1  180.0000771  0.8368000  1
   2977   2978   2980   2981     1  180.0000771  1.0460000  2
   2977   2978   2980   2981     1  0.0000000  0.7531200  3
   2977   2978   2980   2987     1  0.0000000  0.6508444  3
   2977   2995   2982   2986     1  0.0000000  1.6038667  3
   2977   2995   2982   2981     1  180.0000771  0.4184000  2
   2977   2995   2982   2981     1  0.0000000  1.6024720  3
   2978   2980   2981   2982     1  180.0000771  0.8368000  1
   2978   2980   2981   2982     1  180.0000771  1.0460000  2
   2978   2980   2981   2982     1  0.0000000  0.7531200  3
   2978   2980   2981   3000     1  0.0000000  0.6508444  3
   2978   2977   2988   2993     1  0.0000000  0.6508444  3
   2978   2977   2995   2982     1  180.0000771  0.4184000  2
   2978   2977   2995   2982     1  0.0000000  1.6024720  3
   2980   2981   2982   2986     1  0.0000000  0.6508444  3
   2980   2981   2982   2995     1  0.0000000  0.6508444  3
   2980   2978   2977   2988     1  180.0000771  0.8368000  1
   2980   2978   2977   2988     1  180.0000771  1.0460000  2
   2980   2978   2977   2988     1  0.0000000  0.7531200  3
   2980   2978   2977   2995     1  0.0000000  0.6508444  3
   2981   2980   2978   2998     1  0.0000000  0.6508444  3
   2982   2995   2977   2988     1  180.0000771  0.4184000  2
   2982   2995   2977   2988     1  0.0000000  1.6024720  3
   2982   2981   2980   2987     1  0.0000000  0.6508444  3
   2986   2982   2981   3000     1  0.0000000  0.6508444  3
   2987   2980   2981   3000     1  0.0000000  0.6508444  3
   2987   2980   2978   2998     1  0.0000000  4.9162000  2
   2987   2980   2978   2998     1  0.0000000  0.6024960  3
   2988   2977   2978   2998     1  0.0000000  0.6508444  3
   2993   2988   2977   2995     1  0.0000000  4.9162000  2
   2993   2988   2977   2995     1  0.0000000  0.6024960  3
   2995   2982   2981   3000     1  0.0000000  0.6508444  3
   2995   2977   2978   2998     1  0.0000000  4.9162000  2
   2995   2977   2978   2998     1  0.0000000  0.6024960  3
   3001   3003   3005   3009     1  0.0000000  0.6508444  3
   3003   3005   3009   3010     1  180.0000771  2.0083200  2
   3003   3005   3009   3010     1  0.0000000  1.2552000  3
   3003   3005   3009   3011     1  180.0000771  2.0083200  2
   3003   3005   3009   3011     1  0.0000000  1.2552000  3
   3005   3009   3010   3021     1  180.0000771  2.0083200  2
   3005   3009   3010   3021     1  0.0000000  1.2552000  3
   3005   3009   3011   3013     1  180.0000771  2.0083200  2
   3005   3009   3011   3013     1  0.0000000  1.2552000  3
   3009   3010   3021   3024     1  0.0000000  0.6508444  3
   3009   3011   3013   3017     1  0.0000000  0.6508444  3
   3010   3009   3011   3013     1  180.0000771  2.0083200  2
   3010   3009   3011   3013     1  0.0000000  1.2552000  3
   3010   3021   3024   3025     1  180.0000771  0.0000000  2
   3010   3021   3024   3073     1  180.0000771  0.0000000  2
   3011   3009   3010   3021     1  180.0000771  2.0083200  2
   3011   3009   3010   3021     1  0.0000000  1.2552000  3
   3011   3013   3017   3018     1  180.0000771  0.0000000  2
   3011   3013   3017   3049     1  180.0000771  0.0000000  2
   3013   3017   3049   3030     1  180.0000771  6.0668000  2
   3013   3017   3049   3030     1  180.0000771  1.4644000  4
   3017   3049   3030   3029     1  0.0000000  1.2552000  3
   3017   3049   3030   3031     1  0.0000000  1.2552000  3
   3018   3017   3049   3030     1  180.0000771  6.0668000  2
   3018   3017   3049   3030     1  180.0000771  1.4644000  4
   3021   3024   3073   3054     1  180.0000771  6.0668000  2
   3021   3024   3073   3054     1  180.0000771  1.4644000  4
   3024   3073   3054   3053     1  0.0000000  1.2552000  3
   3024   3073   3054   3055     1  0.0000000  1.2552000  3
   3025   3024   3073   3054     1  180.0000771  6.0668000  2
   3025   3024   3073   3054     1  180.0000771  1.4644000  4
   3026   3027   3029   3030     1  180.0000771  0.8368000  1
   3026   3027   3029   3030     1  180.0000771  1.0460000  2
   3026   3027   3029   3030     1  0.0000000  0.7531200  3
   3026   3027   3029   3036     1  0.0000000  0.6508444  3
   3026   3044   3031   3030     1  180.0000771  0.4184000  2
   3026   3044   3031   3030     1  0.0000000  1.6024720  3
   3026   3044   3031   3035     1  0.0000000  1.6038667  3
   3027   3026   3037   3042     1  0.0000000  0.6508444  3
   3027   3026   3044   3031     1  180.0000771  0.4184000  2
   3027   3026   3044   3031     1  0.0000000  1.6024720  3
   3027   3029   3030   3031     1  180.0000771  0.8368000  1
   3027   3029   3030   3031     1  180.0000771  1.0460000  2
   3027   3029   3030   3031     1  0.0000000  0.7531200  3
   3027   3029   3030   3049     1  0.0000000  0.6508444  3
   3029   3027   3026   3037     1  180.0000771  0.8368000  1
   3029   3027   3026   3037     1  180.0000771  1.0460000  2
   3029   3027   3026   3037     1  0.0000000  0.7531200  3
   3029   3027   3026   3044     1  0.0000000  0.6508444  3
   3029   3030   3031   3035     1  0.0000000  0.6508444  3
   3029   3030   3031   3044     1  0.0000000  0.6508444  3
   3030   3029   3027   3047     1  0.0000000  0.6508444  3
   3031   3030   3029   3036     1  0.0000000  0.6508444  3
   3031   3044   3026   3037     1  180.0000771  0.4184000  2
   3031   3044   3026   3037     1  0.0000000  1.6024720  3
   3035   3031   3030   3049     1  0.0000000  0.6508444  3
   3036   3029   3027   3047     1  0.0000000  4.9162000  2
   3036   3029   3027   3047     1  0.0000000  0.6024960  3
   3036   3029   3030   3049     1  0.0000000  0.6508444  3
   3037   3026   3027   3047     1  0.0000000  0.6508444  3
   3042   3037   3026   3044     1  0.0000000  4.9162000  2
   3042   3037   3026   3044     1  0.0000000  0.6024960  3
   3044   3026   3027   3047     1  0.0000000  4.9162000  2
   3044   3026   3027   3047     1  0.0000000  0.6024960  3
   3044   3031   3030   3049     1  0.0000000  0.6508444  3
   3050   3051   3053   3054     1  180.0000771  0.8368000  1
   3050   3051   3053   3054     1  180.0000771  1.0460000  2
   3050   3051   3053   3054     1  0.0000000  0.7531200  3
   3050   3051   3053   3060     1  0.0000000  0.6508444  3
   3050   3068   3055   3054     1  180.0000771  0.4184000  2
   3050   3068   3055   3054     1  0.0000000  1.6024720  3
   3050   3068   3055   3059     1  0.0000000  1.6038667  3
   3051   3050   3061   3066     1  0.0000000  0.6508444  3
   3051   3050   3068   3055     1  180.0000771  0.4184000  2
   3051   3050   3068   3055     1  0.0000000  1.6024720  3
   3051   3053   3054   3055     1  180.0000771  0.8368000  1
   3051   3053   3054   3055     1  180.0000771  1.0460000  2
   3051   3053   3054   3055     1  0.0000000  0.7531200  3
   3051   3053   3054   3073     1  0.0000000  0.6508444  3
   3053   3051   3050   3061     1  180.0000771  0.8368000  1
   3053   3051   3050   3061     1  180.0000771  1.0460000  2
   3053   3051   3050   3061     1  0.0000000  0.7531200  3
   3053   3051   3050   3068     1  0.0000000  0.6508444  3
   3053   3054   3055   3059     1  0.0000000  0.6508444  3
   3053   3054   3055   3068     1  0.0000000  0.6508444  3
   3054   3053   3051   3071     1  0.0000000  0.6508444  3
   3055   3054   3053   3060     1  0.0000000  0.6508444  3
   3055   3068   3050   3061     1  180.0000771  0.4184000  2
   3055   3068   3050   3061     1  0.0000000  1.6024720  3
   3059   3055   3054   3073     1  0.0000000  0.6508444  3
   3060   3053   3051   3071     1  0.0000000  4.9162000  2
   3060   3053   3051   3071     1  0.0000000  0.6024960  3
   3060   3053   3054   3073     1  0.0000000  0.6508444  3
   3061   3050   3051   3071     1  0.0000000  0.6508444  3
   3066   3061   3050   3068     1  0.0000000  4.9162000  2
   3066   3061   3050   3068     1  0.0000000  0.6024960  3
   3068   3050   3051   3071     1  0.0000000  4.9162000  2
   3068   3050   3051   3071     1  0.0000000  0.6024960  3
   3068   3055   3054   3073     1  0.0000000  0.6508444  3
   3074   3076   3078   3082     1  0.0000000  0.6508444  3
   3076   3078   3082   3083     1  180.0000771  2.0083200  2
   3076   3078   3082   3083     1  0.0000000  1.2552000  3
   3076   3078   3082   3084     1  180.0000771  2.0083200  2
   3076   3078   3082   3084     1  0.0000000  1.2552000  3
   3078   3082   3083   3094     1  180.0000771  2.0083200  2
   3078   3082   3083   3094     1  0.0000000  1.2552000  3
   3078   3082   3084   3086     1  180.0000771  2.0083200  2
   3078   3082   3084   3086     1  0.0000000  1.2552000  3
   3082   3083   3094   3097     1  0.0000000  0.6508444  3
   3082   3084   3086   3090     1  0.0000000  0.6508444  3
   3083   3094   3097   3098     1  180.0000771  0.0000000  2
   3083   3094   3097   3146     1  180.0000771  0.0000000  2
   3083   3082   3084   3086     1  180.0000771  2.0083200  2
   3083   3082   3084   3086     1  0.0000000  1.2552000  3
   3084   3086   3090   3091     1  180.0000771  0.0000000  2
   3084   3086   3090   3122     1  180.0000771  0.0000000  2
   3084   3082   3083   3094     1  180.0000771  2.0083200  2
   3084   3082   3083   3094     1  0.0000000  1.2552000  3
   3086   3090   3122   3103     1  180.0000771  6.0668000  2
   3086   3090   3122   3103     1  180.0000771  1.4644000  4
   3090   3122   3103   3104     1  0.0000000  1.2552000  3
   3090   3122   3103   3102     1  0.0000000  1.2552000  3
   3091   3090   3122   3103     1  180.0000771  6.0668000  2
   3091   3090   3122   3103     1  180.0000771  1.4644000  4
   3094   3097   3146   3127     1  180.0000771  6.0668000  2
   3094   3097   3146   3127     1  180.0000771  1.4644000  4
   3097   3146   3127   3128     1  0.0000000  1.2552000  3
   3097   3146   3127   3126     1  0.0000000  1.2552000  3
   3098   3097   3146   3127     1  180.0000771  6.0668000  2
   3098   3097   3146   3127     1  180.0000771  1.4644000  4
   3099   3100   3102   3103     1  180.0000771  0.8368000  1
   3099   3100   3102   3103     1  180.0000771  1.0460000  2
   3099   3100   3102   3103     1  0.0000000  0.7531200  3
   3099   3100   3102   3109     1  0.0000000  0.6508444  3
   3099   3117   3104   3108     1  0.0000000  1.6038667  3
   3099   3117   3104   3103     1  180.0000771  0.4184000  2
   3099   3117   3104   3103     1  0.0000000  1.6024720  3
   3100   3102   3103   3104     1  180.0000771  0.8368000  1
   3100   3102   3103   3104     1  180.0000771  1.0460000  2
   3100   3102   3103   3104     1  0.0000000  0.7531200  3
   3100   3102   3103   3122     1  0.0000000  0.6508444  3
   3100   3099   3110   3115     1  0.0000000  0.6508444  3
   3100   3099   3117   3104     1  180.0000771  0.4184000  2
   3100   3099   3117   3104     1  0.0000000  1.6024720  3
   3102   3103   3104   3108     1  0.0000000  0.6508444  3
   3102   3103   3104   3117     1  0.0000000  0.6508444  3
   3102   3100   3099   3110     1  180.0000771  0.8368000  1
   3102   3100   3099   3110     1  180.0000771  1.0460000  2
   3102   3100   3099   3110     1  0.0000000  0.7531200  3
   3102   3100   3099   3117     1  0.0000000  0.6508444  3
   3103   3102   3100   3120     1  0.0000000  0.6508444  3
   3104   3117   3099   3110     1  180.0000771  0.4184000  2
   3104   3117   3099   3110     1  0.0000000  1.6024720  3
   3104   3103   3102   3109     1  0.0000000  0.6508444  3
   3108   3104   3103   3122     1  0.0000000  0.6508444  3
   3109   3102   3103   3122     1  0.0000000  0.6508444  3
   3109   3102   3100   3120     1  0.0000000  4.9162000  2
   3109   3102   3100   3120     1  0.0000000  0.6024960  3
   3110   3099   3100   3120     1  0.0000000  0.6508444  3
   3115   3110   3099   3117     1  0.0000000  4.9162000  2
   3115   3110   3099   3117     1  0.0000000  0.6024960  3
   3117   3104   3103   3122     1  0.0000000  0.6508444  3
   3117   3099   3100   3120     1  0.0000000  4.9162000  2
   3117   3099   3100   3120     1  0.0000000  0.6024960  3
   3123   3124   3126   3127     1  180.0000771  0.8368000  1
   3123   3124   3126   3127     1  180.0000771  1.0460000  2
   3123   3124   3126   3127     1  0.0000000  0.7531200  3
   3123   3124   3126   3133     1  0.0000000  0.6508444  3
   3123   3141   3128   3132     1  0.0000000  1.6038667  3
   3123   3141   3128   3127     1  180.0000771  0.4184000  2
   3123   3141   3128   3127     1  0.0000000  1.6024720  3
   3124   3126   3127   3128     1  180.0000771  0.8368000  1
   3124   3126   3127   3128     1  180.0000771  1.0460000  2
   3124   3126   3127   3128     1  0.0000000  0.7531200  3
   3124   3126   3127   3146     1  0.0000000  0.6508444  3
   3124   3123   3134   3139     1  0.0000000  0.6508444  3
   3124   3123   3141   3128     1  180.0000771  0.4184000  2
   3124   3123   3141   3128     1  0.0000000  1.6024720  3
   3126   3127   3128   3132     1  0.0000000  0.6508444  3
   3126   3127   3128   3141     1  0.0000000  0.6508444  3
   3126   3124   3123   3134     1  180.0000771  0.8368000  1
   3126   3124   3123   3134     1  180.0000771  1.0460000  2
   3126   3124   3123   3134     1  0.0000000  0.7531200  3
   3126   3124   3123   3141     1  0.0000000  0.6508444  3
   3127   3126   3124   3144     1  0.0000000  0.6508444  3
   3128   3141   3123   3134     1  180.0000771  0.4184000  2
   3128   3141   3123   3134     1  0.0000000  1.6024720  3
   3128   3127   3126   3133     1  0.0000000  0.6508444  3
   3132   3128   3127   3146     1  0.0000000  0.6508444  3
   3133   3126   3127   3146     1  0.0000000  0.6508444  3
   3133   3126   3124   3144     1  0.0000000  4.9162000  2
   3133   3126   3124   3144     1  0.0000000  0.6024960  3
   3134   3123   3124   3144     1  0.0000000  0.6508444  3
   3139   3134   3123   3141     1  0.0000000  4.9162000  2
   3139   3134   3123   3141     1  0.0000000  0.6024960  3
   3141   3128   3127   3146     1  0.0000000  0.6508444  3
   3141   3123   3124   3144     1  0.0000000  4.9162000  2
   3141   3123   3124   3144     1  0.0000000  0.6024960  3
   3147   3149   3151   3155     1  0.0000000  0.6508444  3
   3149   3151   3155   3156     1  180.0000771  2.0083200  2
   3149   3151   3155   3156     1  0.0000000  1.2552000  3
   3149   3151   3155   3157     1  180.0000771  2.0083200  2
   3149   3151   3155   3157     1  0.0000000  1.2552000  3
   3151   3155   3156   3167     1  180.0000771  2.0083200  2
   3151   3155   3156   3167     1  0.0000000  1.2552000  3
   3151   3155   3157   3159     1  180.0000771  2.0083200  2
   3151   3155   3157   3159     1  0.0000000  1.2552000  3
   3155   3156   3167   3170     1  0.0000000  0.6508444  3
   3155   3157   3159   3163     1  0.0000000  0.6508444  3
   3156   3155   3157   3159     1  180.0000771  2.0083200  2
   3156   3155   3157   3159     1  0.0000000  1.2552000  3
   3156   3167   3170   3171     1  180.0000771  0.0000000  2
   3156   3167   3170   3219     1  180.0000771  0.0000000  2
   3157   3155   3156   3167     1  180.0000771  2.0083200  2
   3157   3155   3156   3167     1  0.0000000  1.2552000  3
   3157   3159   3163   3164     1  180.0000771  0.0000000  2
   3157   3159   3163   3195     1  180.0000771  0.0000000  2
   3159   3163   3195   3176     1  180.0000771  6.0668000  2
   3159   3163   3195   3176     1  180.0000771  1.4644000  4
   3163   3195   3176   3175     1  0.0000000  1.2552000  3
   3163   3195   3176   3177     1  0.0000000  1.2552000  3
   3164   3163   3195   3176     1  180.0000771  6.0668000  2
   3164   3163   3195   3176     1  180.0000771  1.4644000  4
   3167   3170   3219   3200     1  180.0000771  6.0668000  2
   3167   3170   3219   3200     1  180.0000771  1.4644000  4
   3170   3219   3200   3199     1  0.0000000  1.2552000  3
   3170   3219   3200   3201     1  0.0000000  1.2552000  3
   3171   3170   3219   3200     1  180.0000771  6.0668000  2
   3171   3170   3219   3200     1  180.0000771  1.4644000  4
   3172   3173   3175   3176     1  180.0000771  0.8368000  1
   3172   3173   3175   3176     1  180.0000771  1.0460000  2
   3172   3173   3175   3176     1  0.0000000  0.7531200  3
   3172   3173   3175   3182     1  0.0000000  0.6508444  3
   3172   3190   3177   3176     1  180.0000771  0.4184000  2
   3172   3190   3177   3176     1  0.0000000  1.6024720  3
   3172   3190   3177   3181     1  0.0000000  1.6038667  3
   3173   3172   3183   3188     1  0.0000000  0.6508444  3
   3173   3172   3190   3177     1  180.0000771  0.4184000  2
   3173   3172   3190   3177     1  0.0000000  1.6024720  3
   3173   3175   3176   3177     1  180.0000771  0.8368000  1
   3173   3175   3176   3177     1  180.0000771  1.0460000  2
   3173   3175   3176   3177     1  0.0000000  0.7531200  3
   3173   3175   3176   3195     1  0.0000000  0.6508444  3
   3175   3173   3172   3183     1  180.0000771  0.8368000  1
   3175   3173   3172   3183     1  180.0000771  1.0460000  2
   3175   3173   3172   3183     1  0.0000000  0.7531200  3
   3175   3173   3172   3190     1  0.0000000  0.6508444  3
   3175   3176   3177   3181     1  0.0000000  0.6508444  3
   3175   3176   3177   3190     1  0.0000000  0.6508444  3
   3176   3175   3173   3193     1  0.0000000  0.6508444  3
   3177   3176   3175   3182     1  0.0000000  0.6508444  3
   3177   3190   3172   3183     1  180.0000771  0.4184000  2
   3177   3190   3172   3183     1  0.0000000  1.6024720  3
   3181   3177   3176   3195     1  0.0000000  0.6508444  3
   3182   3175   3173   3193     1  0.0000000  4.9162000  2
   3182   3175   3173   3193     1  0.0000000  0.6024960  3
   3182   3175   3176   3195     1  0.0000000  0.6508444  3
   3183   3172   3173   3193     1  0.0000000  0.6508444  3
   3188   3183   3172   3190     1  0.0000000  4.9162000  2
   3188   3183   3172   3190     1  0.0000000  0.6024960  3
   3190   3172   3173   3193     1  0.0000000  4.9162000  2
   3190   3172   3173   3193     1  0.0000000  0.6024960  3
   3190   3177   3176   3195     1  0.0000000  0.6508444  3
   3196   3197   3199   3200     1  180.0000771  0.8368000  1
   3196   3197   3199   3200     1  180.0000771  1.0460000  2
   3196   3197   3199   3200     1  0.0000000  0.7531200  3
   3196   3197   3199   3206     1  0.0000000  0.6508444  3
   3196   3214   3201   3200     1  180.0000771  0.4184000  2
   3196   3214   3201   3200     1  0.0000000  1.6024720  3
   3196   3214   3201   3205     1  0.0000000  1.6038667  3
   3197   3196   3207   3212     1  0.0000000  0.6508444  3
   3197   3196   3214   3201     1  180.0000771  0.4184000  2
   3197   3196   3214   3201     1  0.0000000  1.6024720  3
   3197   3199   3200   3201     1  180.0000771  0.8368000  1
   3197   3199   3200   3201     1  180.0000771  1.0460000  2
   3197   3199   3200   3201     1  0.0000000  0.7531200  3
   3197   3199   3200   3219     1  0.0000000  0.6508444  3
   3199   3197   3196   3207     1  180.0000771  0.8368000  1
   3199   3197   3196   3207     1  180.0000771  1.0460000  2
   3199   3197   3196   3207     1  0.0000000  0.7531200  3
   3199   3197   3196   3214     1  0.0000000  0.6508444  3
   3199   3200   3201   3205     1  0.0000000  0.6508444  3
   3199   3200   3201   3214     1  0.0000000  0.6508444  3
   3200   3199   3197   3217     1  0.0000000  0.6508444  3
   3201   3200   3199   3206     1  0.0000000  0.6508444  3
   3201   3214   3196   3207     1  180.0000771  0.4184000  2
   3201   3214   3196   3207     1  0.0000000  1.6024720  3
   3205   3201   3200   3219     1  0.0000000  0.6508444  3
   3206   3199   3197   3217     1  0.0000000  4.9162000  2
   3206   3199   3197   3217     1  0.0000000  0.6024960  3
   3206   3199   3200   3219     1  0.0000000  0.6508444  3
   3207   3196   3197   3217     1  0.0000000  0.6508444  3
   3212   3207   3196   3214     1  0.0000000  4.9162000  2
   3212   3207   3196   3214     1  0.0000000  0.6024960  3
   3214   3196   3197   3217     1  0.0000000  4.9162000  2
   3214   3196   3197   3217     1  0.0000000  0.6024960  3
   3214   3201   3200   3219     1  0.0000000  0.6508444  3
   3220   3222   3224   3228     1  0.0000000  0.6508444  3
   3222   3224   3228   3229     1  180.0000771  2.0083200  2
   3222   3224   3228   3229     1  0.0000000  1.2552000  3
   3222   3224   3228   3230     1  180.0000771  2.0083200  2
   3222   3224   3228   3230     1  0.0000000  1.2552000  3
   3224   3228   3229   3240     1  180.0000771  2.0083200  2
   3224   3228   3229   3240     1  0.0000000  1.2552000  3
   3224   3228   3230   3232     1  180.0000771  2.0083200  2
   3224   3228   3230   3232     1  0.0000000  1.2552000  3
   3228   3229   3240   3243     1  0.0000000  0.6508444  3
   3228   3230   3232   3236     1  0.0000000  0.6508444  3
   3229   3240   3243   3244     1  180.0000771  0.0000000  2
   3229   3240   3243   3292     1  180.0000771  0.0000000  2
   3229   3228   3230   3232     1  180.0000771  2.0083200  2
   3229   3228   3230   3232     1  0.0000000  1.2552000  3
   3230   3232   3236   3237     1  180.0000771  0.0000000  2
   3230   3232   3236   3268     1  180.0000771  0.0000000  2
   3230   3228   3229   3240     1  180.0000771  2.0083200  2
   3230   3228   3229   3240     1  0.0000000  1.2552000  3
   3232   3236   3268   3249     1  180.0000771  6.0668000  2
   3232   3236   3268   3249     1  180.0000771  1.4644000  4
   3236   3268   3249   3250     1  0.0000000  1.2552000  3
   3236   3268   3249   3248     1  0.0000000  1.2552000  3
   3237   3236   3268   3249     1  180.0000771  6.0668000  2
   3237   3236   3268   3249     1  180.0000771  1.4644000  4
   3240   3243   3292   3273     1  180.0000771  6.0668000  2
   3240   3243   3292   3273     1  180.0000771  1.4644000  4
   3243   3292   3273   3274     1  0.0000000  1.2552000  3
   3243   3292   3273   3272     1  0.0000000  1.2552000  3
   3244   3243   3292   3273     1  180.0000771  6.0668000  2
   3244   3243   3292   3273     1  180.0000771  1.4644000  4
   3245   3246   3248   3249     1  180.0000771  0.8368000  1
   3245   3246   3248   3249     1  180.0000771  1.0460000  2
   3245   3246   3248   3249     1  0.0000000  0.7531200  3
   3245   3246   3248   3255     1  0.0000000  0.6508444  3
   3245   3263   3250   3254     1  0.0000000  1.6038667  3
   3245   3263   3250   3249     1  180.0000771  0.4184000  2
   3245   3263   3250   3249     1  0.0000000  1.6024720  3
   3246   3248   3249   3250     1  180.0000771  0.8368000  1
   3246   3248   3249   3250     1  180.0000771  1.0460000  2
   3246   3248   3249   3250     1  0.0000000  0.7531200  3
   3246   3248   3249   3268     1  0.0000000  0.6508444  3
   3246   3245   3256   3261     1  0.0000000  0.6508444  3
   3246   3245   3263   3250     1  180.0000771  0.4184000  2
   3246   3245   3263   3250     1  0.0000000  1.6024720  3
   3248   3249   3250   3254     1  0.0000000  0.6508444  3
   3248   3249   3250   3263     1  0.0000000  0.6508444  3
   3248   3246   3245   3256     1  180.0000771  0.8368000  1
   3248   3246   3245   3256     1  180.0000771  1.0460000  2
   3248   3246   3245   3256     1  0.0000000  0.7531200  3
   3248   3246   3245   3263     1  0.0000000  0.6508444  3
   3249   3248   3246   3266     1  0.0000000  0.6508444  3
   3250   3263   3245   3256     1  180.0000771  0.4184000  2
   3250   3263   3245   3256     1  0.0000000  1.6024720  3
   3250   3249   3248   3255     1  0.0000000  0.6508444  3
   3254   3250   3249   3268     1  0.0000000  0.6508444  3
   3255   3248   3249   3268     1  0.0000000  0.6508444  3
   3255   3248   3246   3266     1  0.0000000  4.9162000  2
   3255   3248   3246   3266     1  0.0000000  0.6024960  3
   3256   3245   3246   3266     1  0.0000000  0.6508444  3
   3261   3256   3245   3263     1  0.0000000  4.9162000  2
   3261   3256   3245   3263     1  0.0000000  0.6024960  3
   3263   3250   3249   3268     1  0.0000000  0.6508444  3
   3263   3245   3246   3266     1  0.0000000  4.9162000  2
   3263   3245   3246   3266     1  0.0000000  0.6024960  3
   3269   3270   3272   3273     1  180.0000771  0.8368000  1
   3269   3270   3272   3273     1  180.0000771  1.0460000  2
   3269   3270   3272   3273     1  0.0000000  0.7531200  3
   3269   3270   3272   3279     1  0.0000000  0.6508444  3
   3269   3287   3274   3278     1  0.0000000  1.6038667  3
   3269   3287   3274   3273     1  180.0000771  0.4184000  2
   3269   3287   3274   3273     1  0.0000000  1.6024720  3
   3270   3272   3273   3274     1  180.0000771  0.8368000  1
   3270   3272   3273   3274     1  180.0000771  1.0460000  2
   3270   3272   3273   3274     1  0.0000000  0.7531200  3
   3270   3272   3273   3292     1  0.0000000  0.6508444  3
   3270   3269   3280   3285     1  0.0000000  0.6508444  3
   3270   3269   3287   3274     1  180.0000771  0.4184000  2
   3270   3269   3287   3274     1  0.0000000  1.6024720  3
   3272   3273   3274   3278     1  0.0000000  0.6508444  3
   3272   3273   3274   3287     1  0.0000000  0.6508444  3
   3272   3270   3269   3280     1  180.0000771  0.8368000  1
   3272   3270   3269   3280     1  180.0000771  1.0460000  2
   3272   3270   3269   3280     1  0.0000000  0.7531200  3
   3272   3270   3269   3287     1  0.0000000  0.6508444  3
   3273   3272   3270   3290     1  0.0000000  0.6508444  3
   3274   3287   3269   3280     1  180.0000771  0.4184000  2
   3274   3287   3269   3280     1  0.0000000  1.6024720  3
   3274   3273   3272   3279     1  0.0000000  0.6508444  3
   3278   3274   3273   3292     1  0.0000000  0.6508444  3
   3279   3272   3273   3292     1  0.0000000  0.6508444  3
   3279   3272   3270   3290     1  0.0000000  4.9162000  2
   3279   3272   3270   3290     1  0.0000000  0.6024960  3
   3280   3269   3270   3290     1  0.0000000  0.6508444  3
   3285   3280   3269   3287     1  0.0000000  4.9162000  2
   3285   3280   3269   3287     1  0.0000000  0.6024960  3
   3287   3274   3273   3292     1  0.0000000  0.6508444  3
   3287   3269   3270   3290     1  0.0000000  4.9162000  2
   3287   3269   3270   3290     1  0.0000000  0.6024960  3
   3293   3295   3297   3301     1  0.0000000  0.6508444  3
   3295   3297   3301   3302     1  180.0000771  2.0083200  2
   3295   3297   3301   3302     1  0.0000000  1.2552000  3
   3295   3297   3301   3303     1  180.0000771  2.0083200  2
   3295   3297   3301   3303     1  0.0000000  1.2552000  3
   3297   3301   3302   3313     1  180.0000771  2.0083200  2
   3297   3301   3302   3313     1  0.0000000  1.2552000  3
   3297   3301   3303   3305     1  180.0000771  2.0083200  2
   3297   3301   3303   3305     1  0.0000000  1.2552000  3
   3301   3302   3313   3316     1  0.0000000  0.6508444  3
   3301   3303   3305   3309     1  0.0000000  0.6508444  3
   3302   3301   3303   3305     1  180.0000771  2.0083200  2
   3302   3301   3303   3305     1  0.0000000  1.2552000  3
   3302   3313   3316   3317     1  180.0000771  0.0000000  2
   3302   3313   3316   3365     1  180.0000771  0.0000000  2
   3303   3301   3302   3313     1  180.0000771  2.0083200  2
   3303   3301   3302   3313     1  0.0000000  1.2552000  3
   3303   3305   3309   3310     1  180.0000771  0.0000000  2
   3303   3305   3309   3341     1  180.0000771  0.0000000  2
   3305   3309   3341   3322     1  180.0000771  6.0668000  2
   3305   3309   3341   3322     1  180.0000771  1.4644000  4
   3309   3341   3322   3321     1  0.0000000  1.2552000  3
   3309   3341   3322   3323     1  0.0000000  1.2552000  3
   3310   3309   3341   3322     1  180.0000771  6.0668000  2
   3310   3309   3341   3322     1  180.0000771  1.4644000  4
   3313   3316   3365   3346     1  180.0000771  6.0668000  2
   3313   3316   3365   3346     1  180.0000771  1.4644000  4
   3316   3365   3346   3345     1  0.0000000  1.2552000  3
   3316   3365   3346   3347     1  0.0000000  1.2552000  3
   3317   3316   3365   3346     1  180.0000771  6.0668000  2
   3317   3316   3365   3346     1  180.0000771  1.4644000  4
   3318   3319   3321   3322     1  180.0000771  0.8368000  1
   3318   3319   3321   3322     1  180.0000771  1.0460000  2
   3318   3319   3321   3322     1  0.0000000  0.7531200  3
   3318   3319   3321   3328     1  0.0000000  0.6508444  3
   3318   3336   3323   3322     1  180.0000771  0.4184000  2
   3318   3336   3323   3322     1  0.0000000  1.6024720  3
   3318   3336   3323   3327     1  0.0000000  1.6038667  3
   3319   3318   3329   3334     1  0.0000000  0.6508444  3
   3319   3318   3336   3323     1  180.0000771  0.4184000  2
   3319   3318   3336   3323     1  0.0000000  1.6024720  3
   3319   3321   3322   3323     1  180.0000771  0.8368000  1
   3319   3321   3322   3323     1  180.0000771  1.0460000  2
   3319   3321   3322   3323     1  0.0000000  0.7531200  3
   3319   3321   3322   3341     1  0.0000000  0.6508444  3
   3321   3319   3318   3329     1  180.0000771  0.8368000  1
   3321   3319   3318   3329     1  180.0000771  1.0460000  2
   3321   3319   3318   3329     1  0.0000000  0.7531200  3
   3321   3319   3318   3336     1  0.0000000  0.6508444  3
   3321   3322   3323   3327     1  0.0000000  0.6508444  3
   3321   3322   3323   3336     1  0.0000000  0.6508444  3
   3322   3321   3319   3339     1  0.0000000  0.6508444  3
   3323   3322   3321   3328     1  0.0000000  0.6508444  3
   3323   3336   3318   3329     1  180.0000771  0.4184000  2
   3323   3336   3318   3329     1  0.0000000  1.6024720  3
   3327   3323   3322   3341     1  0.0000000  0.6508444  3
   3328   3321   3319   3339     1  0.0000000  4.9162000  2
   3328   3321   3319   3339     1  0.0000000  0.6024960  3
   3328   3321   3322   3341     1  0.0000000  0.6508444  3
   3329   3318   3319   3339     1  0.0000000  0.6508444  3
   3334   3329   3318   3336     1  0.0000000  4.9162000  2
   3334   3329   3318   3336     1  0.0000000  0.6024960  3
   3336   3318   3319   3339     1  0.0000000  4.9162000  2
   3336   3318   3319   3339     1  0.0000000  0.6024960  3
   3336   3323   3322   3341     1  0.0000000  0.6508444  3
   3342   3343   3345   3346     1  180.0000771  0.8368000  1
   3342   3343   3345   3346     1  180.0000771  1.0460000  2
   3342   3343   3345   3346     1  0.0000000  0.7531200  3
   3342   3343   3345   3352     1  0.0000000  0.6508444  3
   3342   3360   3347   3346     1  180.0000771  0.4184000  2
   3342   3360   3347   3346     1  0.0000000  1.6024720  3
   3342   3360   3347   3351     1  0.0000000  1.6038667  3
   3343   3342   3353   3358     1  0.0000000  0.6508444  3
   3343   3342   3360   3347     1  180.0000771  0.4184000  2
   3343   3342   3360   3347     1  0.0000000  1.6024720  3
   3343   3345   3346   3347     1  180.0000771  0.8368000  1
   3343   3345   3346   3347     1  180.0000771  1.0460000  2
   3343   3345   3346   3347     1  0.0000000  0.7531200  3
   3343   3345   3346   3365     1  0.0000000  0.6508444  3
   3345   3343   3342   3353     1  180.0000771  0.8368000  1
   3345   3343   3342   3353     1  180.0000771  1.0460000  2
   3345   3343   3342   3353     1  0.0000000  0.7531200  3
   3345   3343   3342   3360     1  0.0000000  0.6508444  3
   3345   3346   3347   3351     1  0.0000000  0.6508444  3
   3345   3346   3347   3360     1  0.0000000  0.6508444  3
   3346   3345   3343   3363     1  0.0000000  0.6508444  3
   3347   3346   3345   3352     1  0.0000000  0.6508444  3
   3347   3360   3342   3353     1  180.0000771  0.4184000  2
   3347   3360   3342   3353     1  0.0000000  1.6024720  3
   3351   3347   3346   3365     1  0.0000000  0.6508444  3
   3352   3345   3343   3363     1  0.0000000  4.9162000  2
   3352   3345   3343   3363     1  0.0000000  0.6024960  3
   3352   3345   3346   3365     1  0.0000000  0.6508444  3
   3353   3342   3343   3363     1  0.0000000  0.6508444  3
   3358   3353   3342   3360     1  0.0000000  4.9162000  2
   3358   3353   3342   3360     1  0.0000000  0.6024960  3
   3360   3342   3343   3363     1  0.0000000  4.9162000  2
   3360   3342   3343   3363     1  0.0000000  0.6024960  3
   3360   3347   3346   3365     1  0.0000000  0.6508444  3
   3366   3368   3370   3374     1  0.0000000  0.6508444  3
   3368   3370   3374   3375     1  180.0000771  2.0083200  2
   3368   3370   3374   3375     1  0.0000000  1.2552000  3
   3368   3370   3374   3376     1  180.0000771  2.0083200  2
   3368   3370   3374   3376     1  0.0000000  1.2552000  3
   3370   3374   3375   3386     1  180.0000771  2.0083200  2
   3370   3374   3375   3386     1  0.0000000  1.2552000  3
   3370   3374   3376   3378     1  180.0000771  2.0083200  2
   3370   3374   3376   3378     1  0.0000000  1.2552000  3
   3374   3375   3386   3389     1  0.0000000  0.6508444  3
   3374   3376   3378   3382     1  0.0000000  0.6508444  3
   3375   3386   3389   3390     1  180.0000771  0.0000000  2
   3375   3386   3389   3438     1  180.0000771  0.0000000  2
   3375   3374   3376   3378     1  180.0000771  2.0083200  2
   3375   3374   3376   3378     1  0.0000000  1.2552000  3
   3376   3378   3382   3383     1  180.0000771  0.0000000  2
   3376   3378   3382   3414     1  180.0000771  0.0000000  2
   3376   3374   3375   3386     1  180.0000771  2.0083200  2
   3376   3374   3375   3386     1  0.0000000  1.2552000  3
   3378   3382   3414   3395     1  180.0000771  6.0668000  2
   3378   3382   3414   3395     1  180.0000771  1.4644000  4
   3382   3414   3395   3396     1  0.0000000  1.2552000  3
   3382   3414   3395   3394     1  0.0000000  1.2552000  3
   3383   3382   3414   3395     1  180.0000771  6.0668000  2
   3383   3382   3414   3395     1  180.0000771  1.4644000  4
   3386   3389   3438   3419     1  180.0000771  6.0668000  2
   3386   3389   3438   3419     1  180.0000771  1.4644000  4
   3389   3438   3419   3420     1  0.0000000  1.2552000  3
   3389   3438   3419   3418     1  0.0000000  1.2552000  3
   3390   3389   3438   3419     1  180.0000771  6.0668000  2
   3390   3389   3438   3419     1  180.0000771  1.4644000  4
   3391   3392   3394   3395     1  180.0000771  0.8368000  1
   3391   3392   3394   3395     1  180.0000771  1.0460000  2
   3391   3392   3394   3395     1  0.0000000  0.7531200  3
   3391   3392   3394   3401     1  0.0000000  0.6508444  3
   3391   3409   3396   3400     1  0.0000000  1.6038667  3
   3391   3409   3396   3395     1  180.0000771  0.4184000  2
   3391   3409   3396   3395     1  0.0000000  1.6024720  3
   3392   3394   3395   3396     1  180.0000771  0.8368000  1
   3392   3394   3395   3396     1  180.0000771  1.0460000  2
   3392   3394   3395   3396     1  0.0000000  0.7531200  3
   3392   3394   3395   3414     1  0.0000000  0.6508444  3
   3392   3391   3402   3407     1  0.0000000  0.6508444  3
   3392   3391   3409   3396     1  180.0000771  0.4184000  2
   3392   3391   3409   3396     1  0.0000000  1.6024720  3
   3394   3395   3396   3400     1  0.0000000  0.6508444  3
   3394   3395   3396   3409     1  0.0000000  0.6508444  3
   3394   3392   3391   3402     1  180.0000771  0.8368000  1
   3394   3392   3391   3402     1  180.0000771  1.0460000  2
   3394   3392   3391   3402     1  0.0000000  0.7531200  3
   3394   3392   3391   3409     1  0.0000000  0.6508444  3
   3395   3394   3392   3412     1  0.0000000  0.6508444  3
   3396   3409   3391   3402     1  180.0000771  0.4184000  2
   3396   3409   3391   3402     1  0.0000000  1.6024720  3
   3396   3395   3394   3401     1  0.0000000  0.6508444  3
   3400   3396   3395   3414     1  0.0000000  0.6508444  3
   3401   3394   3395   3414     1  0.0000000  0.6508444  3
   3401   3394   3392   3412     1  0.0000000  4.9162000  2
   3401   3394   3392   3412     1  0.0000000  0.6024960  3
   3402   3391   3392   3412     1  0.0000000  0.6508444  3
   3407   3402   3391   3409     1  0.0000000  4.9162000  2
   3407   3402   3391   3409     1  0.0000000  0.6024960  3
   3409   3396   3395   3414     1  0.0000000  0.6508444  3
   3409   3391   3392   3412     1  0.0000000  4.9162000  2
   3409   3391   3392   3412     1  0.0000000  0.6024960  3
   3415   3416   3418   3419     1  180.0000771  0.8368000  1
   3415   3416   3418   3419     1  180.0000771  1.0460000  2
   3415   3416   3418   3419     1  0.0000000  0.7531200  3
   3415   3416   3418   3425     1  0.0000000  0.6508444  3
   3415   3433   3420   3424     1  0.0000000  1.6038667  3
   3415   3433   3420   3419     1  180.0000771  0.4184000  2
   3415   3433   3420   3419     1  0.0000000  1.6024720  3
   3416   3418   3419   3420     1  180.0000771  0.8368000  1
   3416   3418   3419   3420     1  180.0000771  1.0460000  2
   3416   3418   3419   3420     1  0.0000000  0.7531200  3
   3416   3418   3419   3438     1  0.0000000  0.6508444  3
   3416   3415   3426   3431     1  0.0000000  0.6508444  3
   3416   3415   3433   3420     1  180.0000771  0.4184000  2
   3416   3415   3433   3420     1  0.0000000  1.6024720  3
   3418   3419   3420   3424     1  0.0000000  0.6508444  3
   3418   3419   3420   3433     1  0.0000000  0.6508444  3
   3418   3416   3415   3426     1  180.0000771  0.8368000  1
   3418   3416   3415   3426     1  180.0000771  1.0460000  2
   3418   3416   3415   3426     1  0.0000000  0.7531200  3
   3418   3416   3415   3433     1  0.0000000  0.6508444  3
   3419   3418   3416   3436     1  0.0000000  0.6508444  3
   3420   3433   3415   3426     1  180.0000771  0.4184000  2
   3420   3433   3415   3426     1  0.0000000  1.6024720  3
   3420   3419   3418   3425     1  0.0000000  0.6508444  3
   3424   3420   3419   3438     1  0.0000000  0.6508444  3
   3425   3418   3419   3438     1  0.0000000  0.6508444  3
   3425   3418   3416   3436     1  0.0000000  4.9162000  2
   3425   3418   3416   3436     1  0.0000000  0.6024960  3
   3426   3415   3416   3436     1  0.0000000  0.6508444  3
   3431   3426   3415   3433     1  0.0000000  4.9162000  2
   3431   3426   3415   3433     1  0.0000000  0.6024960  3
   3433   3420   3419   3438     1  0.0000000  0.6508444  3
   3433   3415   3416   3436     1  0.0000000  4.9162000  2
   3433   3415   3416   3436     1  0.0000000  0.6024960  3
   3439   3441   3443   3447     1  0.0000000  0.6508444  3
   3441   3443   3447   3448     1  180.0000771  2.0083200  2
   3441   3443   3447   3448     1  0.0000000  1.2552000  3
   3441   3443   3447   3449     1  180.0000771  2.0083200  2
   3441   3443   3447   3449     1  0.0000000  1.2552000  3
   3443   3447   3448   3459     1  180.0000771  2.0083200  2
   3443   3447   3448   3459     1  0.0000000  1.2552000  3
   3443   3447   3449   3451     1  180.0000771  2.0083200  2
   3443   3447   3449   3451     1  0.0000000  1.2552000  3
   3447   3448   3459   3462     1  0.0000000  0.6508444  3
   3447   3449   3451   3455     1  0.0000000  0.6508444  3
   3448   3447   3449   3451     1  180.0000771  2.0083200  2
   3448   3447   3449   3451     1  0.0000000  1.2552000  3
   3448   3459   3462   3463     1  180.0000771  0.0000000  2
   3448   3459   3462   3511     1  180.0000771  0.0000000  2
   3449   3447   3448   3459     1  180.0000771  2.0083200  2
   3449   3447   3448   3459     1  0.0000000  1.2552000  3
   3449   3451   3455   3456     1  180.0000771  0.0000000  2
   3449   3451   3455   3487     1  180.0000771  0.0000000  2
   3451   3455   3487   3468     1  180.0000771  6.0668000  2
   3451   3455   3487   3468     1  180.0000771  1.4644000  4
   3455   3487   3468   3467     1  0.0000000  1.2552000  3
   3455   3487   3468   3469     1  0.0000000  1.2552000  3
   3456   3455   3487   3468     1  180.0000771  6.0668000  2
   3456   3455   3487   3468     1  180.0000771  1.4644000  4
   3459   3462   3511   3492     1  180.0000771  6.0668000  2
   3459   3462   3511   3492     1  180.0000771  1.4644000  4
   3462   3511   3492   3491     1  0.0000000  1.2552000  3
   3462   3511   3492   3493     1  0.0000000  1.2552000  3
   3463   3462   3511   3492     1  180.0000771  6.0668000  2
   3463   3462   3511   3492     1  180.0000771  1.4644000  4
   3464   3465   3467   3468     1  180.0000771  0.8368000  1
   3464   3465   3467   3468     1  180.0000771  1.0460000  2
   3464   3465   3467   3468     1  0.0000000  0.7531200  3
   3464   3465   3467   3474     1  0.0000000  0.6508444  3
   3464   3482   3469   3468     1  180.0000771  0.4184000  2
   3464   3482   3469   3468     1  0.0000000  1.6024720  3
   3464   3482   3469   3473     1  0.0000000  1.6038667  3
   3465   3464   3475   3480     1  0.0000000  0.6508444  3
   3465   3464   3482   3469     1  180.0000771  0.4184000  2
   3465   3464   3482   3469     1  0.0000000  1.6024720  3
   3465   3467   3468   3469     1  180.0000771  0.8368000  1
   3465   3467   3468   3469     1  180.0000771  1.0460000  2
   3465   3467   3468   3469     1  0.0000000  0.7531200  3
   3465   3467   3468   3487     1  0.0000000  0.6508444  3
   3467   3465   3464   3475     1  180.0000771  0.8368000  1
   3467   3465   3464   3475     1  180.0000771  1.0460000  2
   3467   3465   3464   3475     1  0.0000000  0.7531200  3
   3467   3465   3464   3482     1  0.0000000  0.6508444  3
   3467   3468   3469   3473     1  0.0000000  0.6508444  3
   3467   3468   3469   3482     1  0.0000000  0.6508444  3
   3468   3467   3465   3485     1  0.0000000  0.6508444  3
   3469   3468   3467   3474     1  0.0000000  0.6508444  3
   3469   3482   3464   3475     1  180.0000771  0.4184000  2
   3469   3482   3464   3475     1  0.0000000  1.6024720  3
   3473   3469   3468   3487     1  0.0000000  0.6508444  3
   3474   3467   3465   3485     1  0.0000000  4.9162000  2
   3474   3467   3465   3485     1  0.0000000  0.6024960  3
   3474   3467   3468   3487     1  0.0000000  0.6508444  3
   3475   3464   3465   3485     1  0.0000000  0.6508444  3
   3480   3475   3464   3482     1  0.0000000  4.9162000  2
   3480   3475   3464   3482     1  0.0000000  0.6024960  3
   3482   3464   3465   3485     1  0.0000000  4.9162000  2
   3482   3464   3465   3485     1  0.0000000  0.6024960  3
   3482   3469   3468   3487     1  0.0000000  0.6508444  3
   3488   3489   3491   3492     1  180.0000771  0.8368000  1
   3488   3489   3491   3492     1  180.0000771  1.0460000  2
   3488   3489   3491   3492     1  0.0000000  0.7531200  3
   3488   3489   3491   3498     1  0.0000000  0.6508444  3
   3488   3506   3493   3492     1  180.0000771  0.4184000  2
   3488   3506   3493   3492     1  0.0000000  1.6024720  3
   3488   3506   3493   3497     1  0.0000000  1.6038667  3
   3489   3488   3499   3504     1  0.0000000  0.6508444  3
   3489   3488   3506   3493     1  180.0000771  0.4184000  2
   3489   3488   3506   3493     1  0.0000000  1.6024720  3
   3489   3491   3492   3493     1  180.0000771  0.8368000  1
   3489   3491   3492   3493     1  180.0000771  1.0460000  2
   3489   3491   3492   3493     1  0.0000000  0.7531200  3
   3489   3491   3492   3511     1  0.0000000  0.6508444  3
   3491   3489   3488   3499     1  180.0000771  0.8368000  1
   3491   3489   3488   3499     1  180.0000771  1.0460000  2
   3491   3489   3488   3499     1  0.0000000  0.7531200  3
   3491   3489   3488   3506     1  0.0000000  0.6508444  3
   3491   3492   3493   3497     1  0.0000000  0.6508444  3
   3491   3492   3493   3506     1  0.0000000  0.6508444  3
   3492   3491   3489   3509     1  0.0000000  0.6508444  3
   3493   3492   3491   3498     1  0.0000000  0.6508444  3
   3493   3506   3488   3499     1  180.0000771  0.4184000  2
   3493   3506   3488   3499     1  0.0000000  1.6024720  3
   3497   3493   3492   3511     1  0.0000000  0.6508444  3
   3498   3491   3489   3509     1  0.0000000  4.9162000  2
   3498   3491   3489   3509     1  0.0000000  0.6024960  3
   3498   3491   3492   3511     1  0.0000000  0.6508444  3
   3499   3488   3489   3509     1  0.0000000  0.6508444  3
   3504   3499   3488   3506     1  0.0000000  4.9162000  2
   3504   3499   3488   3506     1  0.0000000  0.6024960  3
   3506   3488   3489   3509     1  0.0000000  4.9162000  2
   3506   3488   3489   3509     1  0.0000000  0.6024960  3
   3506   3493   3492   3511     1  0.0000000  0.6508444  3
   3512   3514   3516   3520     1  0.0000000  0.6508444  3
   3514   3516   3520   3521     1  180.0000771  2.0083200  2
   3514   3516   3520   3521     1  0.0000000  1.2552000  3
   3514   3516   3520   3522     1  180.0000771  2.0083200  2
   3514   3516   3520   3522     1  0.0000000  1.2552000  3
   3516   3520   3521   3532     1  180.0000771  2.0083200  2
   3516   3520   3521   3532     1  0.0000000  1.2552000  3
   3516   3520   3522   3524     1  180.0000771  2.0083200  2
   3516   3520   3522   3524     1  0.0000000  1.2552000  3
   3520   3521   3532   3535     1  0.0000000  0.6508444  3
   3520   3522   3524   3528     1  0.0000000  0.6508444  3
   3521   3532   3535   3536     1  180.0000771  0.0000000  2
   3521   3532   3535   3584     1  180.0000771  0.0000000  2
   3521   3520   3522   3524     1  180.0000771  2.0083200  2
   3521   3520   3522   3524     1  0.0000000  1.2552000  3
   3522   3524   3528   3529     1  180.0000771  0.0000000  2
   3522   3524   3528   3560     1  180.0000771  0.0000000  2
   3522   3520   3521   3532     1  180.0000771  2.0083200  2
   3522   3520   3521   3532     1  0.0000000  1.2552000  3
   3524   3528   3560   3541     1  180.0000771  6.0668000  2
   3524   3528   3560   3541     1  180.0000771  1.4644000  4
   3528   3560   3541   3542     1  0.0000000  1.2552000  3
   3528   3560   3541   3540     1  0.0000000  1.2552000  3
   3529   3528   3560   3541     1  180.0000771  6.0668000  2
   3529   3528   3560   3541     1  180.0000771  1.4644000  4
   3532   3535   3584   3565     1  180.0000771  6.0668000  2
   3532   3535   3584   3565     1  180.0000771  1.4644000  4
   3535   3584   3565   3566     1  0.0000000  1.2552000  3
   3535   3584   3565   3564     1  0.0000000  1.2552000  3
   3536   3535   3584   3565     1  180.0000771  6.0668000  2
   3536   3535   3584   3565     1  180.0000771  1.4644000  4
   3537   3538   3540   3541     1  180.0000771  0.8368000  1
   3537   3538   3540   3541     1  180.0000771  1.0460000  2
   3537   3538   3540   3541     1  0.0000000  0.7531200  3
   3537   3538   3540   3547     1  0.0000000  0.6508444  3
   3537   3555   3542   3546     1  0.0000000  1.6038667  3
   3537   3555   3542   3541     1  180.0000771  0.4184000  2
   3537   3555   3542   3541     1  0.0000000  1.6024720  3
   3538   3540   3541   3542     1  180.0000771  0.8368000  1
   3538   3540   3541   3542     1  180.0000771  1.0460000  2
   3538   3540   3541   3542     1  0.0000000  0.7531200  3
   3538   3540   3541   3560     1  0.0000000  0.6508444  3
   3538   3537   3548   3553     1  0.0000000  0.6508444  3
   3538   3537   3555   3542     1  180.0000771  0.4184000  2
   3538   3537   3555   3542     1  0.0000000  1.6024720  3
   3540   3541   3542   3546     1  0.0000000  0.6508444  3
   3540   3541   3542   3555     1  0.0000000  0.6508444  3
   3540   3538   3537   3548     1  180.0000771  0.8368000  1
   3540   3538   3537   3548     1  180.0000771  1.0460000  2
   3540   3538   3537   3548     1  0.0000000  0.7531200  3
   3540   3538   3537   3555     1  0.0000000  0.6508444  3
   3541   3540   3538   3558     1  0.0000000  0.6508444  3
   3542   3555   3537   3548     1  180.0000771  0.4184000  2
   3542   3555   3537   3548     1  0.0000000  1.6024720  3
   3542   3541   3540   3547     1  0.0000000  0.6508444  3
   3546   3542   3541   3560     1  0.0000000  0.6508444  3
   3547   3540   3541   3560     1  0.0000000  0.6508444  3
   3547   3540   3538   3558     1  0.0000000  4.9162000  2
   3547   3540   3538   3558     1  0.0000000  0.6024960  3
   3548   3537   3538   3558     1  0.0000000  0.6508444  3
   3553   3548   3537   3555     1  0.0000000  4.9162000  2
   3553   3548   3537   3555     1  0.0000000  0.6024960  3
   3555   3542   3541   3560     1  0.0000000  0.6508444  3
   3555   3537   3538   3558     1  0.0000000  4.9162000  2
   3555   3537   3538   3558     1  0.0000000  0.6024960  3
   3561   3562   3564   3565     1  180.0000771  0.8368000  1
   3561   3562   3564   3565     1  180.0000771  1.0460000  2
   3561   3562   3564   3565     1  0.0000000  0.7531200  3
   3561   3562   3564   3571     1  0.0000000  0.6508444  3
   3561   3579   3566   3570     1  0.0000000  1.6038667  3
   3561   3579   3566   3565     1  180.0000771  0.4184000  2
   3561   3579   3566   3565     1  0.0000000  1.6024720  3
   3562   3564   3565   3566     1  180.0000771  0.8368000  1
   3562   3564   3565   3566     1  180.0000771  1.0460000  2
   3562   3564   3565   3566     1  0.0000000  0.7531200  3
   3562   3564   3565   3584     1  0.0000000  0.6508444  3
   3562   3561   3572   3577     1  0.0000000  0.6508444  3
   3562   3561   3579   3566     1  180.0000771  0.4184000  2
   3562   3561   3579   3566     1  0.0000000  1.6024720  3
   3564   3565   3566   3570     1  0.0000000  0.6508444  3
   3564   3565   3566   3579     1  0.0000000  0.6508444  3
   3564   3562   3561   3572     1  180.0000771  0.8368000  1
   3564   3562   3561   3572     1  180.0000771  1.0460000  2
   3564   3562   3561   3572     1  0.0000000  0.7531200  3
   3564   3562   3561   3579     1  0.0000000  0.6508444  3
   3565   3564   3562   3582     1  0.0000000  0.6508444  3
   3566   3579   3561   3572     1  180.0000771  0.4184000  2
   3566   3579   3561   3572     1  0.0000000  1.6024720  3
   3566   3565   3564   3571     1  0.0000000  0.6508444  3
   3570   3566   3565   3584     1  0.0000000  0.6508444  3
   3571   3564   3565   3584     1  0.0000000  0.6508444  3
   3571   3564   3562   3582     1  0.0000000  4.9162000  2
   3571   3564   3562   3582     1  0.0000000  0.6024960  3
   3572   3561   3562   3582     1  0.0000000  0.6508444  3
   3577   3572   3561   3579     1  0.0000000  4.9162000  2
   3577   3572   3561   3579     1  0.0000000  0.6024960  3
   3579   3566   3565   3584     1  0.0000000  0.6508444  3
   3579   3561   3562   3582     1  0.0000000  4.9162000  2
   3579   3561   3562   3582     1  0.0000000  0.6024960  3
   3585   3587   3589   3593     1  0.0000000  0.6508444  3
   3587   3589   3593   3594     1  180.0000771  2.0083200  2
   3587   3589   3593   3594     1  0.0000000  1.2552000  3
   3587   3589   3593   3595     1  180.0000771  2.0083200  2
   3587   3589   3593   3595     1  0.0000000  1.2552000  3
   3589   3593   3594   3605     1  180.0000771  2.0083200  2
   3589   3593   3594   3605     1  0.0000000  1.2552000  3
   3589   3593   3595   3597     1  180.0000771  2.0083200  2
   3589   3593   3595   3597     1  0.0000000  1.2552000  3
   3593   3594   3605   3608     1  0.0000000  0.6508444  3
   3593   3595   3597   3601     1  0.0000000  0.6508444  3
   3594   3593   3595   3597     1  180.0000771  2.0083200  2
   3594   3593   3595   3597     1  0.0000000  1.2552000  3
   3594   3605   3608   3609     1  180.0000771  0.0000000  2
   3594   3605   3608   3657     1  180.0000771  0.0000000  2
   3595   3593   3594   3605     1  180.0000771  2.0083200  2
   3595   3593   3594   3605     1  0.0000000  1.2552000  3
   3595   3597   3601   3602     1  180.0000771  0.0000000  2
   3595   3597   3601   3633     1  180.0000771  0.0000000  2
   3597   3601   3633   3614     1  180.0000771  6.0668000  2
   3597   3601   3633   3614     1  180.0000771  1.4644000  4
   3601   3633   3614   3613     1  0.0000000  1.2552000  3
   3601   3633   3614   3615     1  0.0000000  1.2552000  3
   3602   3601   3633   3614     1  180.0000771  6.0668000  2
   3602   3601   3633   3614     1  180.0000771  1.4644000  4
   3605   3608   3657   3638     1  180.0000771  6.0668000  2
   3605   3608   3657   3638     1  180.0000771  1.4644000  4
   3608   3657   3638   3637     1  0.0000000  1.2552000  3
   3608   3657   3638   3639     1  0.0000000  1.2552000  3
   3609   3608   3657   3638     1  180.0000771  6.0668000  2
   3609   3608   3657   3638     1  180.0000771  1.4644000  4
   3610   3611   3613   3614     1  180.0000771  0.8368000  1
   3610   3611   3613   3614     1  180.0000771  1.0460000  2
   3610   3611   3613   3614     1  0.0000000  0.7531200  3
   3610   3611   3613   3620     1  0.0000000  0.6508444  3
   3610   3628   3615   3614     1  180.0000771  0.4184000  2
   3610   3628   3615   3614     1  0.0000000  1.6024720  3
   3610   3628   3615   3619     1  0.0000000  1.6038667  3
   3611   3610   3621   3626     1  0.0000000  0.6508444  3
   3611   3610   3628   3615     1  180.0000771  0.4184000  2
   3611   3610   3628   3615     1  0.0000000  1.6024720  3
   3611   3613   3614   3615     1  180.0000771  0.8368000  1
   3611   3613   3614   3615     1  180.0000771  1.0460000  2
   3611   3613   3614   3615     1  0.0000000  0.7531200  3
   3611   3613   3614   3633     1  0.0000000  0.6508444  3
   3613   3611   3610   3621     1  180.0000771  0.8368000  1
   3613   3611   3610   3621     1  180.0000771  1.0460000  2
   3613   3611   3610   3621     1  0.0000000  0.7531200  3
   3613   3611   3610   3628     1  0.0000000  0.6508444  3
   3613   3614   3615   3619     1  0.0000000  0.6508444  3
   3613   3614   3615   3628     1  0.0000000  0.6508444  3
   3614   3613   3611   3631     1  0.0000000  0.6508444  3
   3615   3614   3613   3620     1  0.0000000  0.6508444  3
   3615   3628   3610   3621     1  180.0000771  0.4184000  2
   3615   3628   3610   3621     1  0.0000000  1.6024720  3
   3619   3615   3614   3633     1  0.0000000  0.6508444  3
   3620   3613   3611   3631     1  0.0000000  4.9162000  2
   3620   3613   3611   3631     1  0.0000000  0.6024960  3
   3620   3613   3614   3633     1  0.0000000  0.6508444  3
   3621   3610   3611   3631     1  0.0000000  0.6508444  3
   3626   3621   3610   3628     1  0.0000000  4.9162000  2
   3626   3621   3610   3628     1  0.0000000  0.6024960  3
   3628   3610   3611   3631     1  0.0000000  4.9162000  2
   3628   3610   3611   3631     1  0.0000000  0.6024960  3
   3628   3615   3614   3633     1  0.0000000  0.6508444  3
   3634   3635   3637   3638     1  180.0000771  0.8368000  1
   3634   3635   3637   3638     1  180.0000771  1.0460000  2
   3634   3635   3637   3638     1  0.0000000  0.7531200  3
   3634   3635   3637   3644     1  0.0000000  0.6508444  3
   3634   3652   3639   3638     1  180.0000771  0.4184000  2
   3634   3652   3639   3638     1  0.0000000  1.6024720  3
   3634   3652   3639   3643     1  0.0000000  1.6038667  3
   3635   3634   3645   3650     1  0.0000000  0.6508444  3
   3635   3634   3652   3639     1  180.0000771  0.4184000  2
   3635   3634   3652   3639     1  0.0000000  1.6024720  3
   3635   3637   3638   3639     1  180.0000771  0.8368000  1
   3635   3637   3638   3639     1  180.0000771  1.0460000  2
   3635   3637   3638   3639     1  0.0000000  0.7531200  3
   3635   3637   3638   3657     1  0.0000000  0.6508444  3
   3637   3635   3634   3645     1  180.0000771  0.8368000  1
   3637   3635   3634   3645     1  180.0000771  1.0460000  2
   3637   3635   3634   3645     1  0.0000000  0.7531200  3
   3637   3635   3634   3652     1  0.0000000  0.6508444  3
   3637   3638   3639   3643     1  0.0000000  0.6508444  3
   3637   3638   3639   3652     1  0.0000000  0.6508444  3
   3638   3637   3635   3655     1  0.0000000  0.6508444  3
   3639   3638   3637   3644     1  0.0000000  0.6508444  3
   3639   3652   3634   3645     1  180.0000771  0.4184000  2
   3639   3652   3634   3645     1  0.0000000  1.6024720  3
   3643   3639   3638   3657     1  0.0000000  0.6508444  3
   3644   3637   3635   3655     1  0.0000000  4.9162000  2
   3644   3637   3635   3655     1  0.0000000  0.6024960  3
   3644   3637   3638   3657     1  0.0000000  0.6508444  3
   3645   3634   3635   3655     1  0.0000000  0.6508444  3
   3650   3645   3634   3652     1  0.0000000  4.9162000  2
   3650   3645   3634   3652     1  0.0000000  0.6024960  3
   3652   3634   3635   3655     1  0.0000000  4.9162000  2
   3652   3634   3635   3655     1  0.0000000  0.6024960  3
   3652   3639   3638   3657     1  0.0000000  0.6508444  3
   3658   3660   3662   3666     1  0.0000000  0.6508444  3
   3660   3662   3666   3667     1  180.0000771  2.0083200  2
   3660   3662   3666   3667     1  0.0000000  1.2552000  3
   3660   3662   3666   3668     1  180.0000771  2.0083200  2
   3660   3662   3666   3668     1  0.0000000  1.2552000  3
   3662   3666   3667   3678     1  180.0000771  2.0083200  2
   3662   3666   3667   3678     1  0.0000000  1.2552000  3
   3662   3666   3668   3670     1  180.0000771  2.0083200  2
   3662   3666   3668   3670     1  0.0000000  1.2552000  3
   3666   3667   3678   3681     1  0.0000000  0.6508444  3
   3666   3668   3670   3674     1  0.0000000  0.6508444  3
   3667   3678   3681   3682     1  180.0000771  0.0000000  2
   3667   3678   3681   3730     1  180.0000771  0.0000000  2
   3667   3666   3668   3670     1  180.0000771  2.0083200  2
   3667   3666   3668   3670     1  0.0000000  1.2552000  3
   3668   3670   3674   3675     1  180.0000771  0.0000000  2
   3668   3670   3674   3706     1  180.0000771  0.0000000  2
   3668   3666   3667   3678     1  180.0000771  2.0083200  2
   3668   3666   3667   3678     1  0.0000000  1.2552000  3
   3670   3674   3706   3687     1  180.0000771  6.0668000  2
   3670   3674   3706   3687     1  180.0000771  1.4644000  4
   3674   3706   3687   3688     1  0.0000000  1.2552000  3
   3674   3706   3687   3686     1  0.0000000  1.2552000  3
   3675   3674   3706   3687     1  180.0000771  6.0668000  2
   3675   3674   3706   3687     1  180.0000771  1.4644000  4
   3678   3681   3730   3711     1  180.0000771  6.0668000  2
   3678   3681   3730   3711     1  180.0000771  1.4644000  4
   3681   3730   3711   3712     1  0.0000000  1.2552000  3
   3681   3730   3711   3710     1  0.0000000  1.2552000  3
   3682   3681   3730   3711     1  180.0000771  6.0668000  2
   3682   3681   3730   3711     1  180.0000771  1.4644000  4
   3683   3684   3686   3687     1  180.0000771  0.8368000  1
   3683   3684   3686   3687     1  180.0000771  1.0460000  2
   3683   3684   3686   3687     1  0.0000000  0.7531200  3
   3683   3684   3686   3693     1  0.0000000  0.6508444  3
   3683   3701   3688   3692     1  0.0000000  1.6038667  3
   3683   3701   3688   3687     1  180.0000771  0.4184000  2
   3683   3701   3688   3687     1  0.0000000  1.6024720  3
   3684   3686   3687   3688     1  180.0000771  0.8368000  1
   3684   3686   3687   3688     1  180.0000771  1.0460000  2
   3684   3686   3687   3688     1  0.0000000  0.7531200  3
   3684   3686   3687   3706     1  0.0000000  0.6508444  3
   3684   3683   3694   3699     1  0.0000000  0.6508444  3
   3684   3683   3701   3688     1  180.0000771  0.4184000  2
   3684   3683   3701   3688     1  0.0000000  1.6024720  3
   3686   3687   3688   3692     1  0.0000000  0.6508444  3
   3686   3687   3688   3701     1  0.0000000  0.6508444  3
   3686   3684   3683   3694     1  180.0000771  0.8368000  1
   3686   3684   3683   3694     1  180.0000771  1.0460000  2
   3686   3684   3683   3694     1  0.0000000  0.7531200  3
   3686   3684   3683   3701     1  0.0000000  0.6508444  3
   3687   3686   3684   3704     1  0.0000000  0.6508444  3
   3688   3701   3683   3694     1  180.0000771  0.4184000  2
   3688   3701   3683   3694     1  0.0000000  1.6024720  3
   3688   3687   3686   3693     1  0.0000000  0.6508444  3
   3692   3688   3687   3706     1  0.0000000  0.6508444  3
   3693   3686   3687   3706     1  0.0000000  0.6508444  3
   3693   3686   3684   3704     1  0.0000000  4.9162000  2
   3693   3686   3684   3704     1  0.0000000  0.6024960  3
   3694   3683   3684   3704     1  0.0000000  0.6508444  3
   3699   3694   3683   3701     1  0.0000000  4.9162000  2
   3699   3694   3683   3701     1  0.0000000  0.6024960  3
   3701   3688   3687   3706     1  0.0000000  0.6508444  3
   3701   3683   3684   3704     1  0.0000000  4.9162000  2
   3701   3683   3684   3704     1  0.0000000  0.6024960  3
   3707   3708   3710   3711     1  180.0000771  0.8368000  1
   3707   3708   3710   3711     1  180.0000771  1.0460000  2
   3707   3708   3710   3711     1  0.0000000  0.7531200  3
   3707   3708   3710   3717     1  0.0000000  0.6508444  3
   3707   3725   3712   3716     1  0.0000000  1.6038667  3
   3707   3725   3712   3711     1  180.0000771  0.4184000  2
   3707   3725   3712   3711     1  0.0000000  1.6024720  3
   3708   3710   3711   3712     1  180.0000771  0.8368000  1
   3708   3710   3711   3712     1  180.0000771  1.0460000  2
   3708   3710   3711   3712     1  0.0000000  0.7531200  3
   3708   3710   3711   3730     1  0.0000000  0.6508444  3
   3708   3707   3718   3723     1  0.0000000  0.6508444  3
   3708   3707   3725   3712     1  180.0000771  0.4184000  2
   3708   3707   3725   3712     1  0.0000000  1.6024720  3
   3710   3711   3712   3716     1  0.0000000  0.6508444  3
   3710   3711   3712   3725     1  0.0000000  0.6508444  3
   3710   3708   3707   3718     1  180.0000771  0.8368000  1
   3710   3708   3707   3718     1  180.0000771  1.0460000  2
   3710   3708   3707   3718     1  0.0000000  0.7531200  3
   3710   3708   3707   3725     1  0.0000000  0.6508444  3
   3711   3710   3708   3728     1  0.0000000  0.6508444  3
   3712   3725   3707   3718     1  180.0000771  0.4184000  2
   3712   3725   3707   3718     1  0.0000000  1.6024720  3
   3712   3711   3710   3717     1  0.0000000  0.6508444  3
   3716   3712   3711   3730     1  0.0000000  0.6508444  3
   3717   3710   3711   3730     1  0.0000000  0.6508444  3
   3717   3710   3708   3728     1  0.0000000  4.9162000  2
   3717   3710   3708   3728     1  0.0000000  0.6024960  3
   3718   3707   3708   3728     1  0.0000000  0.6508444  3
   3723   3718   3707   3725     1  0.0000000  4.9162000  2
   3723   3718   3707   3725     1  0.0000000  0.6024960  3
   3725   3712   3711   3730     1  0.0000000  0.6508444  3
   3725   3707   3708   3728     1  0.0000000  4.9162000  2
   3725   3707   3708   3728     1  0.0000000  0.6024960  3
   3731   3733   3735   3739     1  0.0000000  0.6508444  3
   3733   3735   3739   3740     1  180.0000771  2.0083200  2
   3733   3735   3739   3740     1  0.0000000  1.2552000  3
   3733   3735   3739   3741     1  180.0000771  2.0083200  2
   3733   3735   3739   3741     1  0.0000000  1.2552000  3
   3735   3739   3740   3751     1  180.0000771  2.0083200  2
   3735   3739   3740   3751     1  0.0000000  1.2552000  3
   3735   3739   3741   3743     1  180.0000771  2.0083200  2
   3735   3739   3741   3743     1  0.0000000  1.2552000  3
   3739   3740   3751   3754     1  0.0000000  0.6508444  3
   3739   3741   3743   3747     1  0.0000000  0.6508444  3
   3740   3739   3741   3743     1  180.0000771  2.0083200  2
   3740   3739   3741   3743     1  0.0000000  1.2552000  3
   3740   3751   3754   3755     1  180.0000771  0.0000000  2
   3740   3751   3754   3803     1  180.0000771  0.0000000  2
   3741   3739   3740   3751     1  180.0000771  2.0083200  2
   3741   3739   3740   3751     1  0.0000000  1.2552000  3
   3741   3743   3747   3748     1  180.0000771  0.0000000  2
   3741   3743   3747   3779     1  180.0000771  0.0000000  2
   3743   3747   3779   3760     1  180.0000771  6.0668000  2
   3743   3747   3779   3760     1  180.0000771  1.4644000  4
   3747   3779   3760   3759     1  0.0000000  1.2552000  3
   3747   3779   3760   3761     1  0.0000000  1.2552000  3
   3748   3747   3779   3760     1  180.0000771  6.0668000  2
   3748   3747   3779   3760     1  180.0000771  1.4644000  4
   3751   3754   3803   3784     1  180.0000771  6.0668000  2
   3751   3754   3803   3784     1  180.0000771  1.4644000  4
   3754   3803   3784   3783     1  0.0000000  1.2552000  3
   3754   3803   3784   3785     1  0.0000000  1.2552000  3
   3755   3754   3803   3784     1  180.0000771  6.0668000  2
   3755   3754   3803   3784     1  180.0000771  1.4644000  4
   3756   3757   3759   3760     1  180.0000771  0.8368000  1
   3756   3757   3759   3760     1  180.0000771  1.0460000  2
   3756   3757   3759   3760     1  0.0000000  0.7531200  3
   3756   3757   3759   3766     1  0.0000000  0.6508444  3
   3756   3774   3761   3760     1  180.0000771  0.4184000  2
   3756   3774   3761   3760     1  0.0000000  1.6024720  3
   3756   3774   3761   3765     1  0.0000000  1.6038667  3
   3757   3756   3767   3772     1  0.0000000  0.6508444  3
   3757   3756   3774   3761     1  180.0000771  0.4184000  2
   3757   3756   3774   3761     1  0.0000000  1.6024720  3
   3757   3759   3760   3761     1  180.0000771  0.8368000  1
   3757   3759   3760   3761     1  180.0000771  1.0460000  2
   3757   3759   3760   3761     1  0.0000000  0.7531200  3
   3757   3759   3760   3779     1  0.0000000  0.6508444  3
   3759   3757   3756   3767     1  180.0000771  0.8368000  1
   3759   3757   3756   3767     1  180.0000771  1.0460000  2
   3759   3757   3756   3767     1  0.0000000  0.7531200  3
   3759   3757   3756   3774     1  0.0000000  0.6508444  3
   3759   3760   3761   3765     1  0.0000000  0.6508444  3
   3759   3760   3761   3774     1  0.0000000  0.6508444  3
   3760   3759   3757   3777     1  0.0000000  0.6508444  3
   3761   3760   3759   3766     1  0.0000000  0.6508444  3
   3761   3774   3756   3767     1  180.0000771  0.4184000  2
   3761   3774   3756   3767     1  0.0000000  1.6024720  3
   3765   3761   3760   3779     1  0.0000000  0.6508444  3
   3766   3759   3757   3777     1  0.0000000  4.9162000  2
   3766   3759   3757   3777     1  0.0000000  0.6024960  3
   3766   3759   3760   3779     1  0.0000000  0.6508444  3
   3767   3756   3757   3777     1  0.0000000  0.6508444  3
   3772   3767   3756   3774     1  0.0000000  4.9162000  2
   3772   3767   3756   3774     1  0.0000000  0.6024960  3
   3774   3756   3757   3777     1  0.0000000  4.9162000  2
   3774   3756   3757   3777     1  0.0000000  0.6024960  3
   3774   3761   3760   3779     1  0.0000000  0.6508444  3
   3780   3781   3783   3784     1  180.0000771  0.8368000  1
   3780   3781   3783   3784     1  180.0000771  1.0460000  2
   3780   3781   3783   3784     1  0.0000000  0.7531200  3
   3780   3781   3783   3790     1  0.0000000  0.6508444  3
   3780   3798   3785   3784     1  180.0000771  0.4184000  2
   3780   3798   3785   3784     1  0.0000000  1.6024720  3
   3780   3798   3785   3789     1  0.0000000  1.6038667  3
   3781   3780   3791   3796     1  0.0000000  0.6508444  3
   3781   3780   3798   3785     1  180.0000771  0.4184000  2
   3781   3780   3798   3785     1  0.0000000  1.6024720  3
   3781   3783   3784   3785     1  180.0000771  0.8368000  1
   3781   3783   3784   3785     1  180.0000771  1.0460000  2
   3781   3783   3784   3785     1  0.0000000  0.7531200  3
   3781   3783   3784   3803     1  0.0000000  0.6508444  3
   3783   3781   3780   3791     1  180.0000771  0.8368000  1
   3783   3781   3780   3791     1  180.0000771  1.0460000  2
   3783   3781   3780   3791     1  0.0000000  0.7531200  3
   3783   3781   3780   3798     1  0.0000000  0.6508444  3
   3783   3784   3785   3789     1  0.0000000  0.6508444  3
   3783   3784   3785   3798     1  0.0000000  0.6508444  3
   3784   3783   3781   3801     1  0.0000000  0.6508444  3
   3785   3784   3783   3790     1  0.0000000  0.6508444  3
   3785   3798   3780   3791     1  180.0000771  0.4184000  2
   3785   3798   3780   3791     1  0.0000000  1.6024720  3
   3789   3785   3784   3803     1  0.0000000  0.6508444  3
   3790   3783   3781   3801     1  0.0000000  4.9162000  2
   3790   3783   3781   3801     1  0.0000000  0.6024960  3
   3790   3783   3784   3803     1  0.0000000  0.6508444  3
   3791   3780   3781   3801     1  0.0000000  0.6508444  3
   3796   3791   3780   3798     1  0.0000000  4.9162000  2
   3796   3791   3780   3798     1  0.0000000  0.6024960  3
   3798   3780   3781   3801     1  0.0000000  4.9162000  2
   3798   3780   3781   3801     1  0.0000000  0.6024960  3
   3798   3785   3784   3803     1  0.0000000  0.6508444  3
   3804   3806   3808   3812     1  0.0000000  0.6508444  3
   3806   3808   3812   3813     1  180.0000771  2.0083200  2
   3806   3808   3812   3813     1  0.0000000  1.2552000  3
   3806   3808   3812   3814     1  180.0000771  2.0083200  2
   3806   3808   3812   3814     1  0.0000000  1.2552000  3
   3808   3812   3813   3824     1  180.0000771  2.0083200  2
   3808   3812   3813   3824     1  0.0000000  1.2552000  3
   3808   3812   3814   3816     1  180.0000771  2.0083200  2
   3808   3812   3814   3816     1  0.0000000  1.2552000  3
   3812   3813   3824   3827     1  0.0000000  0.6508444  3
   3812   3814   3816   3820     1  0.0000000  0.6508444  3
   3813   3824   3827   3828     1  180.0000771  0.0000000  2
   3813   3824   3827   3876     1  180.0000771  0.0000000  2
   3813   3812   3814   3816     1  180.0000771  2.0083200  2
   3813   3812   3814   3816     1  0.0000000  1.2552000  3
   3814   3816   3820   3821     1  180.0000771  0.0000000  2
   3814   3816   3820   3852     1  180.0000771  0.0000000  2
   3814   3812   3813   3824     1  180.0000771  2.0083200  2
   3814   3812   3813   3824     1  0.0000000  1.2552000  3
   3816   3820   3852   3833     1  180.0000771  6.0668000  2
   3816   3820   3852   3833     1  180.0000771  1.4644000  4
   3820   3852   3833   3834     1  0.0000000  1.2552000  3
   3820   3852   3833   3832     1  0.0000000  1.2552000  3
   3821   3820   3852   3833     1  180.0000771  6.0668000  2
   3821   3820   3852   3833     1  180.0000771  1.4644000  4
   3824   3827   3876   3857     1  180.0000771  6.0668000  2
   3824   3827   3876   3857     1  180.0000771  1.4644000  4
   3827   3876   3857   3858     1  0.0000000  1.2552000  3
   3827   3876   3857   3856     1  0.0000000  1.2552000  3
   3828   3827   3876   3857     1  180.0000771  6.0668000  2
   3828   3827   3876   3857     1  180.0000771  1.4644000  4
   3829   3830   3832   3833     1  180.0000771  0.8368000  1
   3829   3830   3832   3833     1  180.0000771  1.0460000  2
   3829   3830   3832   3833     1  0.0000000  0.7531200  3
   3829   3830   3832   3839     1  0.0000000  0.6508444  3
   3829   3847   3834   3838     1  0.0000000  1.6038667  3
   3829   3847   3834   3833     1  180.0000771  0.4184000  2
   3829   3847   3834   3833     1  0.0000000  1.6024720  3
   3830   3832   3833   3834     1  180.0000771  0.8368000  1
   3830   3832   3833   3834     1  180.0000771  1.0460000  2
   3830   3832   3833   3834     1  0.0000000  0.7531200  3
   3830   3832   3833   3852     1  0.0000000  0.6508444  3
   3830   3829   3840   3845     1  0.0000000  0.6508444  3
   3830   3829   3847   3834     1  180.0000771  0.4184000  2
   3830   3829   3847   3834     1  0.0000000  1.6024720  3
   3832   3833   3834   3838     1  0.0000000  0.6508444  3
   3832   3833   3834   3847     1  0.0000000  0.6508444  3
   3832   3830   3829   3840     1  180.0000771  0.8368000  1
   3832   3830   3829   3840     1  180.0000771  1.0460000  2
   3832   3830   3829   3840     1  0.0000000  0.7531200  3
   3832   3830   3829   3847     1  0.0000000  0.6508444  3
   3833   3832   3830   3850     1  0.0000000  0.6508444  3
   3834   3847   3829   3840     1  180.0000771  0.4184000  2
   3834   3847   3829   3840     1  0.0000000  1.6024720  3
   3834   3833   3832   3839     1  0.0000000  0.6508444  3
   3838   3834   3833   3852     1  0.0000000  0.6508444  3
   3839   3832   3833   3852     1  0.0000000  0.6508444  3
   3839   3832   3830   3850     1  0.0000000  4.9162000  2
   3839   3832   3830   3850     1  0.0000000  0.6024960  3
   3840   3829   3830   3850     1  0.0000000  0.6508444  3
   3845   3840   3829   3847     1  0.0000000  4.9162000  2
   3845   3840   3829   3847     1  0.0000000  0.6024960  3
   3847   3834   3833   3852     1  0.0000000  0.6508444  3
   3847   3829   3830   3850     1  0.0000000  4.9162000  2
   3847   3829   3830   3850     1  0.0000000  0.6024960  3
   3853   3854   3856   3857     1  180.0000771  0.8368000  1
   3853   3854   3856   3857     1  180.0000771  1.0460000  2
   3853   3854   3856   3857     1  0.0000000  0.7531200  3
   3853   3854   3856   3863     1  0.0000000  0.6508444  3
   3853   3871   3858   3862     1  0.0000000  1.6038667  3
   3853   3871   3858   3857     1  180.0000771  0.4184000  2
   3853   3871   3858   3857     1  0.0000000  1.6024720  3
   3854   3856   3857   3858     1  180.0000771  0.8368000  1
   3854   3856   3857   3858     1  180.0000771  1.0460000  2
   3854   3856   3857   3858     1  0.0000000  0.7531200  3
   3854   3856   3857   3876     1  0.0000000  0.6508444  3
   3854   3853   3864   3869     1  0.0000000  0.6508444  3
   3854   3853   3871   3858     1  180.0000771  0.4184000  2
   3854   3853   3871   3858     1  0.0000000  1.6024720  3
   3856   3857   3858   3862     1  0.0000000  0.6508444  3
   3856   3857   3858   3871     1  0.0000000  0.6508444  3
   3856   3854   3853   3864     1  180.0000771  0.8368000  1
   3856   3854   3853   3864     1  180.0000771  1.0460000  2
   3856   3854   3853   3864     1  0.0000000  0.7531200  3
   3856   3854   3853   3871     1  0.0000000  0.6508444  3
   3857   3856   3854   3874     1  0.0000000  0.6508444  3
   3858   3871   3853   3864     1  180.0000771  0.4184000  2
   3858   3871   3853   3864     1  0.0000000  1.6024720  3
   3858   3857   3856   3863     1  0.0000000  0.6508444  3
   3862   3858   3857   3876     1  0.0000000  0.6508444  3
   3863   3856   3857   3876     1  0.0000000  0.6508444  3
   3863   3856   3854   3874     1  0.0000000  4.9162000  2
   3863   3856   3854   3874     1  0.0000000  0.6024960  3
   3864   3853   3854   3874     1  0.0000000  0.6508444  3
   3869   3864   3853   3871     1  0.0000000  4.9162000  2
   3869   3864   3853   3871     1  0.0000000  0.6024960  3
   3871   3858   3857   3876     1  0.0000000  0.6508444  3
   3871   3853   3854   3874     1  0.0000000  4.9162000  2
   3871   3853   3854   3874     1  0.0000000  0.6024960  3
   3877   3879   3881   3885     1  0.0000000  0.6508444  3
   3879   3881   3885   3886     1  180.0000771  2.0083200  2
   3879   3881   3885   3886     1  0.0000000  1.2552000  3
   3879   3881   3885   3887     1  180.0000771  2.0083200  2
   3879   3881   3885   3887     1  0.0000000  1.2552000  3
   3881   3885   3886   3897     1  180.0000771  2.0083200  2
   3881   3885   3886   3897     1  0.0000000  1.2552000  3
   3881   3885   3887   3889     1  180.0000771  2.0083200  2
   3881   3885   3887   3889     1  0.0000000  1.2552000  3
   3885   3886   3897   3900     1  0.0000000  0.6508444  3
   3885   3887   3889   3893     1  0.0000000  0.6508444  3
   3886   3885   3887   3889     1  180.0000771  2.0083200  2
   3886   3885   3887   3889     1  0.0000000  1.2552000  3
   3886   3897   3900   3901     1  180.0000771  0.0000000  2
   3886   3897   3900   3949     1  180.0000771  0.0000000  2
   3887   3885   3886   3897     1  180.0000771  2.0083200  2
   3887   3885   3886   3897     1  0.0000000  1.2552000  3
   3887   3889   3893   3894     1  180.0000771  0.0000000  2
   3887   3889   3893   3925     1  180.0000771  0.0000000  2
   3889   3893   3925   3906     1  180.0000771  6.0668000  2
   3889   3893   3925   3906     1  180.0000771  1.4644000  4
   3893   3925   3906   3905     1  0.0000000  1.2552000  3
   3893   3925   3906   3907     1  0.0000000  1.2552000  3
   3894   3893   3925   3906     1  180.0000771  6.0668000  2
   3894   3893   3925   3906     1  180.0000771  1.4644000  4
   3897   3900   3949   3930     1  180.0000771  6.0668000  2
   3897   3900   3949   3930     1  180.0000771  1.4644000  4
   3900   3949   3930   3929     1  0.0000000  1.2552000  3
   3900   3949   3930   3931     1  0.0000000  1.2552000  3
   3901   3900   3949   3930     1  180.0000771  6.0668000  2
   3901   3900   3949   3930     1  180.0000771  1.4644000  4
   3902   3903   3905   3906     1  180.0000771  0.8368000  1
   3902   3903   3905   3906     1  180.0000771  1.0460000  2
   3902   3903   3905   3906     1  0.0000000  0.7531200  3
   3902   3903   3905   3912     1  0.0000000  0.6508444  3
   3902   3920   3907   3906     1  180.0000771  0.4184000  2
   3902   3920   3907   3906     1  0.0000000  1.6024720  3
   3902   3920   3907   3911     1  0.0000000  1.6038667  3
   3903   3902   3913   3918     1  0.0000000  0.6508444  3
   3903   3902   3920   3907     1  180.0000771  0.4184000  2
   3903   3902   3920   3907     1  0.0000000  1.6024720  3
   3903   3905   3906   3907     1  180.0000771  0.8368000  1
   3903   3905   3906   3907     1  180.0000771  1.0460000  2
   3903   3905   3906   3907     1  0.0000000  0.7531200  3
   3903   3905   3906   3925     1  0.0000000  0.6508444  3
   3905   3903   3902   3913     1  180.0000771  0.8368000  1
   3905   3903   3902   3913     1  180.0000771  1.0460000  2
   3905   3903   3902   3913     1  0.0000000  0.7531200  3
   3905   3903   3902   3920     1  0.0000000  0.6508444  3
   3905   3906   3907   3911     1  0.0000000  0.6508444  3
   3905   3906   3907   3920     1  0.0000000  0.6508444  3
   3906   3905   3903   3923     1  0.0000000  0.6508444  3
   3907   3906   3905   3912     1  0.0000000  0.6508444  3
   3907   3920   3902   3913     1  180.0000771  0.4184000  2
   3907   3920   3902   3913     1  0.0000000  1.6024720  3
   3911   3907   3906   3925     1  0.0000000  0.6508444  3
   3912   3905   3903   3923     1  0.0000000  4.9162000  2
   3912   3905   3903   3923     1  0.0000000  0.6024960  3
   3912   3905   3906   3925     1  0.0000000  0.6508444  3
   3913   3902   3903   3923     1  0.0000000  0.6508444  3
   3918   3913   3902   3920     1  0.0000000  4.9162000  2
   3918   3913   3902   3920     1  0.0000000  0.6024960  3
   3920   3902   3903   3923     1  0.0000000  4.9162000  2
   3920   3902   3903   3923     1  0.0000000  0.6024960  3
   3920   3907   3906   3925     1  0.0000000  0.6508444  3
   3926   3927   3929   3930     1  180.0000771  0.8368000  1
   3926   3927   3929   3930     1  180.0000771  1.0460000  2
   3926   3927   3929   3930     1  0.0000000  0.7531200  3
   3926   3927   3929   3936     1  0.0000000  0.6508444  3
   3926   3944   3931   3930     1  180.0000771  0.4184000  2
   3926   3944   3931   3930     1  0.0000000  1.6024720  3
   3926   3944   3931   3935     1  0.0000000  1.6038667  3
   3927   3926   3937   3942     1  0.0000000  0.6508444  3
   3927   3926   3944   3931     1  180.0000771  0.4184000  2
   3927   3926   3944   3931     1  0.0000000  1.6024720  3
   3927   3929   3930   3931     1  180.0000771  0.8368000  1
   3927   3929   3930   3931     1  180.0000771  1.0460000  2
   3927   3929   3930   3931     1  0.0000000  0.7531200  3
   3927   3929   3930   3949     1  0.0000000  0.6508444  3
   3929   3927   3926   3937     1  180.0000771  0.8368000  1
   3929   3927   3926   3937     1  180.0000771  1.0460000  2
   3929   3927   3926   3937     1  0.0000000  0.7531200  3
   3929   3927   3926   3944     1  0.0000000  0.6508444  3
   3929   3930   3931   3935     1  0.0000000  0.6508444  3
   3929   3930   3931   3944     1  0.0000000  0.6508444  3
   3930   3929   3927   3947     1  0.0000000  0.6508444  3
   3931   3930   3929   3936     1  0.0000000  0.6508444  3
   3931   3944   3926   3937     1  180.0000771  0.4184000  2
   3931   3944   3926   3937     1  0.0000000  1.6024720  3
   3935   3931   3930   3949     1  0.0000000  0.6508444  3
   3936   3929   3927   3947     1  0.0000000  4.9162000  2
   3936   3929   3927   3947     1  0.0000000  0.6024960  3
   3936   3929   3930   3949     1  0.0000000  0.6508444  3
   3937   3926   3927   3947     1  0.0000000  0.6508444  3
   3942   3937   3926   3944     1  0.0000000  4.9162000  2
   3942   3937   3926   3944     1  0.0000000  0.6024960  3
   3944   3926   3927   3947     1  0.0000000  4.9162000  2
   3944   3926   3927   3947     1  0.0000000  0.6024960  3
   3944   3931   3930   3949     1  0.0000000  0.6508444  3
   3950   3952   3954   3958     1  0.0000000  0.6508444  3
   3952   3954   3958   3959     1  180.0000771  2.0083200  2
   3952   3954   3958   3959     1  0.0000000  1.2552000  3
   3952   3954   3958   3960     1  180.0000771  2.0083200  2
   3952   3954   3958   3960     1  0.0000000  1.2552000  3
   3954   3958   3959   3970     1  180.0000771  2.0083200  2
   3954   3958   3959   3970     1  0.0000000  1.2552000  3
   3954   3958   3960   3962     1  180.0000771  2.0083200  2
   3954   3958   3960   3962     1  0.0000000  1.2552000  3
   3958   3959   3970   3973     1  0.0000000  0.6508444  3
   3958   3960   3962   3966     1  0.0000000  0.6508444  3
   3959   3970   3973   3974     1  180.0000771  0.0000000  2
   3959   3970   3973   4022     1  180.0000771  0.0000000  2
   3959   3958   3960   3962     1  180.0000771  2.0083200  2
   3959   3958   3960   3962     1  0.0000000  1.2552000  3
   3960   3962   3966   3967     1  180.0000771  0.0000000  2
   3960   3962   3966   3998     1  180.0000771  0.0000000  2
   3960   3958   3959   3970     1  180.0000771  2.0083200  2
   3960   3958   3959   3970     1  0.0000000  1.2552000  3
   3962   3966   3998   3979     1  180.0000771  6.0668000  2
   3962   3966   3998   3979     1  180.0000771  1.4644000  4
   3966   3998   3979   3980     1  0.0000000  1.2552000  3
   3966   3998   3979   3978     1  0.0000000  1.2552000  3
   3967   3966   3998   3979     1  180.0000771  6.0668000  2
   3967   3966   3998   3979     1  180.0000771  1.4644000  4
   3970   3973   4022   4003     1  180.0000771  6.0668000  2
   3970   3973   4022   4003     1  180.0000771  1.4644000  4
   3973   4022   4003   4004     1  0.0000000  1.2552000  3
   3973   4022   4003   4002     1  0.0000000  1.2552000  3
   3974   3973   4022   4003     1  180.0000771  6.0668000  2
   3974   3973   4022   4003     1  180.0000771  1.4644000  4
   3975   3976   3978   3979     1  180.0000771  0.8368000  1
   3975   3976   3978   3979     1  180.0000771  1.0460000  2
   3975   3976   3978   3979     1  0.0000000  0.7531200  3
   3975   3976   3978   3985     1  0.0000000  0.6508444  3
   3975   3993   3980   3984     1  0.0000000  1.6038667  3
   3975   3993   3980   3979     1  180.0000771  0.4184000  2
   3975   3993   3980   3979     1  0.0000000  1.6024720  3
   3976   3978   3979   3980     1  180.0000771  0.8368000  1
   3976   3978   3979   3980     1  180.0000771  1.0460000  2
   3976   3978   3979   3980     1  0.0000000  0.7531200  3
   3976   3978   3979   3998     1  0.0000000  0.6508444  3
   3976   3975   3986   3991     1  0.0000000  0.6508444  3
   3976   3975   3993   3980     1  180.0000771  0.4184000  2
   3976   3975   3993   3980     1  0.0000000  1.6024720  3
   3978   3979   3980   3984     1  0.0000000  0.6508444  3
   3978   3979   3980   3993     1  0.0000000  0.6508444  3
   3978   3976   3975   3986     1  180.0000771  0.8368000  1
   3978   3976   3975   3986     1  180.0000771  1.0460000  2
   3978   3976   3975   3986     1  0.0000000  0.7531200  3
   3978   3976   3975   3993     1  0.0000000  0.6508444  3
   3979   3978   3976   3996     1  0.0000000  0.6508444  3
   3980   3993   3975   3986     1  180.0000771  0.4184000  2
   3980   3993   3975   3986     1  0.0000000  1.6024720  3
   3980   3979   3978   3985     1  0.0000000  0.6508444  3
   3984   3980   3979   3998     1  0.0000000  0.6508444  3
   3985   3978   3979   3998     1  0.0000000  0.6508444  3
   3985   3978   3976   3996     1  0.0000000  4.9162000  2
   3985   3978   3976   3996     1  0.0000000  0.6024960  3
   3986   3975   3976   3996     1  0.0000000  0.6508444  3
   3991   3986   3975   3993     1  0.0000000  4.9162000  2
   3991   3986   3975   3993     1  0.0000000  0.6024960  3
   3993   3980   3979   3998     1  0.0000000  0.6508444  3
   3993   3975   3976   3996     1  0.0000000  4.9162000  2
   3993   3975   3976   3996     1  0.0000000  0.6024960  3
   3999   4000   4002   4003     1  180.0000771  0.8368000  1
   3999   4000   4002   4003     1  180.0000771  1.0460000  2
   3999   4000   4002   4003     1  0.0000000  0.7531200  3
   3999   4000   4002   4009     1  0.0000000  0.6508444  3
   3999   4017   4004   4008     1  0.0000000  1.6038667  3
   3999   4017   4004   4003     1  180.0000771  0.4184000  2
   3999   4017   4004   4003     1  0.0000000  1.6024720  3
   4000   4002   4003   4004     1  180.0000771  0.8368000  1
   4000   4002   4003   4004     1  180.0000771  1.0460000  2
   4000   4002   4003   4004     1  0.0000000  0.7531200  3
   4000   4002   4003   4022     1  0.0000000  0.6508444  3
   4000   3999   4010   4015     1  0.0000000  0.6508444  3
   4000   3999   4017   4004     1  180.0000771  0.4184000  2
   4000   3999   4017   4004     1  0.0000000  1.6024720  3
   4002   4003   4004   4008     1  0.0000000  0.6508444  3
   4002   4003   4004   4017     1  0.0000000  0.6508444  3
   4002   4000   3999   4010     1  180.0000771  0.8368000  1
   4002   4000   3999   4010     1  180.0000771  1.0460000  2
   4002   4000   3999   4010     1  0.0000000  0.7531200  3
   4002   4000   3999   4017     1  0.0000000  0.6508444  3
   4003   4002   4000   4020     1  0.0000000  0.6508444  3
   4004   4017   3999   4010     1  180.0000771  0.4184000  2
   4004   4017   3999   4010     1  0.0000000  1.6024720  3
   4004   4003   4002   4009     1  0.0000000  0.6508444  3
   4008   4004   4003   4022     1  0.0000000  0.6508444  3
   4009   4002   4003   4022     1  0.0000000  0.6508444  3
   4009   4002   4000   4020     1  0.0000000  4.9162000  2
   4009   4002   4000   4020     1  0.0000000  0.6024960  3
   4010   3999   4000   4020     1  0.0000000  0.6508444  3
   4015   4010   3999   4017     1  0.0000000  4.9162000  2
   4015   4010   3999   4017     1  0.0000000  0.6024960  3
   4017   4004   4003   4022     1  0.0000000  0.6508444  3
   4017   3999   4000   4020     1  0.0000000  4.9162000  2
   4017   3999   4000   4020     1  0.0000000  0.6024960  3
   4023   4025   4027   4031     1  0.0000000  0.6508444  3
   4025   4027   4031   4032     1  180.0000771  2.0083200  2
   4025   4027   4031   4032     1  0.0000000  1.2552000  3
   4025   4027   4031   4033     1  180.0000771  2.0083200  2
   4025   4027   4031   4033     1  0.0000000  1.2552000  3
   4027   4031   4032   4043     1  180.0000771  2.0083200  2
   4027   4031   4032   4043     1  0.0000000  1.2552000  3
   4027   4031   4033   4035     1  180.0000771  2.0083200  2
   4027   4031   4033   4035     1  0.0000000  1.2552000  3
   4031   4032   4043   4046     1  0.0000000  0.6508444  3
   4031   4033   4035   4039     1  0.0000000  0.6508444  3
   4032   4031   4033   4035     1  180.0000771  2.0083200  2
   4032   4031   4033   4035     1  0.0000000  1.2552000  3
   4032   4043   4046   4047     1  180.0000771  0.0000000  2
   4032   4043   4046   4095     1  180.0000771  0.0000000  2
   4033   4031   4032   4043     1  180.0000771  2.0083200  2
   4033   4031   4032   4043     1  0.0000000  1.2552000  3
   4033   4035   4039   4040     1  180.0000771  0.0000000  2
   4033   4035   4039   4071     1  180.0000771  0.0000000  2
   4035   4039   4071   4052     1  180.0000771  6.0668000  2
   4035   4039   4071   4052     1  180.0000771  1.4644000  4
   4039   4071   4052   4051     1  0.0000000  1.2552000  3
   4039   4071   4052   4053     1  0.0000000  1.2552000  3
   4040   4039   4071   4052     1  180.0000771  6.0668000  2
   4040   4039   4071   4052     1  180.0000771  1.4644000  4
   4043   4046   4095   4076     1  180.0000771  6.0668000  2
   4043   4046   4095   4076     1  180.0000771  1.4644000  4
   4046   4095   4076   4075     1  0.0000000  1.2552000  3
   4046   4095   4076   4077     1  0.0000000  1.2552000  3
   4047   4046   4095   4076     1  180.0000771  6.0668000  2
   4047   4046   4095   4076     1  180.0000771  1.4644000  4
   4048   4049   4051   4052     1  180.0000771  0.8368000  1
   4048   4049   4051   4052     1  180.0000771  1.0460000  2
   4048   4049   4051   4052     1  0.0000000  0.7531200  3
   4048   4049   4051   4058     1  0.0000000  0.6508444  3
   4048   4066   4053   4052     1  180.0000771  0.4184000  2
   4048   4066   4053   4052     1  0.0000000  1.6024720  3
   4048   4066   4053   4057     1  0.0000000  1.6038667  3
   4049   4048   4059   4064     1  0.0000000  0.6508444  3
   4049   4048   4066   4053     1  180.0000771  0.4184000  2
   4049   4048   4066   4053     1  0.0000000  1.6024720  3
   4049   4051   4052   4053     1  180.0000771  0.8368000  1
   4049   4051   4052   4053     1  180.0000771  1.0460000  2
   4049   4051   4052   4053     1  0.0000000  0.7531200  3
   4049   4051   4052   4071     1  0.0000000  0.6508444  3
   4051   4049   4048   4059     1  180.0000771  0.8368000  1
   4051   4049   4048   4059     1  180.0000771  1.0460000  2
   4051   4049   4048   4059     1  0.0000000  0.7531200  3
   4051   4049   4048   4066     1  0.0000000  0.6508444  3
   4051   4052   4053   4057     1  0.0000000  0.6508444  3
   4051   4052   4053   4066     1  0.0000000  0.6508444  3
   4052   4051   4049   4069     1  0.0000000  0.6508444  3
   4053   4052   4051   4058     1  0.0000000  0.6508444  3
   4053   4066   4048   4059     1  180.0000771  0.4184000  2
   4053   4066   4048   4059     1  0.0000000  1.6024720  3
   4057   4053   4052   4071     1  0.0000000  0.6508444  3
   4058   4051   4049   4069     1  0.0000000  4.9162000  2
   4058   4051   4049   4069     1  0.0000000  0.6024960  3
   4058   4051   4052   4071     1  0.0000000  0.6508444  3
   4059   4048   4049   4069     1  0.0000000  0.6508444  3
   4064   4059   4048   4066     1  0.0000000  4.9162000  2
   4064   4059   4048   4066     1  0.0000000  0.6024960  3
   4066   4048   4049   4069     1  0.0000000  4.9162000  2
   4066   4048   4049   4069     1  0.0000000  0.6024960  3
   4066   4053   4052   4071     1  0.0000000  0.6508444  3
   4072   4073   4075   4076     1  180.0000771  0.8368000  1
   4072   4073   4075   4076     1  180.0000771  1.0460000  2
   4072   4073   4075   4076     1  0.0000000  0.7531200  3
   4072   4073   4075   4082     1  0.0000000  0.6508444  3
   4072   4090   4077   4076     1  180.0000771  0.4184000  2
   4072   4090   4077   4076     1  0.0000000  1.6024720  3
   4072   4090   4077   4081     1  0.0000000  1.6038667  3
   4073   4072   4083   4088     1  0.0000000  0.6508444  3
   4073   4072   4090   4077     1  180.0000771  0.4184000  2
   4073   4072   4090   4077     1  0.0000000  1.6024720  3
   4073   4075   4076   4077     1  180.0000771  0.8368000  1
   4073   4075   4076   4077     1  180.0000771  1.0460000  2
   4073   4075   4076   4077     1  0.0000000  0.7531200  3
   4073   4075   4076   4095     1  0.0000000  0.6508444  3
   4075   4073   4072   4083     1  180.0000771  0.8368000  1
   4075   4073   4072   4083     1  180.0000771  1.0460000  2
   4075   4073   4072   4083     1  0.0000000  0.7531200  3
   4075   4073   4072   4090     1  0.0000000  0.6508444  3
   4075   4076   4077   4081     1  0.0000000  0.6508444  3
   4075   4076   4077   4090     1  0.0000000  0.6508444  3
   4076   4075   4073   4093     1  0.0000000  0.6508444  3
   4077   4076   4075   4082     1  0.0000000  0.6508444  3
   4077   4090   4072   4083     1  180.0000771  0.4184000  2
   4077   4090   4072   4083     1  0.0000000  1.6024720  3
   4081   4077   4076   4095     1  0.0000000  0.6508444  3
   4082   4075   4073   4093     1  0.0000000  4.9162000  2
   4082   4075   4073   4093     1  0.0000000  0.6024960  3
   4082   4075   4076   4095     1  0.0000000  0.6508444  3
   4083   4072   4073   4093     1  0.0000000  0.6508444  3
   4088   4083   4072   4090     1  0.0000000  4.9162000  2
   4088   4083   4072   4090     1  0.0000000  0.6024960  3
   4090   4072   4073   4093     1  0.0000000  4.9162000  2
   4090   4072   4073   4093     1  0.0000000  0.6024960  3
   4090   4077   4076   4095     1  0.0000000  0.6508444  3
   4096   4098   4100   4104     1  0.0000000  0.6508444  3
   4098   4100   4104   4105     1  180.0000771  2.0083200  2
   4098   4100   4104   4105     1  0.0000000  1.2552000  3
   4098   4100   4104   4106     1  180.0000771  2.0083200  2
   4098   4100   4104   4106     1  0.0000000  1.2552000  3
   4100   4104   4105   4116     1  180.0000771  2.0083200  2
   4100   4104   4105   4116     1  0.0000000  1.2552000  3
   4100   4104   4106   4108     1  180.0000771  2.0083200  2
   4100   4104   4106   4108     1  0.0000000  1.2552000  3
   4104   4105   4116   4119     1  0.0000000  0.6508444  3
   4104   4106   4108   4112     1  0.0000000  0.6508444  3
   4105   4116   4119   4120     1  180.0000771  0.0000000  2
   4105   4116   4119   4168     1  180.0000771  0.0000000  2
   4105   4104   4106   4108     1  180.0000771  2.0083200  2
   4105   4104   4106   4108     1  0.0000000  1.2552000  3
   4106   4108   4112   4113     1  180.0000771  0.0000000  2
   4106   4108   4112   4144     1  180.0000771  0.0000000  2
   4106   4104   4105   4116     1  180.0000771  2.0083200  2
   4106   4104   4105   4116     1  0.0000000  1.2552000  3
   4108   4112   4144   4125     1  180.0000771  6.0668000  2
   4108   4112   4144   4125     1  180.0000771  1.4644000  4
   4112   4144   4125   4126     1  0.0000000  1.2552000  3
   4112   4144   4125   4124     1  0.0000000  1.2552000  3
   4113   4112   4144   4125     1  180.0000771  6.0668000  2
   4113   4112   4144   4125     1  180.0000771  1.4644000  4
   4116   4119   4168   4149     1  180.0000771  6.0668000  2
   4116   4119   4168   4149     1  180.0000771  1.4644000  4
   4119   4168   4149   4150     1  0.0000000  1.2552000  3
   4119   4168   4149   4148     1  0.0000000  1.2552000  3
   4120   4119   4168   4149     1  180.0000771  6.0668000  2
   4120   4119   4168   4149     1  180.0000771  1.4644000  4
   4121   4122   4124   4125     1  180.0000771  0.8368000  1
   4121   4122   4124   4125     1  180.0000771  1.0460000  2
   4121   4122   4124   4125     1  0.0000000  0.7531200  3
   4121   4122   4124   4131     1  0.0000000  0.6508444  3
   4121   4139   4126   4130     1  0.0000000  1.6038667  3
   4121   4139   4126   4125     1  180.0000771  0.4184000  2
   4121   4139   4126   4125     1  0.0000000  1.6024720  3
   4122   4124   4125   4126     1  180.0000771  0.8368000  1
   4122   4124   4125   4126     1  180.0000771  1.0460000  2
   4122   4124   4125   4126     1  0.0000000  0.7531200  3
   4122   4124   4125   4144     1  0.0000000  0.6508444  3
   4122   4121   4132   4137     1  0.0000000  0.6508444  3
   4122   4121   4139   4126     1  180.0000771  0.4184000  2
   4122   4121   4139   4126     1  0.0000000  1.6024720  3
   4124   4125   4126   4130     1  0.0000000  0.6508444  3
   4124   4125   4126   4139     1  0.0000000  0.6508444  3
   4124   4122   4121   4132     1  180.0000771  0.8368000  1
   4124   4122   4121   4132     1  180.0000771  1.0460000  2
   4124   4122   4121   4132     1  0.0000000  0.7531200  3
   4124   4122   4121   4139     1  0.0000000  0.6508444  3
   4125   4124   4122   4142     1  0.0000000  0.6508444  3
   4126   4139   4121   4132     1  180.0000771  0.4184000  2
   4126   4139   4121   4132     1  0.0000000  1.6024720  3
   4126   4125   4124   4131     1  0.0000000  0.6508444  3
   4130   4126   4125   4144     1  0.0000000  0.6508444  3
   4131   4124   4125   4144     1  0.0000000  0.6508444  3
   4131   4124   4122   4142     1  0.0000000  4.9162000  2
   4131   4124   4122   4142     1  0.0000000  0.6024960  3
   4132   4121   4122   4142     1  0.0000000  0.6508444  3
   4137   4132   4121   4139     1  0.0000000  4.9162000  2
   4137   4132   4121   4139     1  0.0000000  0.6024960  3
   4139   4126   4125   4144     1  0.0000000  0.6508444  3
   4139   4121   4122   4142     1  0.0000000  4.9162000  2
   4139   4121   4122   4142     1  0.0000000  0.6024960  3
   4145   4146   4148   4149     1  180.0000771  0.8368000  1
   4145   4146   4148   4149     1  180.0000771  1.0460000  2
   4145   4146   4148   4149     1  0.0000000  0.7531200  3
   4145   4146   4148   4155     1  0.0000000  0.6508444  3
   4145   4163   4150   4154     1  0.0000000  1.6038667  3
   4145   4163   4150   4149     1  180.0000771  0.4184000  2
   4145   4163   4150   4149     1  0.0000000  1.6024720  3
   4146   4148   4149   4150     1  180.0000771  0.8368000  1
   4146   4148   4149   4150     1  180.0000771  1.0460000  2
   4146   4148   4149   4150     1  0.0000000  0.7531200  3
   4146   4148   4149   4168     1  0.0000000  0.6508444  3
   4146   4145   4156   4161     1  0.0000000  0.6508444  3
   4146   4145   4163   4150     1  180.0000771  0.4184000  2
   4146   4145   4163   4150     1  0.0000000  1.6024720  3
   4148   4149   4150   4154     1  0.0000000  0.6508444  3
   4148   4149   4150   4163     1  0.0000000  0.6508444  3
   4148   4146   4145   4156     1  180.0000771  0.8368000  1
   4148   4146   4145   4156     1  180.0000771  1.0460000  2
   4148   4146   4145   4156     1  0.0000000  0.7531200  3
   4148   4146   4145   4163     1  0.0000000  0.6508444  3
   4149   4148   4146   4166     1  0.0000000  0.6508444  3
   4150   4163   4145   4156     1  180.0000771  0.4184000  2
   4150   4163   4145   4156     1  0.0000000  1.6024720  3
   4150   4149   4148   4155     1  0.0000000  0.6508444  3
   4154   4150   4149   4168     1  0.0000000  0.6508444  3
   4155   4148   4149   4168     1  0.0000000  0.6508444  3
   4155   4148   4146   4166     1  0.0000000  4.9162000  2
   4155   4148   4146   4166     1  0.0000000  0.6024960  3
   4156   4145   4146   4166     1  0.0000000  0.6508444  3
   4161   4156   4145   4163     1  0.0000000  4.9162000  2
   4161   4156   4145   4163     1  0.0000000  0.6024960  3
   4163   4150   4149   4168     1  0.0000000  0.6508444  3
   4163   4145   4146   4166     1  0.0000000  4.9162000  2
   4163   4145   4146   4166     1  0.0000000  0.6024960  3
   4169   4171   4173   4177     1  0.0000000  0.6508444  3
   4171   4173   4177   4178     1  180.0000771  2.0083200  2
   4171   4173   4177   4178     1  0.0000000  1.2552000  3
   4171   4173   4177   4179     1  180.0000771  2.0083200  2
   4171   4173   4177   4179     1  0.0000000  1.2552000  3
   4173   4177   4178   4189     1  180.0000771  2.0083200  2
   4173   4177   4178   4189     1  0.0000000  1.2552000  3
   4173   4177   4179   4181     1  180.0000771  2.0083200  2
   4173   4177   4179   4181     1  0.0000000  1.2552000  3
   4177   4178   4189   4192     1  0.0000000  0.6508444  3
   4177   4179   4181   4185     1  0.0000000  0.6508444  3
   4178   4177   4179   4181     1  180.0000771  2.0083200  2
   4178   4177   4179   4181     1  0.0000000  1.2552000  3
   4178   4189   4192   4193     1  180.0000771  0.0000000  2
   4178   4189   4192   4241     1  180.0000771  0.0000000  2
   4179   4177   4178   4189     1  180.0000771  2.0083200  2
   4179   4177   4178   4189     1  0.0000000  1.2552000  3
   4179   4181   4185   4186     1  180.0000771  0.0000000  2
   4179   4181   4185   4217     1  180.0000771  0.0000000  2
   4181   4185   4217   4198     1  180.0000771  6.0668000  2
   4181   4185   4217   4198     1  180.0000771  1.4644000  4
   4185   4217   4198   4197     1  0.0000000  1.2552000  3
   4185   4217   4198   4199     1  0.0000000  1.2552000  3
   4186   4185   4217   4198     1  180.0000771  6.0668000  2
   4186   4185   4217   4198     1  180.0000771  1.4644000  4
   4189   4192   4241   4222     1  180.0000771  6.0668000  2
   4189   4192   4241   4222     1  180.0000771  1.4644000  4
   4192   4241   4222   4221     1  0.0000000  1.2552000  3
   4192   4241   4222   4223     1  0.0000000  1.2552000  3
   4193   4192   4241   4222     1  180.0000771  6.0668000  2
   4193   4192   4241   4222     1  180.0000771  1.4644000  4
   4194   4195   4197   4198     1  180.0000771  0.8368000  1
   4194   4195   4197   4198     1  180.0000771  1.0460000  2
   4194   4195   4197   4198     1  0.0000000  0.7531200  3
   4194   4195   4197   4204     1  0.0000000  0.6508444  3
   4194   4212   4199   4198     1  180.0000771  0.4184000  2
   4194   4212   4199   4198     1  0.0000000  1.6024720  3
   4194   4212   4199   4203     1  0.0000000  1.6038667  3
   4195   4194   4205   4210     1  0.0000000  0.6508444  3
   4195   4194   4212   4199     1  180.0000771  0.4184000  2
   4195   4194   4212   4199     1  0.0000000  1.6024720  3
   4195   4197   4198   4199     1  180.0000771  0.8368000  1
   4195   4197   4198   4199     1  180.0000771  1.0460000  2
   4195   4197   4198   4199     1  0.0000000  0.7531200  3
   4195   4197   4198   4217     1  0.0000000  0.6508444  3
   4197   4195   4194   4205     1  180.0000771  0.8368000  1
   4197   4195   4194   4205     1  180.0000771  1.0460000  2
   4197   4195   4194   4205     1  0.0000000  0.7531200  3
   4197   4195   4194   4212     1  0.0000000  0.6508444  3
   4197   4198   4199   4203     1  0.0000000  0.6508444  3
   4197   4198   4199   4212     1  0.0000000  0.6508444  3
   4198   4197   4195   4215     1  0.0000000  0.6508444  3
   4199   4198   4197   4204     1  0.0000000  0.6508444  3
   4199   4212   4194   4205     1  180.0000771  0.4184000  2
   4199   4212   4194   4205     1  0.0000000  1.6024720  3
   4203   4199   4198   4217     1  0.0000000  0.6508444  3
   4204   4197   4195   4215     1  0.0000000  4.9162000  2
   4204   4197   4195   4215     1  0.0000000  0.6024960  3
   4204   4197   4198   4217     1  0.0000000  0.6508444  3
   4205   4194   4195   4215     1  0.0000000  0.6508444  3
   4210   4205   4194   4212     1  0.0000000  4.9162000  2
   4210   4205   4194   4212     1  0.0000000  0.6024960  3
   4212   4194   4195   4215     1  0.0000000  4.9162000  2
   4212   4194   4195   4215     1  0.0000000  0.6024960  3
   4212   4199   4198   4217     1  0.0000000  0.6508444  3
   4218   4219   4221   4222     1  180.0000771  0.8368000  1
   4218   4219   4221   4222     1  180.0000771  1.0460000  2
   4218   4219   4221   4222     1  0.0000000  0.7531200  3
   4218   4219   4221   4228     1  0.0000000  0.6508444  3
   4218   4236   4223   4222     1  180.0000771  0.4184000  2
   4218   4236   4223   4222     1  0.0000000  1.6024720  3
   4218   4236   4223   4227     1  0.0000000  1.6038667  3
   4219   4218   4229   4234     1  0.0000000  0.6508444  3
   4219   4218   4236   4223     1  180.0000771  0.4184000  2
   4219   4218   4236   4223     1  0.0000000  1.6024720  3
   4219   4221   4222   4223     1  180.0000771  0.8368000  1
   4219   4221   4222   4223     1  180.0000771  1.0460000  2
   4219   4221   4222   4223     1  0.0000000  0.7531200  3
   4219   4221   4222   4241     1  0.0000000  0.6508444  3
   4221   4219   4218   4229     1  180.0000771  0.8368000  1
   4221   4219   4218   4229     1  180.0000771  1.0460000  2
   4221   4219   4218   4229     1  0.0000000  0.7531200  3
   4221   4219   4218   4236     1  0.0000000  0.6508444  3
   4221   4222   4223   4227     1  0.0000000  0.6508444  3
   4221   4222   4223   4236     1  0.0000000  0.6508444  3
   4222   4221   4219   4239     1  0.0000000  0.6508444  3
   4223   4222   4221   4228     1  0.0000000  0.6508444  3
   4223   4236   4218   4229     1  180.0000771  0.4184000  2
   4223   4236   4218   4229     1  0.0000000  1.6024720  3
   4227   4223   4222   4241     1  0.0000000  0.6508444  3
   4228   4221   4219   4239     1  0.0000000  4.9162000  2
   4228   4221   4219   4239     1  0.0000000  0.6024960  3
   4228   4221   4222   4241     1  0.0000000  0.6508444  3
   4229   4218   4219   4239     1  0.0000000  0.6508444  3
   4234   4229   4218   4236     1  0.0000000  4.9162000  2
   4234   4229   4218   4236     1  0.0000000  0.6024960  3
   4236   4218   4219   4239     1  0.0000000  4.9162000  2
   4236   4218   4219   4239     1  0.0000000  0.6024960  3
   4236   4223   4222   4241     1  0.0000000  0.6508444  3
   4242   4244   4246   4250     1  0.0000000  0.6508444  3
   4244   4246   4250   4251     1  180.0000771  2.0083200  2
   4244   4246   4250   4251     1  0.0000000  1.2552000  3
   4244   4246   4250   4252     1  180.0000771  2.0083200  2
   4244   4246   4250   4252     1  0.0000000  1.2552000  3
   4246   4250   4251   4262     1  180.0000771  2.0083200  2
   4246   4250   4251   4262     1  0.0000000  1.2552000  3
   4246   4250   4252   4254     1  180.0000771  2.0083200  2
   4246   4250   4252   4254     1  0.0000000  1.2552000  3
   4250   4251   4262   4265     1  0.0000000  0.6508444  3
   4250   4252   4254   4258     1  0.0000000  0.6508444  3
   4251   4262   4265   4266     1  180.0000771  0.0000000  2
   4251   4262   4265   4314     1  180.0000771  0.0000000  2
   4251   4250   4252   4254     1  180.0000771  2.0083200  2
   4251   4250   4252   4254     1  0.0000000  1.2552000  3
   4252   4254   4258   4259     1  180.0000771  0.0000000  2
   4252   4254   4258   4290     1  180.0000771  0.0000000  2
   4252   4250   4251   4262     1  180.0000771  2.0083200  2
   4252   4250   4251   4262     1  0.0000000  1.2552000  3
   4254   4258   4290   4271     1  180.0000771  6.0668000  2
   4254   4258   4290   4271     1  180.0000771  1.4644000  4
   4258   4290   4271   4272     1  0.0000000  1.2552000  3
   4258   4290   4271   4270     1  0.0000000  1.2552000  3
   4259   4258   4290   4271     1  180.0000771  6.0668000  2
   4259   4258   4290   4271     1  180.0000771  1.4644000  4
   4262   4265   4314   4295     1  180.0000771  6.0668000  2
   4262   4265   4314   4295     1  180.0000771  1.4644000  4
   4265   4314   4295   4296     1  0.0000000  1.2552000  3
   4265   4314   4295   4294     1  0.0000000  1.2552000  3
   4266   4265   4314   4295     1  180.0000771  6.0668000  2
   4266   4265   4314   4295     1  180.0000771  1.4644000  4
   4267   4268   4270   4271     1  180.0000771  0.8368000  1
   4267   4268   4270   4271     1  180.0000771  1.0460000  2
   4267   4268   4270   4271     1  0.0000000  0.7531200  3
   4267   4268   4270   4277     1  0.0000000  0.6508444  3
   4267   4285   4272   4276     1  0.0000000  1.6038667  3
   4267   4285   4272   4271     1  180.0000771  0.4184000  2
   4267   4285   4272   4271     1  0.0000000  1.6024720  3
   4268   4270   4271   4272     1  180.0000771  0.8368000  1
   4268   4270   4271   4272     1  180.0000771  1.0460000  2
   4268   4270   4271   4272     1  0.0000000  0.7531200  3
   4268   4270   4271   4290     1  0.0000000  0.6508444  3
   4268   4267   4278   4283     1  0.0000000  0.6508444  3
   4268   4267   4285   4272     1  180.0000771  0.4184000  2
   4268   4267   4285   4272     1  0.0000000  1.6024720  3
   4270   4271   4272   4276     1  0.0000000  0.6508444  3
   4270   4271   4272   4285     1  0.0000000  0.6508444  3
   4270   4268   4267   4278     1  180.0000771  0.8368000  1
   4270   4268   4267   4278     1  180.0000771  1.0460000  2
   4270   4268   4267   4278     1  0.0000000  0.7531200  3
   4270   4268   4267   4285     1  0.0000000  0.6508444  3
   4271   4270   4268   4288     1  0.0000000  0.6508444  3
   4272   4285   4267   4278     1  180.0000771  0.4184000  2
   4272   4285   4267   4278     1  0.0000000  1.6024720  3
   4272   4271   4270   4277     1  0.0000000  0.6508444  3
   4276   4272   4271   4290     1  0.0000000  0.6508444  3
   4277   4270   4271   4290     1  0.0000000  0.6508444  3
   4277   4270   4268   4288     1  0.0000000  4.9162000  2
   4277   4270   4268   4288     1  0.0000000  0.6024960  3
   4278   4267   4268   4288     1  0.0000000  0.6508444  3
   4283   4278   4267   4285     1  0.0000000  4.9162000  2
   4283   4278   4267   4285     1  0.0000000  0.6024960  3
   4285   4272   4271   4290     1  0.0000000  0.6508444  3
   4285   4267   4268   4288     1  0.0000000  4.9162000  2
   4285   4267   4268   4288     1  0.0000000  0.6024960  3
   4291   4292   4294   4295     1  180.0000771  0.8368000  1
   4291   4292   4294   4295     1  180.0000771  1.0460000  2
   4291   4292   4294   4295     1  0.0000000  0.7531200  3
   4291   4292   4294   4301     1  0.0000000  0.6508444  3
   4291   4309   4296   4300     1  0.0000000  1.6038667  3
   4291   4309   4296   4295     1  180.0000771  0.4184000  2
   4291   4309   4296   4295     1  0.0000000  1.6024720  3
   4292   4294   4295   4296     1  180.0000771  0.8368000  1
   4292   4294   4295   4296     1  180.0000771  1.0460000  2
   4292   4294   4295   4296     1  0.0000000  0.7531200  3
   4292   4294   4295   4314     1  0.0000000  0.6508444  3
   4292   4291   4302   4307     1  0.0000000  0.6508444  3
   4292   4291   4309   4296     1  180.0000771  0.4184000  2
   4292   4291   4309   4296     1  0.0000000  1.6024720  3
   4294   4295   4296   4300     1  0.0000000  0.6508444  3
   4294   4295   4296   4309     1  0.0000000  0.6508444  3
   4294   4292   4291   4302     1  180.0000771  0.8368000  1
   4294   4292   4291   4302     1  180.0000771  1.0460000  2
   4294   4292   4291   4302     1  0.0000000  0.7531200  3
   4294   4292   4291   4309     1  0.0000000  0.6508444  3
   4295   4294   4292   4312     1  0.0000000  0.6508444  3
   4296   4309   4291   4302     1  180.0000771  0.4184000  2
   4296   4309   4291   4302     1  0.0000000  1.6024720  3
   4296   4295   4294   4301     1  0.0000000  0.6508444  3
   4300   4296   4295   4314     1  0.0000000  0.6508444  3
   4301   4294   4295   4314     1  0.0000000  0.6508444  3
   4301   4294   4292   4312     1  0.0000000  4.9162000  2
   4301   4294   4292   4312     1  0.0000000  0.6024960  3
   4302   4291   4292   4312     1  0.0000000  0.6508444  3
   4307   4302   4291   4309     1  0.0000000  4.9162000  2
   4307   4302   4291   4309     1  0.0000000  0.6024960  3
   4309   4296   4295   4314     1  0.0000000  0.6508444  3
   4309   4291   4292   4312     1  0.0000000  4.9162000  2
   4309   4291   4292   4312     1  0.0000000  0.6024960  3
   4315   4317   4319   4323     1  0.0000000  0.6508444  3
   4317   4319   4323   4324     1  180.0000771  2.0083200  2
   4317   4319   4323   4324     1  0.0000000  1.2552000  3
   4317   4319   4323   4325     1  180.0000771  2.0083200  2
   4317   4319   4323   4325     1  0.0000000  1.2552000  3
   4319   4323   4324   4335     1  180.0000771  2.0083200  2
   4319   4323   4324   4335     1  0.0000000  1.2552000  3
   4319   4323   4325   4327     1  180.0000771  2.0083200  2
   4319   4323   4325   4327     1  0.0000000  1.2552000  3
   4323   4324   4335   4338     1  0.0000000  0.6508444  3
   4323   4325   4327   4331     1  0.0000000  0.6508444  3
   4324   4323   4325   4327     1  180.0000771  2.0083200  2
   4324   4323   4325   4327     1  0.0000000  1.2552000  3
   4324   4335   4338   4339     1  180.0000771  0.0000000  2
   4324   4335   4338   4387     1  180.0000771  0.0000000  2
   4325   4323   4324   4335     1  180.0000771  2.0083200  2
   4325   4323   4324   4335     1  0.0000000  1.2552000  3
   4325   4327   4331   4332     1  180.0000771  0.0000000  2
   4325   4327   4331   4363     1  180.0000771  0.0000000  2
   4327   4331   4363   4344     1  180.0000771  6.0668000  2
   4327   4331   4363   4344     1  180.0000771  1.4644000  4
   4331   4363   4344   4343     1  0.0000000  1.2552000  3
   4331   4363   4344   4345     1  0.0000000  1.2552000  3
   4332   4331   4363   4344     1  180.0000771  6.0668000  2
   4332   4331   4363   4344     1  180.0000771  1.4644000  4
   4335   4338   4387   4368     1  180.0000771  6.0668000  2
   4335   4338   4387   4368     1  180.0000771  1.4644000  4
   4338   4387   4368   4367     1  0.0000000  1.2552000  3
   4338   4387   4368   4369     1  0.0000000  1.2552000  3
   4339   4338   4387   4368     1  180.0000771  6.0668000  2
   4339   4338   4387   4368     1  180.0000771  1.4644000  4
   4340   4341   4343   4344     1  180.0000771  0.8368000  1
   4340   4341   4343   4344     1  180.0000771  1.0460000  2
   4340   4341   4343   4344     1  0.0000000  0.7531200  3
   4340   4341   4343   4350     1  0.0000000  0.6508444  3
   4340   4358   4345   4344     1  180.0000771  0.4184000  2
   4340   4358   4345   4344     1  0.0000000  1.6024720  3
   4340   4358   4345   4349     1  0.0000000  1.6038667  3
   4341   4340   4351   4356     1  0.0000000  0.6508444  3
   4341   4340   4358   4345     1  180.0000771  0.4184000  2
   4341   4340   4358   4345     1  0.0000000  1.6024720  3
   4341   4343   4344   4345     1  180.0000771  0.8368000  1
   4341   4343   4344   4345     1  180.0000771  1.0460000  2
   4341   4343   4344   4345     1  0.0000000  0.7531200  3
   4341   4343   4344   4363     1  0.0000000  0.6508444  3
   4343   4341   4340   4351     1  180.0000771  0.8368000  1
   4343   4341   4340   4351     1  180.0000771  1.0460000  2
   4343   4341   4340   4351     1  0.0000000  0.7531200  3
   4343   4341   4340   4358     1  0.0000000  0.6508444  3
   4343   4344   4345   4349     1  0.0000000  0.6508444  3
   4343   4344   4345   4358     1  0.0000000  0.6508444  3
   4344   4343   4341   4361     1  0.0000000  0.6508444  3
   4345   4344   4343   4350     1  0.0000000  0.6508444  3
   4345   4358   4340   4351     1  180.0000771  0.4184000  2
   4345   4358   4340   4351     1  0.0000000  1.6024720  3
   4349   4345   4344   4363     1  0.0000000  0.6508444  3
   4350   4343   4341   4361     1  0.0000000  4.9162000  2
   4350   4343   4341   4361     1  0.0000000  0.6024960  3
   4350   4343   4344   4363     1  0.0000000  0.6508444  3
   4351   4340   4341   4361     1  0.0000000  0.6508444  3
   4356   4351   4340   4358     1  0.0000000  4.9162000  2
   4356   4351   4340   4358     1  0.0000000  0.6024960  3
   4358   4340   4341   4361     1  0.0000000  4.9162000  2
   4358   4340   4341   4361     1  0.0000000  0.6024960  3
   4358   4345   4344   4363     1  0.0000000  0.6508444  3
   4364   4365   4367   4368     1  180.0000771  0.8368000  1
   4364   4365   4367   4368     1  180.0000771  1.0460000  2
   4364   4365   4367   4368     1  0.0000000  0.7531200  3
   4364   4365   4367   4374     1  0.0000000  0.6508444  3
   4364   4382   4369   4368     1  180.0000771  0.4184000  2
   4364   4382   4369   4368     1  0.0000000  1.6024720  3
   4364   4382   4369   4373     1  0.0000000  1.6038667  3
   4365   4364   4375   4380     1  0.0000000  0.6508444  3
   4365   4364   4382   4369     1  180.0000771  0.4184000  2
   4365   4364   4382   4369     1  0.0000000  1.6024720  3
   4365   4367   4368   4369     1  180.0000771  0.8368000  1
   4365   4367   4368   4369     1  180.0000771  1.0460000  2
   4365   4367   4368   4369     1  0.0000000  0.7531200  3
   4365   4367   4368   4387     1  0.0000000  0.6508444  3
   4367   4365   4364   4375     1  180.0000771  0.8368000  1
   4367   4365   4364   4375     1  180.0000771  1.0460000  2
   4367   4365   4364   4375     1  0.0000000  0.7531200  3
   4367   4365   4364   4382     1  0.0000000  0.6508444  3
   4367   4368   4369   4373     1  0.0000000  0.6508444  3
   4367   4368   4369   4382     1  0.0000000  0.6508444  3
   4368   4367   4365   4385     1  0.0000000  0.6508444  3
   4369   4368   4367   4374     1  0.0000000  0.6508444  3
   4369   4382   4364   4375     1  180.0000771  0.4184000  2
   4369   4382   4364   4375     1  0.0000000  1.6024720  3
   4373   4369   4368   4387     1  0.0000000  0.6508444  3
   4374   4367   4365   4385     1  0.0000000  4.9162000  2
   4374   4367   4365   4385     1  0.0000000  0.6024960  3
   4374   4367   4368   4387     1  0.0000000  0.6508444  3
   4375   4364   4365   4385     1  0.0000000  0.6508444  3
   4380   4375   4364   4382     1  0.0000000  4.9162000  2
   4380   4375   4364   4382     1  0.0000000  0.6024960  3
   4382   4364   4365   4385     1  0.0000000  4.9162000  2
   4382   4364   4365   4385     1  0.0000000  0.6024960  3
   4382   4369   4368   4387     1  0.0000000  0.6508444  3
   4388   4390   4392   4396     1  0.0000000  0.6508444  3
   4390   4392   4396   4397     1  180.0000771  2.0083200  2
   4390   4392   4396   4397     1  0.0000000  1.2552000  3
   4390   4392   4396   4398     1  180.0000771  2.0083200  2
   4390   4392   4396   4398     1  0.0000000  1.2552000  3
   4392   4396   4397   4408     1  180.0000771  2.0083200  2
   4392   4396   4397   4408     1  0.0000000  1.2552000  3
   4392   4396   4398   4400     1  180.0000771  2.0083200  2
   4392   4396   4398   4400     1  0.0000000  1.2552000  3
   4396   4397   4408   4411     1  0.0000000  0.6508444  3
   4396   4398   4400   4404     1  0.0000000  0.6508444  3
   4397   4408   4411   4412     1  180.0000771  0.0000000  2
   4397   4408   4411   4460     1  180.0000771  0.0000000  2
   4397   4396   4398   4400     1  180.0000771  2.0083200  2
   4397   4396   4398   4400     1  0.0000000  1.2552000  3
   4398   4400   4404   4405     1  180.0000771  0.0000000  2
   4398   4400   4404   4436     1  180.0000771  0.0000000  2
   4398   4396   4397   4408     1  180.0000771  2.0083200  2
   4398   4396   4397   4408     1  0.0000000  1.2552000  3
   4400   4404   4436   4417     1  180.0000771  6.0668000  2
   4400   4404   4436   4417     1  180.0000771  1.4644000  4
   4404   4436   4417   4418     1  0.0000000  1.2552000  3
   4404   4436   4417   4416     1  0.0000000  1.2552000  3
   4405   4404   4436   4417     1  180.0000771  6.0668000  2
   4405   4404   4436   4417     1  180.0000771  1.4644000  4
   4408   4411   4460   4441     1  180.0000771  6.0668000  2
   4408   4411   4460   4441     1  180.0000771  1.4644000  4
   4411   4460   4441   4442     1  0.0000000  1.2552000  3
   4411   4460   4441   4440     1  0.0000000  1.2552000  3
   4412   4411   4460   4441     1  180.0000771  6.0668000  2
   4412   4411   4460   4441     1  180.0000771  1.4644000  4
   4413   4414   4416   4417     1  180.0000771  0.8368000  1
   4413   4414   4416   4417     1  180.0000771  1.0460000  2
   4413   4414   4416   4417     1  0.0000000  0.7531200  3
   4413   4414   4416   4423     1  0.0000000  0.6508444  3
   4413   4431   4418   4422     1  0.0000000  1.6038667  3
   4413   4431   4418   4417     1  180.0000771  0.4184000  2
   4413   4431   4418   4417     1  0.0000000  1.6024720  3
   4414   4416   4417   4418     1  180.0000771  0.8368000  1
   4414   4416   4417   4418     1  180.0000771  1.0460000  2
   4414   4416   4417   4418     1  0.0000000  0.7531200  3
   4414   4416   4417   4436     1  0.0000000  0.6508444  3
   4414   4413   4424   4429     1  0.0000000  0.6508444  3
   4414   4413   4431   4418     1  180.0000771  0.4184000  2
   4414   4413   4431   4418     1  0.0000000  1.6024720  3
   4416   4417   4418   4422     1  0.0000000  0.6508444  3
   4416   4417   4418   4431     1  0.0000000  0.6508444  3
   4416   4414   4413   4424     1  180.0000771  0.8368000  1
   4416   4414   4413   4424     1  180.0000771  1.0460000  2
   4416   4414   4413   4424     1  0.0000000  0.7531200  3
   4416   4414   4413   4431     1  0.0000000  0.6508444  3
   4417   4416   4414   4434     1  0.0000000  0.6508444  3
   4418   4431   4413   4424     1  180.0000771  0.4184000  2
   4418   4431   4413   4424     1  0.0000000  1.6024720  3
   4418   4417   4416   4423     1  0.0000000  0.6508444  3
   4422   4418   4417   4436     1  0.0000000  0.6508444  3
   4423   4416   4417   4436     1  0.0000000  0.6508444  3
   4423   4416   4414   4434     1  0.0000000  4.9162000  2
   4423   4416   4414   4434     1  0.0000000  0.6024960  3
   4424   4413   4414   4434     1  0.0000000  0.6508444  3
   4429   4424   4413   4431     1  0.0000000  4.9162000  2
   4429   4424   4413   4431     1  0.0000000  0.6024960  3
   4431   4418   4417   4436     1  0.0000000  0.6508444  3
   4431   4413   4414   4434     1  0.0000000  4.9162000  2
   4431   4413   4414   4434     1  0.0000000  0.6024960  3
   4437   4438   4440   4441     1  180.0000771  0.8368000  1
   4437   4438   4440   4441     1  180.0000771  1.0460000  2
   4437   4438   4440   4441     1  0.0000000  0.7531200  3
   4437   4438   4440   4447     1  0.0000000  0.6508444  3
   4437   4455   4442   4446     1  0.0000000  1.6038667  3
   4437   4455   4442   4441     1  180.0000771  0.4184000  2
   4437   4455   4442   4441     1  0.0000000  1.6024720  3
   4438   4440   4441   4442     1  180.0000771  0.8368000  1
   4438   4440   4441   4442     1  180.0000771  1.0460000  2
   4438   4440   4441   4442     1  0.0000000  0.7531200  3
   4438   4440   4441   4460     1  0.0000000  0.6508444  3
   4438   4437   4448   4453     1  0.0000000  0.6508444  3
   4438   4437   4455   4442     1  180.0000771  0.4184000  2
   4438   4437   4455   4442     1  0.0000000  1.6024720  3
   4440   4441   4442   4446     1  0.0000000  0.6508444  3
   4440   4441   4442   4455     1  0.0000000  0.6508444  3
   4440   4438   4437   4448     1  180.0000771  0.8368000  1
   4440   4438   4437   4448     1  180.0000771  1.0460000  2
   4440   4438   4437   4448     1  0.0000000  0.7531200  3
   4440   4438   4437   4455     1  0.0000000  0.6508444  3
   4441   4440   4438   4458     1  0.0000000  0.6508444  3
   4442   4455   4437   4448     1  180.0000771  0.4184000  2
   4442   4455   4437   4448     1  0.0000000  1.6024720  3
   4442   4441   4440   4447     1  0.0000000  0.6508444  3
   4446   4442   4441   4460     1  0.0000000  0.6508444  3
   4447   4440   4441   4460     1  0.0000000  0.6508444  3
   4447   4440   4438   4458     1  0.0000000  4.9162000  2
   4447   4440   4438   4458     1  0.0000000  0.6024960  3
   4448   4437   4438   4458     1  0.0000000  0.6508444  3
   4453   4448   4437   4455     1  0.0000000  4.9162000  2
   4453   4448   4437   4455     1  0.0000000  0.6024960  3
   4455   4442   4441   4460     1  0.0000000  0.6508444  3
   4455   4437   4438   4458     1  0.0000000  4.9162000  2
   4455   4437   4438   4458     1  0.0000000  0.6024960  3
   4461   4463   4465   4469     1  0.0000000  0.6508444  3
   4463   4465   4469   4470     1  180.0000771  2.0083200  2
   4463   4465   4469   4470     1  0.0000000  1.2552000  3
   4463   4465   4469   4471     1  180.0000771  2.0083200  2
   4463   4465   4469   4471     1  0.0000000  1.2552000  3
   4465   4469   4470   4481     1  180.0000771  2.0083200  2
   4465   4469   4470   4481     1  0.0000000  1.2552000  3
   4465   4469   4471   4473     1  180.0000771  2.0083200  2
   4465   4469   4471   4473     1  0.0000000  1.2552000  3
   4469   4470   4481   4484     1  0.0000000  0.6508444  3
   4469   4471   4473   4477     1  0.0000000  0.6508444  3
   4470   4469   4471   4473     1  180.0000771  2.0083200  2
   4470   4469   4471   4473     1  0.0000000  1.2552000  3
   4470   4481   4484   4485     1  180.0000771  0.0000000  2
   4470   4481   4484   4533     1  180.0000771  0.0000000  2
   4471   4469   4470   4481     1  180.0000771  2.0083200  2
   4471   4469   4470   4481     1  0.0000000  1.2552000  3
   4471   4473   4477   4478     1  180.0000771  0.0000000  2
   4471   4473   4477   4509     1  180.0000771  0.0000000  2
   4473   4477   4509   4490     1  180.0000771  6.0668000  2
   4473   4477   4509   4490     1  180.0000771  1.4644000  4
   4477   4509   4490   4489     1  0.0000000  1.2552000  3
   4477   4509   4490   4491     1  0.0000000  1.2552000  3
   4478   4477   4509   4490     1  180.0000771  6.0668000  2
   4478   4477   4509   4490     1  180.0000771  1.4644000  4
   4481   4484   4533   4514     1  180.0000771  6.0668000  2
   4481   4484   4533   4514     1  180.0000771  1.4644000  4
   4484   4533   4514   4513     1  0.0000000  1.2552000  3
   4484   4533   4514   4515     1  0.0000000  1.2552000  3
   4485   4484   4533   4514     1  180.0000771  6.0668000  2
   4485   4484   4533   4514     1  180.0000771  1.4644000  4
   4486   4487   4489   4490     1  180.0000771  0.8368000  1
   4486   4487   4489   4490     1  180.0000771  1.0460000  2
   4486   4487   4489   4490     1  0.0000000  0.7531200  3
   4486   4487   4489   4496     1  0.0000000  0.6508444  3
   4486   4504   4491   4490     1  180.0000771  0.4184000  2
   4486   4504   4491   4490     1  0.0000000  1.6024720  3
   4486   4504   4491   4495     1  0.0000000  1.6038667  3
   4487   4486   4497   4502     1  0.0000000  0.6508444  3
   4487   4486   4504   4491     1  180.0000771  0.4184000  2
   4487   4486   4504   4491     1  0.0000000  1.6024720  3
   4487   4489   4490   4491     1  180.0000771  0.8368000  1
   4487   4489   4490   4491     1  180.0000771  1.0460000  2
   4487   4489   4490   4491     1  0.0000000  0.7531200  3
   4487   4489   4490   4509     1  0.0000000  0.6508444  3
   4489   4487   4486   4497     1  180.0000771  0.8368000  1
   4489   4487   4486   4497     1  180.0000771  1.0460000  2
   4489   4487   4486   4497     1  0.0000000  0.7531200  3
   4489   4487   4486   4504     1  0.0000000  0.6508444  3
   4489   4490   4491   4495     1  0.0000000  0.6508444  3
   4489   4490   4491   4504     1  0.0000000  0.6508444  3
   4490   4489   4487   4507     1  0.0000000  0.6508444  3
   4491   4490   4489   4496     1  0.0000000  0.6508444  3
   4491   4504   4486   4497     1  180.0000771  0.4184000  2
   4491   4504   4486   4497     1  0.0000000  1.6024720  3
   4495   4491   4490   4509     1  0.0000000  0.6508444  3
   4496   4489   4487   4507     1  0.0000000  4.9162000  2
   4496   4489   4487   4507     1  0.0000000  0.6024960  3
   4496   4489   4490   4509     1  0.0000000  0.6508444  3
   4497   4486   4487   4507     1  0.0000000  0.6508444  3
   4502   4497   4486   4504     1  0.0000000  4.9162000  2
   4502   4497   4486   4504     1  0.0000000  0.6024960  3
   4504   4486   4487   4507     1  0.0000000  4.9162000  2
   4504   4486   4487   4507     1  0.0000000  0.6024960  3
   4504   4491   4490   4509     1  0.0000000  0.6508444  3
   4510   4511   4513   4514     1  180.0000771  0.8368000  1
   4510   4511   4513   4514     1  180.0000771  1.0460000  2
   4510   4511   4513   4514     1  0.0000000  0.7531200  3
   4510   4511   4513   4520     1  0.0000000  0.6508444  3
   4510   4528   4515   4514     1  180.0000771  0.4184000  2
   4510   4528   4515   4514     1  0.0000000  1.6024720  3
   4510   4528   4515   4519     1  0.0000000  1.6038667  3
   4511   4510   4521   4526     1  0.0000000  0.6508444  3
   4511   4510   4528   4515     1  180.0000771  0.4184000  2
   4511   4510   4528   4515     1  0.0000000  1.6024720  3
   4511   4513   4514   4515     1  180.0000771  0.8368000  1
   4511   4513   4514   4515     1  180.0000771  1.0460000  2
   4511   4513   4514   4515     1  0.0000000  0.7531200  3
   4511   4513   4514   4533     1  0.0000000  0.6508444  3
   4513   4511   4510   4521     1  180.0000771  0.8368000  1
   4513   4511   4510   4521     1  180.0000771  1.0460000  2
   4513   4511   4510   4521     1  0.0000000  0.7531200  3
   4513   4511   4510   4528     1  0.0000000  0.6508444  3
   4513   4514   4515   4519     1  0.0000000  0.6508444  3
   4513   4514   4515   4528     1  0.0000000  0.6508444  3
   4514   4513   4511   4531     1  0.0000000  0.6508444  3
   4515   4514   4513   4520     1  0.0000000  0.6508444  3
   4515   4528   4510   4521     1  180.0000771  0.4184000  2
   4515   4528   4510   4521     1  0.0000000  1.6024720  3
   4519   4515   4514   4533     1  0.0000000  0.6508444  3
   4520   4513   4511   4531     1  0.0000000  4.9162000  2
   4520   4513   4511   4531     1  0.0000000  0.6024960  3
   4520   4513   4514   4533     1  0.0000000  0.6508444  3
   4521   4510   4511   4531     1  0.0000000  0.6508444  3
   4526   4521   4510   4528     1  0.0000000  4.9162000  2
   4526   4521   4510   4528     1  0.0000000  0.6024960  3
   4528   4510   4511   4531     1  0.0000000  4.9162000  2
   4528   4510   4511   4531     1  0.0000000  0.6024960  3
   4528   4515   4514   4533     1  0.0000000  0.6508444  3
   4534   4536   4538   4542     1  0.0000000  0.6508444  3
   4536   4538   4542   4543     1  180.0000771  2.0083200  2
   4536   4538   4542   4543     1  0.0000000  1.2552000  3
   4536   4538   4542   4544     1  180.0000771  2.0083200  2
   4536   4538   4542   4544     1  0.0000000  1.2552000  3
   4538   4542   4543   4554     1  180.0000771  2.0083200  2
   4538   4542   4543   4554     1  0.0000000  1.2552000  3
   4538   4542   4544   4546     1  180.0000771  2.0083200  2
   4538   4542   4544   4546     1  0.0000000  1.2552000  3
   4542   4543   4554   4557     1  0.0000000  0.6508444  3
   4542   4544   4546   4550     1  0.0000000  0.6508444  3
   4543   4554   4557   4558     1  180.0000771  0.0000000  2
   4543   4554   4557   4606     1  180.0000771  0.0000000  2
   4543   4542   4544   4546     1  180.0000771  2.0083200  2
   4543   4542   4544   4546     1  0.0000000  1.2552000  3
   4544   4546   4550   4551     1  180.0000771  0.0000000  2
   4544   4546   4550   4582     1  180.0000771  0.0000000  2
   4544   4542   4543   4554     1  180.0000771  2.0083200  2
   4544   4542   4543   4554     1  0.0000000  1.2552000  3
   4546   4550   4582   4563     1  180.0000771  6.0668000  2
   4546   4550   4582   4563     1  180.0000771  1.4644000  4
   4550   4582   4563   4564     1  0.0000000  1.2552000  3
   4550   4582   4563   4562     1  0.0000000  1.2552000  3
   4551   4550   4582   4563     1  180.0000771  6.0668000  2
   4551   4550   4582   4563     1  180.0000771  1.4644000  4
   4554   4557   4606   4587     1  180.0000771  6.0668000  2
   4554   4557   4606   4587     1  180.0000771  1.4644000  4
   4557   4606   4587   4588     1  0.0000000  1.2552000  3
   4557   4606   4587   4586     1  0.0000000  1.2552000  3
   4558   4557   4606   4587     1  180.0000771  6.0668000  2
   4558   4557   4606   4587     1  180.0000771  1.4644000  4
   4559   4560   4562   4563     1  180.0000771  0.8368000  1
   4559   4560   4562   4563     1  180.0000771  1.0460000  2
   4559   4560   4562   4563     1  0.0000000  0.7531200  3
   4559   4560   4562   4569     1  0.0000000  0.6508444  3
   4559   4577   4564   4568     1  0.0000000  1.6038667  3
   4559   4577   4564   4563     1  180.0000771  0.4184000  2
   4559   4577   4564   4563     1  0.0000000  1.6024720  3
   4560   4562   4563   4564     1  180.0000771  0.8368000  1
   4560   4562   4563   4564     1  180.0000771  1.0460000  2
   4560   4562   4563   4564     1  0.0000000  0.7531200  3
   4560   4562   4563   4582     1  0.0000000  0.6508444  3
   4560   4559   4570   4575     1  0.0000000  0.6508444  3
   4560   4559   4577   4564     1  180.0000771  0.4184000  2
   4560   4559   4577   4564     1  0.0000000  1.6024720  3
   4562   4563   4564   4568     1  0.0000000  0.6508444  3
   4562   4563   4564   4577     1  0.0000000  0.6508444  3
   4562   4560   4559   4570     1  180.0000771  0.8368000  1
   4562   4560   4559   4570     1  180.0000771  1.0460000  2
   4562   4560   4559   4570     1  0.0000000  0.7531200  3
   4562   4560   4559   4577     1  0.0000000  0.6508444  3
   4563   4562   4560   4580     1  0.0000000  0.6508444  3
   4564   4577   4559   4570     1  180.0000771  0.4184000  2
   4564   4577   4559   4570     1  0.0000000  1.6024720  3
   4564   4563   4562   4569     1  0.0000000  0.6508444  3
   4568   4564   4563   4582     1  0.0000000  0.6508444  3
   4569   4562   4563   4582     1  0.0000000  0.6508444  3
   4569   4562   4560   4580     1  0.0000000  4.9162000  2
   4569   4562   4560   4580     1  0.0000000  0.6024960  3
   4570   4559   4560   4580     1  0.0000000  0.6508444  3
   4575   4570   4559   4577     1  0.0000000  4.9162000  2
   4575   4570   4559   4577     1  0.0000000  0.6024960  3
   4577   4564   4563   4582     1  0.0000000  0.6508444  3
   4577   4559   4560   4580     1  0.0000000  4.9162000  2
   4577   4559   4560   4580     1  0.0000000  0.6024960  3
   4583   4584   4586   4587     1  180.0000771  0.8368000  1
   4583   4584   4586   4587     1  180.0000771  1.0460000  2
   4583   4584   4586   4587     1  0.0000000  0.7531200  3
   4583   4584   4586   4593     1  0.0000000  0.6508444  3
   4583   4601   4588   4592     1  0.0000000  1.6038667  3
   4583   4601   4588   4587     1  180.0000771  0.4184000  2
   4583   4601   4588   4587     1  0.0000000  1.6024720  3
   4584   4586   4587   4588     1  180.0000771  0.8368000  1
   4584   4586   4587   4588     1  180.0000771  1.0460000  2
   4584   4586   4587   4588     1  0.0000000  0.7531200  3
   4584   4586   4587   4606     1  0.0000000  0.6508444  3
   4584   4583   4594   4599     1  0.0000000  0.6508444  3
   4584   4583   4601   4588     1  180.0000771  0.4184000  2
   4584   4583   4601   4588     1  0.0000000  1.6024720  3
   4586   4587   4588   4592     1  0.0000000  0.6508444  3
   4586   4587   4588   4601     1  0.0000000  0.6508444  3
   4586   4584   4583   4594     1  180.0000771  0.8368000  1
   4586   4584   4583   4594     1  180.0000771  1.0460000  2
   4586   4584   4583   4594     1  0.0000000  0.7531200  3
   4586   4584   4583   4601     1  0.0000000  0.6508444  3
   4587   4586   4584   4604     1  0.0000000  0.6508444  3
   4588   4601   4583   4594     1  180.0000771  0.4184000  2
   4588   4601   4583   4594     1  0.0000000  1.6024720  3
   4588   4587   4586   4593     1  0.0000000  0.6508444  3
   4592   4588   4587   4606     1  0.0000000  0.6508444  3
   4593   4586   4587   4606     1  0.0000000  0.6508444  3
   4593   4586   4584   4604     1  0.0000000  4.9162000  2
   4593   4586   4584   4604     1  0.0000000  0.6024960  3
   4594   4583   4584   4604     1  0.0000000  0.6508444  3
   4599   4594   4583   4601     1  0.0000000  4.9162000  2
   4599   4594   4583   4601     1  0.0000000  0.6024960  3
   4601   4588   4587   4606     1  0.0000000  0.6508444  3
   4601   4583   4584   4604     1  0.0000000  4.9162000  2
   4601   4583   4584   4604     1  0.0000000  0.6024960  3
   4607   4609   4611   4615     1  0.0000000  0.6508444  3
   4609   4611   4615   4616     1  180.0000771  2.0083200  2
   4609   4611   4615   4616     1  0.0000000  1.2552000  3
   4609   4611   4615   4617     1  180.0000771  2.0083200  2
   4609   4611   4615   4617     1  0.0000000  1.2552000  3
   4611   4615   4616   4627     1  180.0000771  2.0083200  2
   4611   4615   4616   4627     1  0.0000000  1.2552000  3
   4611   4615   4617   4619     1  180.0000771  2.0083200  2
   4611   4615   4617   4619     1  0.0000000  1.2552000  3
   4615   4616   4627   4630     1  0.0000000  0.6508444  3
   4615   4617   4619   4623     1  0.0000000  0.6508444  3
   4616   4615   4617   4619     1  180.0000771  2.0083200  2
   4616   4615   4617   4619     1  0.0000000  1.2552000  3
   4616   4627   4630   4631     1  180.0000771  0.0000000  2
   4616   4627   4630   4679     1  180.0000771  0.0000000  2
   4617   4615   4616   4627     1  180.0000771  2.0083200  2
   4617   4615   4616   4627     1  0.0000000  1.2552000  3
   4617   4619   4623   4624     1  180.0000771  0.0000000  2
   4617   4619   4623   4655     1  180.0000771  0.0000000  2
   4619   4623   4655   4636     1  180.0000771  6.0668000  2
   4619   4623   4655   4636     1  180.0000771  1.4644000  4
   4623   4655   4636   4635     1  0.0000000  1.2552000  3
   4623   4655   4636   4637     1  0.0000000  1.2552000  3
   4624   4623   4655   4636     1  180.0000771  6.0668000  2
   4624   4623   4655   4636     1  180.0000771  1.4644000  4
   4627   4630   4679   4660     1  180.0000771  6.0668000  2
   4627   4630   4679   4660     1  180.0000771  1.4644000  4
   4630   4679   4660   4659     1  0.0000000  1.2552000  3
   4630   4679   4660   4661     1  0.0000000  1.2552000  3
   4631   4630   4679   4660     1  180.0000771  6.0668000  2
   4631   4630   4679   4660     1  180.0000771  1.4644000  4
   4632   4633   4635   4636     1  180.0000771  0.8368000  1
   4632   4633   4635   4636     1  180.0000771  1.0460000  2
   4632   4633   4635   4636     1  0.0000000  0.7531200  3
   4632   4633   4635   4642     1  0.0000000  0.6508444  3
   4632   4650   4637   4636     1  180.0000771  0.4184000  2
   4632   4650   4637   4636     1  0.0000000  1.6024720  3
   4632   4650   4637   4641     1  0.0000000  1.6038667  3
   4633   4632   4643   4648     1  0.0000000  0.6508444  3
   4633   4632   4650   4637     1  180.0000771  0.4184000  2
   4633   4632   4650   4637     1  0.0000000  1.6024720  3
   4633   4635   4636   4637     1  180.0000771  0.8368000  1
   4633   4635   4636   4637     1  180.0000771  1.0460000  2
   4633   4635   4636   4637     1  0.0000000  0.7531200  3
   4633   4635   4636   4655     1  0.0000000  0.6508444  3
   4635   4633   4632   4643     1  180.0000771  0.8368000  1
   4635   4633   4632   4643     1  180.0000771  1.0460000  2
   4635   4633   4632   4643     1  0.0000000  0.7531200  3
   4635   4633   4632   4650     1  0.0000000  0.6508444  3
   4635   4636   4637   4641     1  0.0000000  0.6508444  3
   4635   4636   4637   4650     1  0.0000000  0.6508444  3
   4636   4635   4633   4653     1  0.0000000  0.6508444  3
   4637   4636   4635   4642     1  0.0000000  0.6508444  3
   4637   4650   4632   4643     1  180.0000771  0.4184000  2
   4637   4650   4632   4643     1  0.0000000  1.6024720  3
   4641   4637   4636   4655     1  0.0000000  0.6508444  3
   4642   4635   4633   4653     1  0.0000000  4.9162000  2
   4642   4635   4633   4653     1  0.0000000  0.6024960  3
   4642   4635   4636   4655     1  0.0000000  0.6508444  3
   4643   4632   4633   4653     1  0.0000000  0.6508444  3
   4648   4643   4632   4650     1  0.0000000  4.9162000  2
   4648   4643   4632   4650     1  0.0000000  0.6024960  3
   4650   4632   4633   4653     1  0.0000000  4.9162000  2
   4650   4632   4633   4653     1  0.0000000  0.6024960  3
   4650   4637   4636   4655     1  0.0000000  0.6508444  3
   4656   4657   4659   4660     1  180.0000771  0.8368000  1
   4656   4657   4659   4660     1  180.0000771  1.0460000  2
   4656   4657   4659   4660     1  0.0000000  0.7531200  3
   4656   4657   4659   4666     1  0.0000000  0.6508444  3
   4656   4674   4661   4660     1  180.0000771  0.4184000  2
   4656   4674   4661   4660     1  0.0000000  1.6024720  3
   4656   4674   4661   4665     1  0.0000000  1.6038667  3
   4657   4656   4667   4672     1  0.0000000  0.6508444  3
   4657   4656   4674   4661     1  180.0000771  0.4184000  2
   4657   4656   4674   4661     1  0.0000000  1.6024720  3
   4657   4659   4660   4661     1  180.0000771  0.8368000  1
   4657   4659   4660   4661     1  180.0000771  1.0460000  2
   4657   4659   4660   4661     1  0.0000000  0.7531200  3
   4657   4659   4660   4679     1  0.0000000  0.6508444  3
   4659   4657   4656   4667     1  180.0000771  0.8368000  1
   4659   4657   4656   4667     1  180.0000771  1.0460000  2
   4659   4657   4656   4667     1  0.0000000  0.7531200  3
   4659   4657   4656   4674     1  0.0000000  0.6508444  3
   4659   4660   4661   4665     1  0.0000000  0.6508444  3
   4659   4660   4661   4674     1  0.0000000  0.6508444  3
   4660   4659   4657   4677     1  0.0000000  0.6508444  3
   4661   4660   4659   4666     1  0.0000000  0.6508444  3
   4661   4674   4656   4667     1  180.0000771  0.4184000  2
   4661   4674   4656   4667     1  0.0000000  1.6024720  3
   4665   4661   4660   4679     1  0.0000000  0.6508444  3
   4666   4659   4657   4677     1  0.0000000  4.9162000  2
   4666   4659   4657   4677     1  0.0000000  0.6024960  3
   4666   4659   4660   4679     1  0.0000000  0.6508444  3
   4667   4656   4657   4677     1  0.0000000  0.6508444  3
   4672   4667   4656   4674     1  0.0000000  4.9162000  2
   4672   4667   4656   4674     1  0.0000000  0.6024960  3
   4674   4656   4657   4677     1  0.0000000  4.9162000  2
   4674   4656   4657   4677     1  0.0000000  0.6024960  3
   4674   4661   4660   4679     1  0.0000000  0.6508444  3
   4680   4682   4684   4688     1  0.0000000  0.6508444  3
   4682   4684   4688   4689     1  180.0000771  2.0083200  2
   4682   4684   4688   4689     1  0.0000000  1.2552000  3
   4682   4684   4688   4690     1  180.0000771  2.0083200  2
   4682   4684   4688   4690     1  0.0000000  1.2552000  3
   4684   4688   4689   4700     1  180.0000771  2.0083200  2
   4684   4688   4689   4700     1  0.0000000  1.2552000  3
   4684   4688   4690   4692     1  180.0000771  2.0083200  2
   4684   4688   4690   4692     1  0.0000000  1.2552000  3
   4688   4689   4700   4703     1  0.0000000  0.6508444  3
   4688   4690   4692   4696     1  0.0000000  0.6508444  3
   4689   4700   4703   4704     1  180.0000771  0.0000000  2
   4689   4700   4703   4752     1  180.0000771  0.0000000  2
   4689   4688   4690   4692     1  180.0000771  2.0083200  2
   4689   4688   4690   4692     1  0.0000000  1.2552000  3
   4690   4692   4696   4697     1  180.0000771  0.0000000  2
   4690   4692   4696   4728     1  180.0000771  0.0000000  2
   4690   4688   4689   4700     1  180.0000771  2.0083200  2
   4690   4688   4689   4700     1  0.0000000  1.2552000  3
   4692   4696   4728   4709     1  180.0000771  6.0668000  2
   4692   4696   4728   4709     1  180.0000771  1.4644000  4
   4696   4728   4709   4710     1  0.0000000  1.2552000  3
   4696   4728   4709   4708     1  0.0000000  1.2552000  3
   4697   4696   4728   4709     1  180.0000771  6.0668000  2
   4697   4696   4728   4709     1  180.0000771  1.4644000  4
   4700   4703   4752   4733     1  180.0000771  6.0668000  2
   4700   4703   4752   4733     1  180.0000771  1.4644000  4
   4703   4752   4733   4734     1  0.0000000  1.2552000  3
   4703   4752   4733   4732     1  0.0000000  1.2552000  3
   4704   4703   4752   4733     1  180.0000771  6.0668000  2
   4704   4703   4752   4733     1  180.0000771  1.4644000  4
   4705   4706   4708   4709     1  180.0000771  0.8368000  1
   4705   4706   4708   4709     1  180.0000771  1.0460000  2
   4705   4706   4708   4709     1  0.0000000  0.7531200  3
   4705   4706   4708   4715     1  0.0000000  0.6508444  3
   4705   4723   4710   4714     1  0.0000000  1.6038667  3
   4705   4723   4710   4709     1  180.0000771  0.4184000  2
   4705   4723   4710   4709     1  0.0000000  1.6024720  3
   4706   4708   4709   4710     1  180.0000771  0.8368000  1
   4706   4708   4709   4710     1  180.0000771  1.0460000  2
   4706   4708   4709   4710     1  0.0000000  0.7531200  3
   4706   4708   4709   4728     1  0.0000000  0.6508444  3
   4706   4705   4716   4721     1  0.0000000  0.6508444  3
   4706   4705   4723   4710     1  180.0000771  0.4184000  2
   4706   4705   4723   4710     1  0.0000000  1.6024720  3
   4708   4709   4710   4714     1  0.0000000  0.6508444  3
   4708   4709   4710   4723     1  0.0000000  0.6508444  3
   4708   4706   4705   4716     1  180.0000771  0.8368000  1
   4708   4706   4705   4716     1  180.0000771  1.0460000  2
   4708   4706   4705   4716     1  0.0000000  0.7531200  3
   4708   4706   4705   4723     1  0.0000000  0.6508444  3
   4709   4708   4706   4726     1  0.0000000  0.6508444  3
   4710   4723   4705   4716     1  180.0000771  0.4184000  2
   4710   4723   4705   4716     1  0.0000000  1.6024720  3
   4710   4709   4708   4715     1  0.0000000  0.6508444  3
   4714   4710   4709   4728     1  0.0000000  0.6508444  3
   4715   4708   4709   4728     1  0.0000000  0.6508444  3
   4715   4708   4706   4726     1  0.0000000  4.9162000  2
   4715   4708   4706   4726     1  0.0000000  0.6024960  3
   4716   4705   4706   4726     1  0.0000000  0.6508444  3
   4721   4716   4705   4723     1  0.0000000  4.9162000  2
   4721   4716   4705   4723     1  0.0000000  0.6024960  3
   4723   4710   4709   4728     1  0.0000000  0.6508444  3
   4723   4705   4706   4726     1  0.0000000  4.9162000  2
   4723   4705   4706   4726     1  0.0000000  0.6024960  3
   4729   4730   4732   4733     1  180.0000771  0.8368000  1
   4729   4730   4732   4733     1  180.0000771  1.0460000  2
   4729   4730   4732   4733     1  0.0000000  0.7531200  3
   4729   4730   4732   4739     1  0.0000000  0.6508444  3
   4729   4747   4734   4738     1  0.0000000  1.6038667  3
   4729   4747   4734   4733     1  180.0000771  0.4184000  2
   4729   4747   4734   4733     1  0.0000000  1.6024720  3
   4730   4732   4733   4734     1  180.0000771  0.8368000  1
   4730   4732   4733   4734     1  180.0000771  1.0460000  2
   4730   4732   4733   4734     1  0.0000000  0.7531200  3
   4730   4732   4733   4752     1  0.0000000  0.6508444  3
   4730   4729   4740   4745     1  0.0000000  0.6508444  3
   4730   4729   4747   4734     1  180.0000771  0.4184000  2
   4730   4729   4747   4734     1  0.0000000  1.6024720  3
   4732   4733   4734   4738     1  0.0000000  0.6508444  3
   4732   4733   4734   4747     1  0.0000000  0.6508444  3
   4732   4730   4729   4740     1  180.0000771  0.8368000  1
   4732   4730   4729   4740     1  180.0000771  1.0460000  2
   4732   4730   4729   4740     1  0.0000000  0.7531200  3
   4732   4730   4729   4747     1  0.0000000  0.6508444  3
   4733   4732   4730   4750     1  0.0000000  0.6508444  3
   4734   4747   4729   4740     1  180.0000771  0.4184000  2
   4734   4747   4729   4740     1  0.0000000  1.6024720  3
   4734   4733   4732   4739     1  0.0000000  0.6508444  3
   4738   4734   4733   4752     1  0.0000000  0.6508444  3
   4739   4732   4733   4752     1  0.0000000  0.6508444  3
   4739   4732   4730   4750     1  0.0000000  4.9162000  2
   4739   4732   4730   4750     1  0.0000000  0.6024960  3
   4740   4729   4730   4750     1  0.0000000  0.6508444  3
   4745   4740   4729   4747     1  0.0000000  4.9162000  2
   4745   4740   4729   4747     1  0.0000000  0.6024960  3
   4747   4734   4733   4752     1  0.0000000  0.6508444  3
   4747   4729   4730   4750     1  0.0000000  4.9162000  2
   4747   4729   4730   4750     1  0.0000000  0.6024960  3
   4753   4755   4757   4761     1  0.0000000  0.6508444  3
   4755   4757   4761   4762     1  180.0000771  2.0083200  2
   4755   4757   4761   4762     1  0.0000000  1.2552000  3
   4755   4757   4761   4763     1  180.0000771  2.0083200  2
   4755   4757   4761   4763     1  0.0000000  1.2552000  3
   4757   4761   4762   4773     1  180.0000771  2.0083200  2
   4757   4761   4762   4773     1  0.0000000  1.2552000  3
   4757   4761   4763   4765     1  180.0000771  2.0083200  2
   4757   4761   4763   4765     1  0.0000000  1.2552000  3
   4761   4762   4773   4776     1  0.0000000  0.6508444  3
   4761   4763   4765   4769     1  0.0000000  0.6508444  3
   4762   4761   4763   4765     1  180.0000771  2.0083200  2
   4762   4761   4763   4765     1  0.0000000  1.2552000  3
   4762   4773   4776   4777     1  180.0000771  0.0000000  2
   4762   4773   4776   4825     1  180.0000771  0.0000000  2
   4763   4761   4762   4773     1  180.0000771  2.0083200  2
   4763   4761   4762   4773     1  0.0000000  1.2552000  3
   4763   4765   4769   4770     1  180.0000771  0.0000000  2
   4763   4765   4769   4801     1  180.0000771  0.0000000  2
   4765   4769   4801   4782     1  180.0000771  6.0668000  2
   4765   4769   4801   4782     1  180.0000771  1.4644000  4
   4769   4801   4782   4781     1  0.0000000  1.2552000  3
   4769   4801   4782   4783     1  0.0000000  1.2552000  3
   4770   4769   4801   4782     1  180.0000771  6.0668000  2
   4770   4769   4801   4782     1  180.0000771  1.4644000  4
   4773   4776   4825   4806     1  180.0000771  6.0668000  2
   4773   4776   4825   4806     1  180.0000771  1.4644000  4
   4776   4825   4806   4805     1  0.0000000  1.2552000  3
   4776   4825   4806   4807     1  0.0000000  1.2552000  3
   4777   4776   4825   4806     1  180.0000771  6.0668000  2
   4777   4776   4825   4806     1  180.0000771  1.4644000  4
   4778   4779   4781   4782     1  180.0000771  0.8368000  1
   4778   4779   4781   4782     1  180.0000771  1.0460000  2
   4778   4779   4781   4782     1  0.0000000  0.7531200  3
   4778   4779   4781   4788     1  0.0000000  0.6508444  3
   4778   4796   4783   4782     1  180.0000771  0.4184000  2
   4778   4796   4783   4782     1  0.0000000  1.6024720  3
   4778   4796   4783   4787     1  0.0000000  1.6038667  3
   4779   4778   4789   4794     1  0.0000000  0.6508444  3
   4779   4778   4796   4783     1  180.0000771  0.4184000  2
   4779   4778   4796   4783     1  0.0000000  1.6024720  3
   4779   4781   4782   4783     1  180.0000771  0.8368000  1
   4779   4781   4782   4783     1  180.0000771  1.0460000  2
   4779   4781   4782   4783     1  0.0000000  0.7531200  3
   4779   4781   4782   4801     1  0.0000000  0.6508444  3
   4781   4779   4778   4789     1  180.0000771  0.8368000  1
   4781   4779   4778   4789     1  180.0000771  1.0460000  2
   4781   4779   4778   4789     1  0.0000000  0.7531200  3
   4781   4779   4778   4796     1  0.0000000  0.6508444  3
   4781   4782   4783   4787     1  0.0000000  0.6508444  3
   4781   4782   4783   4796     1  0.0000000  0.6508444  3
   4782   4781   4779   4799     1  0.0000000  0.6508444  3
   4783   4782   4781   4788     1  0.0000000  0.6508444  3
   4783   4796   4778   4789     1  180.0000771  0.4184000  2
   4783   4796   4778   4789     1  0.0000000  1.6024720  3
   4787   4783   4782   4801     1  0.0000000  0.6508444  3
   4788   4781   4779   4799     1  0.0000000  4.9162000  2
   4788   4781   4779   4799     1  0.0000000  0.6024960  3
   4788   4781   4782   4801     1  0.0000000  0.6508444  3
   4789   4778   4779   4799     1  0.0000000  0.6508444  3
   4794   4789   4778   4796     1  0.0000000  4.9162000  2
   4794   4789   4778   4796     1  0.0000000  0.6024960  3
   4796   4778   4779   4799     1  0.0000000  4.9162000  2
   4796   4778   4779   4799     1  0.0000000  0.6024960  3
   4796   4783   4782   4801     1  0.0000000  0.6508444  3
   4802   4803   4805   4806     1  180.0000771  0.8368000  1
   4802   4803   4805   4806     1  180.0000771  1.0460000  2
   4802   4803   4805   4806     1  0.0000000  0.7531200  3
   4802   4803   4805   4812     1  0.0000000  0.6508444  3
   4802   4820   4807   4806     1  180.0000771  0.4184000  2
   4802   4820   4807   4806     1  0.0000000  1.6024720  3
   4802   4820   4807   4811     1  0.0000000  1.6038667  3
   4803   4802   4813   4818     1  0.0000000  0.6508444  3
   4803   4802   4820   4807     1  180.0000771  0.4184000  2
   4803   4802   4820   4807     1  0.0000000  1.6024720  3
   4803   4805   4806   4807     1  180.0000771  0.8368000  1
   4803   4805   4806   4807     1  180.0000771  1.0460000  2
   4803   4805   4806   4807     1  0.0000000  0.7531200  3
   4803   4805   4806   4825     1  0.0000000  0.6508444  3
   4805   4803   4802   4813     1  180.0000771  0.8368000  1
   4805   4803   4802   4813     1  180.0000771  1.0460000  2
   4805   4803   4802   4813     1  0.0000000  0.7531200  3
   4805   4803   4802   4820     1  0.0000000  0.6508444  3
   4805   4806   4807   4811     1  0.0000000  0.6508444  3
   4805   4806   4807   4820     1  0.0000000  0.6508444  3
   4806   4805   4803   4823     1  0.0000000  0.6508444  3
   4807   4806   4805   4812     1  0.0000000  0.6508444  3
   4807   4820   4802   4813     1  180.0000771  0.4184000  2
   4807   4820   4802   4813     1  0.0000000  1.6024720  3
   4811   4807   4806   4825     1  0.0000000  0.6508444  3
   4812   4805   4803   4823     1  0.0000000  4.9162000  2
   4812   4805   4803   4823     1  0.0000000  0.6024960  3
   4812   4805   4806   4825     1  0.0000000  0.6508444  3
   4813   4802   4803   4823     1  0.0000000  0.6508444  3
   4818   4813   4802   4820     1  0.0000000  4.9162000  2
   4818   4813   4802   4820     1  0.0000000  0.6024960  3
   4820   4802   4803   4823     1  0.0000000  4.9162000  2
   4820   4802   4803   4823     1  0.0000000  0.6024960  3
   4820   4807   4806   4825     1  0.0000000  0.6508444  3
   4826   4828   4830   4834     1  0.0000000  0.6508444  3
   4828   4830   4834   4835     1  180.0000771  2.0083200  2
   4828   4830   4834   4835     1  0.0000000  1.2552000  3
   4828   4830   4834   4836     1  180.0000771  2.0083200  2
   4828   4830   4834   4836     1  0.0000000  1.2552000  3
   4830   4834   4835   4846     1  180.0000771  2.0083200  2
   4830   4834   4835   4846     1  0.0000000  1.2552000  3
   4830   4834   4836   4838     1  180.0000771  2.0083200  2
   4830   4834   4836   4838     1  0.0000000  1.2552000  3
   4834   4835   4846   4849     1  0.0000000  0.6508444  3
   4834   4836   4838   4842     1  0.0000000  0.6508444  3
   4835   4846   4849   4850     1  180.0000771  0.0000000  2
   4835   4846   4849   4898     1  180.0000771  0.0000000  2
   4835   4834   4836   4838     1  180.0000771  2.0083200  2
   4835   4834   4836   4838     1  0.0000000  1.2552000  3
   4836   4838   4842   4843     1  180.0000771  0.0000000  2
   4836   4838   4842   4874     1  180.0000771  0.0000000  2
   4836   4834   4835   4846     1  180.0000771  2.0083200  2
   4836   4834   4835   4846     1  0.0000000  1.2552000  3
   4838   4842   4874   4855     1  180.0000771  6.0668000  2
   4838   4842   4874   4855     1  180.0000771  1.4644000  4
   4842   4874   4855   4856     1  0.0000000  1.2552000  3
   4842   4874   4855   4854     1  0.0000000  1.2552000  3
   4843   4842   4874   4855     1  180.0000771  6.0668000  2
   4843   4842   4874   4855     1  180.0000771  1.4644000  4
   4846   4849   4898   4879     1  180.0000771  6.0668000  2
   4846   4849   4898   4879     1  180.0000771  1.4644000  4
   4849   4898   4879   4880     1  0.0000000  1.2552000  3
   4849   4898   4879   4878     1  0.0000000  1.2552000  3
   4850   4849   4898   4879     1  180.0000771  6.0668000  2
   4850   4849   4898   4879     1  180.0000771  1.4644000  4
   4851   4852   4854   4855     1  180.0000771  0.8368000  1
   4851   4852   4854   4855     1  180.0000771  1.0460000  2
   4851   4852   4854   4855     1  0.0000000  0.7531200  3
   4851   4852   4854   4861     1  0.0000000  0.6508444  3
   4851   4869   4856   4860     1  0.0000000  1.6038667  3
   4851   4869   4856   4855     1  180.0000771  0.4184000  2
   4851   4869   4856   4855     1  0.0000000  1.6024720  3
   4852   4854   4855   4856     1  180.0000771  0.8368000  1
   4852   4854   4855   4856     1  180.0000771  1.0460000  2
   4852   4854   4855   4856     1  0.0000000  0.7531200  3
   4852   4854   4855   4874     1  0.0000000  0.6508444  3
   4852   4851   4862   4867     1  0.0000000  0.6508444  3
   4852   4851   4869   4856     1  180.0000771  0.4184000  2
   4852   4851   4869   4856     1  0.0000000  1.6024720  3
   4854   4855   4856   4860     1  0.0000000  0.6508444  3
   4854   4855   4856   4869     1  0.0000000  0.6508444  3
   4854   4852   4851   4862     1  180.0000771  0.8368000  1
   4854   4852   4851   4862     1  180.0000771  1.0460000  2
   4854   4852   4851   4862     1  0.0000000  0.7531200  3
   4854   4852   4851   4869     1  0.0000000  0.6508444  3
   4855   4854   4852   4872     1  0.0000000  0.6508444  3
   4856   4869   4851   4862     1  180.0000771  0.4184000  2
   4856   4869   4851   4862     1  0.0000000  1.6024720  3
   4856   4855   4854   4861     1  0.0000000  0.6508444  3
   4860   4856   4855   4874     1  0.0000000  0.6508444  3
   4861   4854   4855   4874     1  0.0000000  0.6508444  3
   4861   4854   4852   4872     1  0.0000000  4.9162000  2
   4861   4854   4852   4872     1  0.0000000  0.6024960  3
   4862   4851   4852   4872     1  0.0000000  0.6508444  3
   4867   4862   4851   4869     1  0.0000000  4.9162000  2
   4867   4862   4851   4869     1  0.0000000  0.6024960  3
   4869   4856   4855   4874     1  0.0000000  0.6508444  3
   4869   4851   4852   4872     1  0.0000000  4.9162000  2
   4869   4851   4852   4872     1  0.0000000  0.6024960  3
   4875   4876   4878   4879     1  180.0000771  0.8368000  1
   4875   4876   4878   4879     1  180.0000771  1.0460000  2
   4875   4876   4878   4879     1  0.0000000  0.7531200  3
   4875   4876   4878   4885     1  0.0000000  0.6508444  3
   4875   4893   4880   4884     1  0.0000000  1.6038667  3
   4875   4893   4880   4879     1  180.0000771  0.4184000  2
   4875   4893   4880   4879     1  0.0000000  1.6024720  3
   4876   4878   4879   4880     1  180.0000771  0.8368000  1
   4876   4878   4879   4880     1  180.0000771  1.0460000  2
   4876   4878   4879   4880     1  0.0000000  0.7531200  3
   4876   4878   4879   4898     1  0.0000000  0.6508444  3
   4876   4875   4886   4891     1  0.0000000  0.6508444  3
   4876   4875   4893   4880     1  180.0000771  0.4184000  2
   4876   4875   4893   4880     1  0.0000000  1.6024720  3
   4878   4879   4880   4884     1  0.0000000  0.6508444  3
   4878   4879   4880   4893     1  0.0000000  0.6508444  3
   4878   4876   4875   4886     1  180.0000771  0.8368000  1
   4878   4876   4875   4886     1  180.0000771  1.0460000  2
   4878   4876   4875   4886     1  0.0000000  0.7531200  3
   4878   4876   4875   4893     1  0.0000000  0.6508444  3
   4879   4878   4876   4896     1  0.0000000  0.6508444  3
   4880   4893   4875   4886     1  180.0000771  0.4184000  2
   4880   4893   4875   4886     1  0.0000000  1.6024720  3
   4880   4879   4878   4885     1  0.0000000  0.6508444  3
   4884   4880   4879   4898     1  0.0000000  0.6508444  3
   4885   4878   4879   4898     1  0.0000000  0.6508444  3
   4885   4878   4876   4896     1  0.0000000  4.9162000  2
   4885   4878   4876   4896     1  0.0000000  0.6024960  3
   4886   4875   4876   4896     1  0.0000000  0.6508444  3
   4891   4886   4875   4893     1  0.0000000  4.9162000  2
   4891   4886   4875   4893     1  0.0000000  0.6024960  3
   4893   4880   4879   4898     1  0.0000000  0.6508444  3
   4893   4875   4876   4896     1  0.0000000  4.9162000  2
   4893   4875   4876   4896     1  0.0000000  0.6024960  3
   4899   4901   4903   4907     1  0.0000000  0.6508444  3
   4901   4903   4907   4908     1  180.0000771  2.0083200  2
   4901   4903   4907   4908     1  0.0000000  1.2552000  3
   4901   4903   4907   4909     1  180.0000771  2.0083200  2
   4901   4903   4907   4909     1  0.0000000  1.2552000  3
   4903   4907   4908   4919     1  180.0000771  2.0083200  2
   4903   4907   4908   4919     1  0.0000000  1.2552000  3
   4903   4907   4909   4911     1  180.0000771  2.0083200  2
   4903   4907   4909   4911     1  0.0000000  1.2552000  3
   4907   4908   4919   4922     1  0.0000000  0.6508444  3
   4907   4909   4911   4915     1  0.0000000  0.6508444  3
   4908   4907   4909   4911     1  180.0000771  2.0083200  2
   4908   4907   4909   4911     1  0.0000000  1.2552000  3
   4908   4919   4922   4923     1  180.0000771  0.0000000  2
   4908   4919   4922   4971     1  180.0000771  0.0000000  2
   4909   4907   4908   4919     1  180.0000771  2.0083200  2
   4909   4907   4908   4919     1  0.0000000  1.2552000  3
   4909   4911   4915   4916     1  180.0000771  0.0000000  2
   4909   4911   4915   4947     1  180.0000771  0.0000000  2
   4911   4915   4947   4928     1  180.0000771  6.0668000  2
   4911   4915   4947   4928     1  180.0000771  1.4644000  4
   4915   4947   4928   4927     1  0.0000000  1.2552000  3
   4915   4947   4928   4929     1  0.0000000  1.2552000  3
   4916   4915   4947   4928     1  180.0000771  6.0668000  2
   4916   4915   4947   4928     1  180.0000771  1.4644000  4
   4919   4922   4971   4952     1  180.0000771  6.0668000  2
   4919   4922   4971   4952     1  180.0000771  1.4644000  4
   4922   4971   4952   4951     1  0.0000000  1.2552000  3
   4922   4971   4952   4953     1  0.0000000  1.2552000  3
   4923   4922   4971   4952     1  180.0000771  6.0668000  2
   4923   4922   4971   4952     1  180.0000771  1.4644000  4
   4924   4925   4927   4928     1  180.0000771  0.8368000  1
   4924   4925   4927   4928     1  180.0000771  1.0460000  2
   4924   4925   4927   4928     1  0.0000000  0.7531200  3
   4924   4925   4927   4934     1  0.0000000  0.6508444  3
   4924   4942   4929   4928     1  180.0000771  0.4184000  2
   4924   4942   4929   4928     1  0.0000000  1.6024720  3
   4924   4942   4929   4933     1  0.0000000  1.6038667  3
   4925   4924   4935   4940     1  0.0000000  0.6508444  3
   4925   4924   4942   4929     1  180.0000771  0.4184000  2
   4925   4924   4942   4929     1  0.0000000  1.6024720  3
   4925   4927   4928   4929     1  180.0000771  0.8368000  1
   4925   4927   4928   4929     1  180.0000771  1.0460000  2
   4925   4927   4928   4929     1  0.0000000  0.7531200  3
   4925   4927   4928   4947     1  0.0000000  0.6508444  3
   4927   4925   4924   4935     1  180.0000771  0.8368000  1
   4927   4925   4924   4935     1  180.0000771  1.0460000  2
   4927   4925   4924   4935     1  0.0000000  0.7531200  3
   4927   4925   4924   4942     1  0.0000000  0.6508444  3
   4927   4928   4929   4933     1  0.0000000  0.6508444  3
   4927   4928   4929   4942     1  0.0000000  0.6508444  3
   4928   4927   4925   4945     1  0.0000000  0.6508444  3
   4929   4928   4927   4934     1  0.0000000  0.6508444  3
   4929   4942   4924   4935     1  180.0000771  0.4184000  2
   4929   4942   4924   4935     1  0.0000000  1.6024720  3
   4933   4929   4928   4947     1  0.0000000  0.6508444  3
   4934   4927   4925   4945     1  0.0000000  4.9162000  2
   4934   4927   4925   4945     1  0.0000000  0.6024960  3
   4934   4927   4928   4947     1  0.0000000  0.6508444  3
   4935   4924   4925   4945     1  0.0000000  0.6508444  3
   4940   4935   4924   4942     1  0.0000000  4.9162000  2
   4940   4935   4924   4942     1  0.0000000  0.6024960  3
   4942   4924   4925   4945     1  0.0000000  4.9162000  2
   4942   4924   4925   4945     1  0.0000000  0.6024960  3
   4942   4929   4928   4947     1  0.0000000  0.6508444  3
   4948   4949   4951   4952     1  180.0000771  0.8368000  1
   4948   4949   4951   4952     1  180.0000771  1.0460000  2
   4948   4949   4951   4952     1  0.0000000  0.7531200  3
   4948   4949   4951   4958     1  0.0000000  0.6508444  3
   4948   4966   4953   4952     1  180.0000771  0.4184000  2
   4948   4966   4953   4952     1  0.0000000  1.6024720  3
   4948   4966   4953   4957     1  0.0000000  1.6038667  3
   4949   4948   4959   4964     1  0.0000000  0.6508444  3
   4949   4948   4966   4953     1  180.0000771  0.4184000  2
   4949   4948   4966   4953     1  0.0000000  1.6024720  3
   4949   4951   4952   4953     1  180.0000771  0.8368000  1
   4949   4951   4952   4953     1  180.0000771  1.0460000  2
   4949   4951   4952   4953     1  0.0000000  0.7531200  3
   4949   4951   4952   4971     1  0.0000000  0.6508444  3
   4951   4949   4948   4959     1  180.0000771  0.8368000  1
   4951   4949   4948   4959     1  180.0000771  1.0460000  2
   4951   4949   4948   4959     1  0.0000000  0.7531200  3
   4951   4949   4948   4966     1  0.0000000  0.6508444  3
   4951   4952   4953   4957     1  0.0000000  0.6508444  3
   4951   4952   4953   4966     1  0.0000000  0.6508444  3
   4952   4951   4949   4969     1  0.0000000  0.6508444  3
   4953   4952   4951   4958     1  0.0000000  0.6508444  3
   4953   4966   4948   4959     1  180.0000771  0.4184000  2
   4953   4966   4948   4959     1  0.0000000  1.6024720  3
   4957   4953   4952   4971     1  0.0000000  0.6508444  3
   4958   4951   4949   4969     1  0.0000000  4.9162000  2
   4958   4951   4949   4969     1  0.0000000  0.6024960  3
   4958   4951   4952   4971     1  0.0000000  0.6508444  3
   4959   4948   4949   4969     1  0.0000000  0.6508444  3
   4964   4959   4948   4966     1  0.0000000  4.9162000  2
   4964   4959   4948   4966     1  0.0000000  0.6024960  3
   4966   4948   4949   4969     1  0.0000000  4.9162000  2
   4966   4948   4949   4969     1  0.0000000  0.6024960  3
   4966   4953   4952   4971     1  0.0000000  0.6508444  3
   4972   4974   4976   4980     1  0.0000000  0.6508444  3
   4974   4976   4980   4981     1  180.0000771  2.0083200  2
   4974   4976   4980   4981     1  0.0000000  1.2552000  3
   4974   4976   4980   4982     1  180.0000771  2.0083200  2
   4974   4976   4980   4982     1  0.0000000  1.2552000  3
   4976   4980   4981   4992     1  180.0000771  2.0083200  2
   4976   4980   4981   4992     1  0.0000000  1.2552000  3
   4976   4980   4982   4984     1  180.0000771  2.0083200  2
   4976   4980   4982   4984     1  0.0000000  1.2552000  3
   4980   4981   4992   4995     1  0.0000000  0.6508444  3
   4980   4982   4984   4988     1  0.0000000  0.6508444  3
   4981   4992   4995   4996     1  180.0000771  0.0000000  2
   4981   4992   4995   5044     1  180.0000771  0.0000000  2
   4981   4980   4982   4984     1  180.0000771  2.0083200  2
   4981   4980   4982   4984     1  0.0000000  1.2552000  3
   4982   4984   4988   4989     1  180.0000771  0.0000000  2
   4982   4984   4988   5020     1  180.0000771  0.0000000  2
   4982   4980   4981   4992     1  180.0000771  2.0083200  2
   4982   4980   4981   4992     1  0.0000000  1.2552000  3
   4984   4988   5020   5001     1  180.0000771  6.0668000  2
   4984   4988   5020   5001     1  180.0000771  1.4644000  4
   4988   5020   5001   5002     1  0.0000000  1.2552000  3
   4988   5020   5001   5000     1  0.0000000  1.2552000  3
   4989   4988   5020   5001     1  180.0000771  6.0668000  2
   4989   4988   5020   5001     1  180.0000771  1.4644000  4
   4992   4995   5044   5025     1  180.0000771  6.0668000  2
   4992   4995   5044   5025     1  180.0000771  1.4644000  4
   4995   5044   5025   5026     1  0.0000000  1.2552000  3
   4995   5044   5025   5024     1  0.0000000  1.2552000  3
   4996   4995   5044   5025     1  180.0000771  6.0668000  2
   4996   4995   5044   5025     1  180.0000771  1.4644000  4
   4997   4998   5000   5001     1  180.0000771  0.8368000  1
   4997   4998   5000   5001     1  180.0000771  1.0460000  2
   4997   4998   5000   5001     1  0.0000000  0.7531200  3
   4997   4998   5000   5007     1  0.0000000  0.6508444  3
   4997   5015   5002   5006     1  0.0000000  1.6038667  3
   4997   5015   5002   5001     1  180.0000771  0.4184000  2
   4997   5015   5002   5001     1  0.0000000  1.6024720  3
   4998   5000   5001   5002     1  180.0000771  0.8368000  1
   4998   5000   5001   5002     1  180.0000771  1.0460000  2
   4998   5000   5001   5002     1  0.0000000  0.7531200  3
   4998   5000   5001   5020     1  0.0000000  0.6508444  3
   4998   4997   5008   5013     1  0.0000000  0.6508444  3
   4998   4997   5015   5002     1  180.0000771  0.4184000  2
   4998   4997   5015   5002     1  0.0000000  1.6024720  3
   5000   5001   5002   5006     1  0.0000000  0.6508444  3
   5000   5001   5002   5015     1  0.0000000  0.6508444  3
   5000   4998   4997   5008     1  180.0000771  0.8368000  1
   5000   4998   4997   5008     1  180.0000771  1.0460000  2
   5000   4998   4997   5008     1  0.0000000  0.7531200  3
   5000   4998   4997   5015     1  0.0000000  0.6508444  3
   5001   5000   4998   5018     1  0.0000000  0.6508444  3
   5002   5015   4997   5008     1  180.0000771  0.4184000  2
   5002   5015   4997   5008     1  0.0000000  1.6024720  3
   5002   5001   5000   5007     1  0.0000000  0.6508444  3
   5006   5002   5001   5020     1  0.0000000  0.6508444  3
   5007   5000   5001   5020     1  0.0000000  0.6508444  3
   5007   5000   4998   5018     1  0.0000000  4.9162000  2
   5007   5000   4998   5018     1  0.0000000  0.6024960  3
   5008   4997   4998   5018     1  0.0000000  0.6508444  3
   5013   5008   4997   5015     1  0.0000000  4.9162000  2
   5013   5008   4997   5015     1  0.0000000  0.6024960  3
   5015   5002   5001   5020     1  0.0000000  0.6508444  3
   5015   4997   4998   5018     1  0.0000000  4.9162000  2
   5015   4997   4998   5018     1  0.0000000  0.6024960  3
   5021   5022   5024   5025     1  180.0000771  0.8368000  1
   5021   5022   5024   5025     1  180.0000771  1.0460000  2
   5021   5022   5024   5025     1  0.0000000  0.7531200  3
   5021   5022   5024   5031     1  0.0000000  0.6508444  3
   5021   5039   5026   5030     1  0.0000000  1.6038667  3
   5021   5039   5026   5025     1  180.0000771  0.4184000  2
   5021   5039   5026   5025     1  0.0000000  1.6024720  3
   5022   5024   5025   5026     1  180.0000771  0.8368000  1
   5022   5024   5025   5026     1  180.0000771  1.0460000  2
   5022   5024   5025   5026     1  0.0000000  0.7531200  3
   5022   5024   5025   5044     1  0.0000000  0.6508444  3
   5022   5021   5032   5037     1  0.0000000  0.6508444  3
   5022   5021   5039   5026     1  180.0000771  0.4184000  2
   5022   5021   5039   5026     1  0.0000000  1.6024720  3
   5024   5025   5026   5030     1  0.0000000  0.6508444  3
   5024   5025   5026   5039     1  0.0000000  0.6508444  3
   5024   5022   5021   5032     1  180.0000771  0.8368000  1
   5024   5022   5021   5032     1  180.0000771  1.0460000  2
   5024   5022   5021   5032     1  0.0000000  0.7531200  3
   5024   5022   5021   5039     1  0.0000000  0.6508444  3
   5025   5024   5022   5042     1  0.0000000  0.6508444  3
   5026   5039   5021   5032     1  180.0000771  0.4184000  2
   5026   5039   5021   5032     1  0.0000000  1.6024720  3
   5026   5025   5024   5031     1  0.0000000  0.6508444  3
   5030   5026   5025   5044     1  0.0000000  0.6508444  3
   5031   5024   5025   5044     1  0.0000000  0.6508444  3
   5031   5024   5022   5042     1  0.0000000  4.9162000  2
   5031   5024   5022   5042     1  0.0000000  0.6024960  3
   5032   5021   5022   5042     1  0.0000000  0.6508444  3
   5037   5032   5021   5039     1  0.0000000  4.9162000  2
   5037   5032   5021   5039     1  0.0000000  0.6024960  3
   5039   5026   5025   5044     1  0.0000000  0.6508444  3
   5039   5021   5022   5042     1  0.0000000  4.9162000  2
   5039   5021   5022   5042     1  0.0000000  0.6024960  3
   5045   5047   5049   5053     1  0.0000000  0.6508444  3
   5047   5049   5053   5054     1  180.0000771  2.0083200  2
   5047   5049   5053   5054     1  0.0000000  1.2552000  3
   5047   5049   5053   5055     1  180.0000771  2.0083200  2
   5047   5049   5053   5055     1  0.0000000  1.2552000  3
   5049   5053   5054   5065     1  180.0000771  2.0083200  2
   5049   5053   5054   5065     1  0.0000000  1.2552000  3
   5049   5053   5055   5057     1  180.0000771  2.0083200  2
   5049   5053   5055   5057     1  0.0000000  1.2552000  3
   5053   5054   5065   5068     1  0.0000000  0.6508444  3
   5053   5055   5057   5061     1  0.0000000  0.6508444  3
   5054   5053   5055   5057     1  180.0000771  2.0083200  2
   5054   5053   5055   5057     1  0.0000000  1.2552000  3
   5054   5065   5068   5069     1  180.0000771  0.0000000  2
   5054   5065   5068   5117     1  180.0000771  0.0000000  2
   5055   5053   5054   5065     1  180.0000771  2.0083200  2
   5055   5053   5054   5065     1  0.0000000  1.2552000  3
   5055   5057   5061   5062     1  180.0000771  0.0000000  2
   5055   5057   5061   5093     1  180.0000771  0.0000000  2
   5057   5061   5093   5074     1  180.0000771  6.0668000  2
   5057   5061   5093   5074     1  180.0000771  1.4644000  4
   5061   5093   5074   5073     1  0.0000000  1.2552000  3
   5061   5093   5074   5075     1  0.0000000  1.2552000  3
   5062   5061   5093   5074     1  180.0000771  6.0668000  2
   5062   5061   5093   5074     1  180.0000771  1.4644000  4
   5065   5068   5117   5098     1  180.0000771  6.0668000  2
   5065   5068   5117   5098     1  180.0000771  1.4644000  4
   5068   5117   5098   5097     1  0.0000000  1.2552000  3
   5068   5117   5098   5099     1  0.0000000  1.2552000  3
   5069   5068   5117   5098     1  180.0000771  6.0668000  2
   5069   5068   5117   5098     1  180.0000771  1.4644000  4
   5070   5071   5073   5074     1  180.0000771  0.8368000  1
   5070   5071   5073   5074     1  180.0000771  1.0460000  2
   5070   5071   5073   5074     1  0.0000000  0.7531200  3
   5070   5071   5073   5080     1  0.0000000  0.6508444  3
   5070   5088   5075   5074     1  180.0000771  0.4184000  2
   5070   5088   5075   5074     1  0.0000000  1.6024720  3
   5070   5088   5075   5079     1  0.0000000  1.6038667  3
   5071   5070   5081   5086     1  0.0000000  0.6508444  3
   5071   5070   5088   5075     1  180.0000771  0.4184000  2
   5071   5070   5088   5075     1  0.0000000  1.6024720  3
   5071   5073   5074   5075     1  180.0000771  0.8368000  1
   5071   5073   5074   5075     1  180.0000771  1.0460000  2
   5071   5073   5074   5075     1  0.0000000  0.7531200  3
   5071   5073   5074   5093     1  0.0000000  0.6508444  3
   5073   5071   5070   5081     1  180.0000771  0.8368000  1
   5073   5071   5070   5081     1  180.0000771  1.0460000  2
   5073   5071   5070   5081     1  0.0000000  0.7531200  3
   5073   5071   5070   5088     1  0.0000000  0.6508444  3
   5073   5074   5075   5079     1  0.0000000  0.6508444  3
   5073   5074   5075   5088     1  0.0000000  0.6508444  3
   5074   5073   5071   5091     1  0.0000000  0.6508444  3
   5075   5074   5073   5080     1  0.0000000  0.6508444  3
   5075   5088   5070   5081     1  180.0000771  0.4184000  2
   5075   5088   5070   5081     1  0.0000000  1.6024720  3
   5079   5075   5074   5093     1  0.0000000  0.6508444  3
   5080   5073   5071   5091     1  0.0000000  4.9162000  2
   5080   5073   5071   5091     1  0.0000000  0.6024960  3
   5080   5073   5074   5093     1  0.0000000  0.6508444  3
   5081   5070   5071   5091     1  0.0000000  0.6508444  3
   5086   5081   5070   5088     1  0.0000000  4.9162000  2
   5086   5081   5070   5088     1  0.0000000  0.6024960  3
   5088   5070   5071   5091     1  0.0000000  4.9162000  2
   5088   5070   5071   5091     1  0.0000000  0.6024960  3
   5088   5075   5074   5093     1  0.0000000  0.6508444  3
   5094   5095   5097   5098     1  180.0000771  0.8368000  1
   5094   5095   5097   5098     1  180.0000771  1.0460000  2
   5094   5095   5097   5098     1  0.0000000  0.7531200  3
   5094   5095   5097   5104     1  0.0000000  0.6508444  3
   5094   5112   5099   5098     1  180.0000771  0.4184000  2
   5094   5112   5099   5098     1  0.0000000  1.6024720  3
   5094   5112   5099   5103     1  0.0000000  1.6038667  3
   5095   5094   5105   5110     1  0.0000000  0.6508444  3
   5095   5094   5112   5099     1  180.0000771  0.4184000  2
   5095   5094   5112   5099     1  0.0000000  1.6024720  3
   5095   5097   5098   5099     1  180.0000771  0.8368000  1
   5095   5097   5098   5099     1  180.0000771  1.0460000  2
   5095   5097   5098   5099     1  0.0000000  0.7531200  3
   5095   5097   5098   5117     1  0.0000000  0.6508444  3
   5097   5095   5094   5105     1  180.0000771  0.8368000  1
   5097   5095   5094   5105     1  180.0000771  1.0460000  2
   5097   5095   5094   5105     1  0.0000000  0.7531200  3
   5097   5095   5094   5112     1  0.0000000  0.6508444  3
   5097   5098   5099   5103     1  0.0000000  0.6508444  3
   5097   5098   5099   5112     1  0.0000000  0.6508444  3
   5098   5097   5095   5115     1  0.0000000  0.6508444  3
   5099   5098   5097   5104     1  0.0000000  0.6508444  3
   5099   5112   5094   5105     1  180.0000771  0.4184000  2
   5099   5112   5094   5105     1  0.0000000  1.6024720  3
   5103   5099   5098   5117     1  0.0000000  0.6508444  3
   5104   5097   5095   5115     1  0.0000000  4.9162000  2
   5104   5097   5095   5115     1  0.0000000  0.6024960  3
   5104   5097   5098   5117     1  0.0000000  0.6508444  3
   5105   5094   5095   5115     1  0.0000000  0.6508444  3
   5110   5105   5094   5112     1  0.0000000  4.9162000  2
   5110   5105   5094   5112     1  0.0000000  0.6024960  3
   5112   5094   5095   5115     1  0.0000000  4.9162000  2
   5112   5094   5095   5115     1  0.0000000  0.6024960  3
   5112   5099   5098   5117     1  0.0000000  0.6508444  3
   5118   5120   5122   5126     1  0.0000000  0.6508444  3
   5120   5122   5126   5127     1  180.0000771  2.0083200  2
   5120   5122   5126   5127     1  0.0000000  1.2552000  3
   5120   5122   5126   5128     1  180.0000771  2.0083200  2
   5120   5122   5126   5128     1  0.0000000  1.2552000  3
   5122   5126   5127   5138     1  180.0000771  2.0083200  2
   5122   5126   5127   5138     1  0.0000000  1.2552000  3
   5122   5126   5128   5130     1  180.0000771  2.0083200  2
   5122   5126   5128   5130     1  0.0000000  1.2552000  3
   5126   5127   5138   5141     1  0.0000000  0.6508444  3
   5126   5128   5130   5134     1  0.0000000  0.6508444  3
   5127   5138   5141   5142     1  180.0000771  0.0000000  2
   5127   5138   5141   5190     1  180.0000771  0.0000000  2
   5127   5126   5128   5130     1  180.0000771  2.0083200  2
   5127   5126   5128   5130     1  0.0000000  1.2552000  3
   5128   5130   5134   5135     1  180.0000771  0.0000000  2
   5128   5130   5134   5166     1  180.0000771  0.0000000  2
   5128   5126   5127   5138     1  180.0000771  2.0083200  2
   5128   5126   5127   5138     1  0.0000000  1.2552000  3
   5130   5134   5166   5147     1  180.0000771  6.0668000  2
   5130   5134   5166   5147     1  180.0000771  1.4644000  4
   5134   5166   5147   5148     1  0.0000000  1.2552000  3
   5134   5166   5147   5146     1  0.0000000  1.2552000  3
   5135   5134   5166   5147     1  180.0000771  6.0668000  2
   5135   5134   5166   5147     1  180.0000771  1.4644000  4
   5138   5141   5190   5171     1  180.0000771  6.0668000  2
   5138   5141   5190   5171     1  180.0000771  1.4644000  4
   5141   5190   5171   5172     1  0.0000000  1.2552000  3
   5141   5190   5171   5170     1  0.0000000  1.2552000  3
   5142   5141   5190   5171     1  180.0000771  6.0668000  2
   5142   5141   5190   5171     1  180.0000771  1.4644000  4
   5143   5144   5146   5147     1  180.0000771  0.8368000  1
   5143   5144   5146   5147     1  180.0000771  1.0460000  2
   5143   5144   5146   5147     1  0.0000000  0.7531200  3
   5143   5144   5146   5153     1  0.0000000  0.6508444  3
   5143   5161   5148   5152     1  0.0000000  1.6038667  3
   5143   5161   5148   5147     1  180.0000771  0.4184000  2
   5143   5161   5148   5147     1  0.0000000  1.6024720  3
   5144   5146   5147   5148     1  180.0000771  0.8368000  1
   5144   5146   5147   5148     1  180.0000771  1.0460000  2
   5144   5146   5147   5148     1  0.0000000  0.7531200  3
   5144   5146   5147   5166     1  0.0000000  0.6508444  3
   5144   5143   5154   5159     1  0.0000000  0.6508444  3
   5144   5143   5161   5148     1  180.0000771  0.4184000  2
   5144   5143   5161   5148     1  0.0000000  1.6024720  3
   5146   5147   5148   5152     1  0.0000000  0.6508444  3
   5146   5147   5148   5161     1  0.0000000  0.6508444  3
   5146   5144   5143   5154     1  180.0000771  0.8368000  1
   5146   5144   5143   5154     1  180.0000771  1.0460000  2
   5146   5144   5143   5154     1  0.0000000  0.7531200  3
   5146   5144   5143   5161     1  0.0000000  0.6508444  3
   5147   5146   5144   5164     1  0.0000000  0.6508444  3
   5148   5161   5143   5154     1  180.0000771  0.4184000  2
   5148   5161   5143   5154     1  0.0000000  1.6024720  3
   5148   5147   5146   5153     1  0.0000000  0.6508444  3
   5152   5148   5147   5166     1  0.0000000  0.6508444  3
   5153   5146   5147   5166     1  0.0000000  0.6508444  3
   5153   5146   5144   5164     1  0.0000000  4.9162000  2
   5153   5146   5144   5164     1  0.0000000  0.6024960  3
   5154   5143   5144   5164     1  0.0000000  0.6508444  3
   5159   5154   5143   5161     1  0.0000000  4.9162000  2
   5159   5154   5143   5161     1  0.0000000  0.6024960  3
   5161   5148   5147   5166     1  0.0000000  0.6508444  3
   5161   5143   5144   5164     1  0.0000000  4.9162000  2
   5161   5143   5144   5164     1  0.0000000  0.6024960  3
   5167   5168   5170   5171     1  180.0000771  0.8368000  1
   5167   5168   5170   5171     1  180.0000771  1.0460000  2
   5167   5168   5170   5171     1  0.0000000  0.7531200  3
   5167   5168   5170   5177     1  0.0000000  0.6508444  3
   5167   5185   5172   5176     1  0.0000000  1.6038667  3
   5167   5185   5172   5171     1  180.0000771  0.4184000  2
   5167   5185   5172   5171     1  0.0000000  1.6024720  3
   5168   5170   5171   5172     1  180.0000771  0.8368000  1
   5168   5170   5171   5172     1  180.0000771  1.0460000  2
   5168   5170   5171   5172     1  0.0000000  0.7531200  3
   5168   5170   5171   5190     1  0.0000000  0.6508444  3
   5168   5167   5178   5183     1  0.0000000  0.6508444  3
   5168   5167   5185   5172     1  180.0000771  0.4184000  2
   5168   5167   5185   5172     1  0.0000000  1.6024720  3
   5170   5171   5172   5176     1  0.0000000  0.6508444  3
   5170   5171   5172   5185     1  0.0000000  0.6508444  3
   5170   5168   5167   5178     1  180.0000771  0.8368000  1
   5170   5168   5167   5178     1  180.0000771  1.0460000  2
   5170   5168   5167   5178     1  0.0000000  0.7531200  3
   5170   5168   5167   5185     1  0.0000000  0.6508444  3
   5171   5170   5168   5188     1  0.0000000  0.6508444  3
   5172   5185   5167   5178     1  180.0000771  0.4184000  2
   5172   5185   5167   5178     1  0.0000000  1.6024720  3
   5172   5171   5170   5177     1  0.0000000  0.6508444  3
   5176   5172   5171   5190     1  0.0000000  0.6508444  3
   5177   5170   5171   5190     1  0.0000000  0.6508444  3
   5177   5170   5168   5188     1  0.0000000  4.9162000  2
   5177   5170   5168   5188     1  0.0000000  0.6024960  3
   5178   5167   5168   5188     1  0.0000000  0.6508444  3
   5183   5178   5167   5185     1  0.0000000  4.9162000  2
   5183   5178   5167   5185     1  0.0000000  0.6024960  3
   5185   5172   5171   5190     1  0.0000000  0.6508444  3
   5185   5167   5168   5188     1  0.0000000  4.9162000  2
   5185   5167   5168   5188     1  0.0000000  0.6024960  3
   5191   5193   5195   5199     1  0.0000000  0.6508444  3
   5193   5195   5199   5200     1  180.0000771  2.0083200  2
   5193   5195   5199   5200     1  0.0000000  1.2552000  3
   5193   5195   5199   5201     1  180.0000771  2.0083200  2
   5193   5195   5199   5201     1  0.0000000  1.2552000  3
   5195   5199   5200   5211     1  180.0000771  2.0083200  2
   5195   5199   5200   5211     1  0.0000000  1.2552000  3
   5195   5199   5201   5203     1  180.0000771  2.0083200  2
   5195   5199   5201   5203     1  0.0000000  1.2552000  3
   5199   5200   5211   5214     1  0.0000000  0.6508444  3
   5199   5201   5203   5207     1  0.0000000  0.6508444  3
   5200   5199   5201   5203     1  180.0000771  2.0083200  2
   5200   5199   5201   5203     1  0.0000000  1.2552000  3
   5200   5211   5214   5215     1  180.0000771  0.0000000  2
   5200   5211   5214   5263     1  180.0000771  0.0000000  2
   5201   5199   5200   5211     1  180.0000771  2.0083200  2
   5201   5199   5200   5211     1  0.0000000  1.2552000  3
   5201   5203   5207   5208     1  180.0000771  0.0000000  2
   5201   5203   5207   5239     1  180.0000771  0.0000000  2
   5203   5207   5239   5220     1  180.0000771  6.0668000  2
   5203   5207   5239   5220     1  180.0000771  1.4644000  4
   5207   5239   5220   5219     1  0.0000000  1.2552000  3
   5207   5239   5220   5221     1  0.0000000  1.2552000  3
   5208   5207   5239   5220     1  180.0000771  6.0668000  2
   5208   5207   5239   5220     1  180.0000771  1.4644000  4
   5211   5214   5263   5244     1  180.0000771  6.0668000  2
   5211   5214   5263   5244     1  180.0000771  1.4644000  4
   5214   5263   5244   5243     1  0.0000000  1.2552000  3
   5214   5263   5244   5245     1  0.0000000  1.2552000  3
   5215   5214   5263   5244     1  180.0000771  6.0668000  2
   5215   5214   5263   5244     1  180.0000771  1.4644000  4
   5216   5217   5219   5220     1  180.0000771  0.8368000  1
   5216   5217   5219   5220     1  180.0000771  1.0460000  2
   5216   5217   5219   5220     1  0.0000000  0.7531200  3
   5216   5217   5219   5226     1  0.0000000  0.6508444  3
   5216   5234   5221   5220     1  180.0000771  0.4184000  2
   5216   5234   5221   5220     1  0.0000000  1.6024720  3
   5216   5234   5221   5225     1  0.0000000  1.6038667  3
   5217   5216   5227   5232     1  0.0000000  0.6508444  3
   5217   5216   5234   5221     1  180.0000771  0.4184000  2
   5217   5216   5234   5221     1  0.0000000  1.6024720  3
   5217   5219   5220   5221     1  180.0000771  0.8368000  1
   5217   5219   5220   5221     1  180.0000771  1.0460000  2
   5217   5219   5220   5221     1  0.0000000  0.7531200  3
   5217   5219   5220   5239     1  0.0000000  0.6508444  3
   5219   5217   5216   5227     1  180.0000771  0.8368000  1
   5219   5217   5216   5227     1  180.0000771  1.0460000  2
   5219   5217   5216   5227     1  0.0000000  0.7531200  3
   5219   5217   5216   5234     1  0.0000000  0.6508444  3
   5219   5220   5221   5225     1  0.0000000  0.6508444  3
   5219   5220   5221   5234     1  0.0000000  0.6508444  3
   5220   5219   5217   5237     1  0.0000000  0.6508444  3
   5221   5220   5219   5226     1  0.0000000  0.6508444  3
   5221   5234   5216   5227     1  180.0000771  0.4184000  2
   5221   5234   5216   5227     1  0.0000000  1.6024720  3
   5225   5221   5220   5239     1  0.0000000  0.6508444  3
   5226   5219   5217   5237     1  0.0000000  4.9162000  2
   5226   5219   5217   5237     1  0.0000000  0.6024960  3
   5226   5219   5220   5239     1  0.0000000  0.6508444  3
   5227   5216   5217   5237     1  0.0000000  0.6508444  3
   5232   5227   5216   5234     1  0.0000000  4.9162000  2
   5232   5227   5216   5234     1  0.0000000  0.6024960  3
   5234   5216   5217   5237     1  0.0000000  4.9162000  2
   5234   5216   5217   5237     1  0.0000000  0.6024960  3
   5234   5221   5220   5239     1  0.0000000  0.6508444  3
   5240   5241   5243   5244     1  180.0000771  0.8368000  1
   5240   5241   5243   5244     1  180.0000771  1.0460000  2
   5240   5241   5243   5244     1  0.0000000  0.7531200  3
   5240   5241   5243   5250     1  0.0000000  0.6508444  3
   5240   5258   5245   5244     1  180.0000771  0.4184000  2
   5240   5258   5245   5244     1  0.0000000  1.6024720  3
   5240   5258   5245   5249     1  0.0000000  1.6038667  3
   5241   5240   5251   5256     1  0.0000000  0.6508444  3
   5241   5240   5258   5245     1  180.0000771  0.4184000  2
   5241   5240   5258   5245     1  0.0000000  1.6024720  3
   5241   5243   5244   5245     1  180.0000771  0.8368000  1
   5241   5243   5244   5245     1  180.0000771  1.0460000  2
   5241   5243   5244   5245     1  0.0000000  0.7531200  3
   5241   5243   5244   5263     1  0.0000000  0.6508444  3
   5243   5241   5240   5251     1  180.0000771  0.8368000  1
   5243   5241   5240   5251     1  180.0000771  1.0460000  2
   5243   5241   5240   5251     1  0.0000000  0.7531200  3
   5243   5241   5240   5258     1  0.0000000  0.6508444  3
   5243   5244   5245   5249     1  0.0000000  0.6508444  3
   5243   5244   5245   5258     1  0.0000000  0.6508444  3
   5244   5243   5241   5261     1  0.0000000  0.6508444  3
   5245   5244   5243   5250     1  0.0000000  0.6508444  3
   5245   5258   5240   5251     1  180.0000771  0.4184000  2
   5245   5258   5240   5251     1  0.0000000  1.6024720  3
   5249   5245   5244   5263     1  0.0000000  0.6508444  3
   5250   5243   5241   5261     1  0.0000000  4.9162000  2
   5250   5243   5241   5261     1  0.0000000  0.6024960  3
   5250   5243   5244   5263     1  0.0000000  0.6508444  3
   5251   5240   5241   5261     1  0.0000000  0.6508444  3
   5256   5251   5240   5258     1  0.0000000  4.9162000  2
   5256   5251   5240   5258     1  0.0000000  0.6024960  3
   5258   5240   5241   5261     1  0.0000000  4.9162000  2
   5258   5240   5241   5261     1  0.0000000  0.6024960  3
   5258   5245   5244   5263     1  0.0000000  0.6508444  3
   5264   5266   5268   5272     1  0.0000000  0.6508444  3
   5266   5268   5272   5273     1  180.0000771  2.0083200  2
   5266   5268   5272   5273     1  0.0000000  1.2552000  3
   5266   5268   5272   5274     1  180.0000771  2.0083200  2
   5266   5268   5272   5274     1  0.0000000  1.2552000  3
   5268   5272   5273   5284     1  180.0000771  2.0083200  2
   5268   5272   5273   5284     1  0.0000000  1.2552000  3
   5268   5272   5274   5276     1  180.0000771  2.0083200  2
   5268   5272   5274   5276     1  0.0000000  1.2552000  3
   5272   5273   5284   5287     1  0.0000000  0.6508444  3
   5272   5274   5276   5280     1  0.0000000  0.6508444  3
   5273   5284   5287   5288     1  180.0000771  0.0000000  2
   5273   5284   5287   5336     1  180.0000771  0.0000000  2
   5273   5272   5274   5276     1  180.0000771  2.0083200  2
   5273   5272   5274   5276     1  0.0000000  1.2552000  3
   5274   5276   5280   5281     1  180.0000771  0.0000000  2
   5274   5276   5280   5312     1  180.0000771  0.0000000  2
   5274   5272   5273   5284     1  180.0000771  2.0083200  2
   5274   5272   5273   5284     1  0.0000000  1.2552000  3
   5276   5280   5312   5293     1  180.0000771  6.0668000  2
   5276   5280   5312   5293     1  180.0000771  1.4644000  4
   5280   5312   5293   5294     1  0.0000000  1.2552000  3
   5280   5312   5293   5292     1  0.0000000  1.2552000  3
   5281   5280   5312   5293     1  180.0000771  6.0668000  2
   5281   5280   5312   5293     1  180.0000771  1.4644000  4
   5284   5287   5336   5317     1  180.0000771  6.0668000  2
   5284   5287   5336   5317     1  180.0000771  1.4644000  4
   5287   5336   5317   5318     1  0.0000000  1.2552000  3
   5287   5336   5317   5316     1  0.0000000  1.2552000  3
   5288   5287   5336   5317     1  180.0000771  6.0668000  2
   5288   5287   5336   5317     1  180.0000771  1.4644000  4
   5289   5290   5292   5293     1  180.0000771  0.8368000  1
   5289   5290   5292   5293     1  180.0000771  1.0460000  2
   5289   5290   5292   5293     1  0.0000000  0.7531200  3
   5289   5290   5292   5299     1  0.0000000  0.6508444  3
   5289   5307   5294   5298     1  0.0000000  1.6038667  3
   5289   5307   5294   5293     1  180.0000771  0.4184000  2
   5289   5307   5294   5293     1  0.0000000  1.6024720  3
   5290   5292   5293   5294     1  180.0000771  0.8368000  1
   5290   5292   5293   5294     1  180.0000771  1.0460000  2
   5290   5292   5293   5294     1  0.0000000  0.7531200  3
   5290   5292   5293   5312     1  0.0000000  0.6508444  3
   5290   5289   5300   5305     1  0.0000000  0.6508444  3
   5290   5289   5307   5294     1  180.0000771  0.4184000  2
   5290   5289   5307   5294     1  0.0000000  1.6024720  3
   5292   5293   5294   5298     1  0.0000000  0.6508444  3
   5292   5293   5294   5307     1  0.0000000  0.6508444  3
   5292   5290   5289   5300     1  180.0000771  0.8368000  1
   5292   5290   5289   5300     1  180.0000771  1.0460000  2
   5292   5290   5289   5300     1  0.0000000  0.7531200  3
   5292   5290   5289   5307     1  0.0000000  0.6508444  3
   5293   5292   5290   5310     1  0.0000000  0.6508444  3
   5294   5307   5289   5300     1  180.0000771  0.4184000  2
   5294   5307   5289   5300     1  0.0000000  1.6024720  3
   5294   5293   5292   5299     1  0.0000000  0.6508444  3
   5298   5294   5293   5312     1  0.0000000  0.6508444  3
   5299   5292   5293   5312     1  0.0000000  0.6508444  3
   5299   5292   5290   5310     1  0.0000000  4.9162000  2
   5299   5292   5290   5310     1  0.0000000  0.6024960  3
   5300   5289   5290   5310     1  0.0000000  0.6508444  3
   5305   5300   5289   5307     1  0.0000000  4.9162000  2
   5305   5300   5289   5307     1  0.0000000  0.6024960  3
   5307   5294   5293   5312     1  0.0000000  0.6508444  3
   5307   5289   5290   5310     1  0.0000000  4.9162000  2
   5307   5289   5290   5310     1  0.0000000  0.6024960  3
   5313   5314   5316   5317     1  180.0000771  0.8368000  1
   5313   5314   5316   5317     1  180.0000771  1.0460000  2
   5313   5314   5316   5317     1  0.0000000  0.7531200  3
   5313   5314   5316   5323     1  0.0000000  0.6508444  3
   5313   5331   5318   5322     1  0.0000000  1.6038667  3
   5313   5331   5318   5317     1  180.0000771  0.4184000  2
   5313   5331   5318   5317     1  0.0000000  1.6024720  3
   5314   5316   5317   5318     1  180.0000771  0.8368000  1
   5314   5316   5317   5318     1  180.0000771  1.0460000  2
   5314   5316   5317   5318     1  0.0000000  0.7531200  3
   5314   5316   5317   5336     1  0.0000000  0.6508444  3
   5314   5313   5324   5329     1  0.0000000  0.6508444  3
   5314   5313   5331   5318     1  180.0000771  0.4184000  2
   5314   5313   5331   5318     1  0.0000000  1.6024720  3
   5316   5317   5318   5322     1  0.0000000  0.6508444  3
   5316   5317   5318   5331     1  0.0000000  0.6508444  3
   5316   5314   5313   5324     1  180.0000771  0.8368000  1
   5316   5314   5313   5324     1  180.0000771  1.0460000  2
   5316   5314   5313   5324     1  0.0000000  0.7531200  3
   5316   5314   5313   5331     1  0.0000000  0.6508444  3
   5317   5316   5314   5334     1  0.0000000  0.6508444  3
   5318   5331   5313   5324     1  180.0000771  0.4184000  2
   5318   5331   5313   5324     1  0.0000000  1.6024720  3
   5318   5317   5316   5323     1  0.0000000  0.6508444  3
   5322   5318   5317   5336     1  0.0000000  0.6508444  3
   5323   5316   5317   5336     1  0.0000000  0.6508444  3
   5323   5316   5314   5334     1  0.0000000  4.9162000  2
   5323   5316   5314   5334     1  0.0000000  0.6024960  3
   5324   5313   5314   5334     1  0.0000000  0.6508444  3
   5329   5324   5313   5331     1  0.0000000  4.9162000  2
   5329   5324   5313   5331     1  0.0000000  0.6024960  3
   5331   5318   5317   5336     1  0.0000000  0.6508444  3
   5331   5313   5314   5334     1  0.0000000  4.9162000  2
   5331   5313   5314   5334     1  0.0000000  0.6024960  3
   5337   5339   5341   5345     1  0.0000000  0.6508444  3
   5339   5341   5345   5346     1  180.0000771  2.0083200  2
   5339   5341   5345   5346     1  0.0000000  1.2552000  3
   5339   5341   5345   5347     1  180.0000771  2.0083200  2
   5339   5341   5345   5347     1  0.0000000  1.2552000  3
   5341   5345   5346   5357     1  180.0000771  2.0083200  2
   5341   5345   5346   5357     1  0.0000000  1.2552000  3
   5341   5345   5347   5349     1  180.0000771  2.0083200  2
   5341   5345   5347   5349     1  0.0000000  1.2552000  3
   5345   5346   5357   5360     1  0.0000000  0.6508444  3
   5345   5347   5349   5353     1  0.0000000  0.6508444  3
   5346   5345   5347   5349     1  180.0000771  2.0083200  2
   5346   5345   5347   5349     1  0.0000000  1.2552000  3
   5346   5357   5360   5361     1  180.0000771  0.0000000  2
   5346   5357   5360   5409     1  180.0000771  0.0000000  2
   5347   5345   5346   5357     1  180.0000771  2.0083200  2
   5347   5345   5346   5357     1  0.0000000  1.2552000  3
   5347   5349   5353   5354     1  180.0000771  0.0000000  2
   5347   5349   5353   5385     1  180.0000771  0.0000000  2
   5349   5353   5385   5366     1  180.0000771  6.0668000  2
   5349   5353   5385   5366     1  180.0000771  1.4644000  4
   5353   5385   5366   5365     1  0.0000000  1.2552000  3
   5353   5385   5366   5367     1  0.0000000  1.2552000  3
   5354   5353   5385   5366     1  180.0000771  6.0668000  2
   5354   5353   5385   5366     1  180.0000771  1.4644000  4
   5357   5360   5409   5390     1  180.0000771  6.0668000  2
   5357   5360   5409   5390     1  180.0000771  1.4644000  4
   5360   5409   5390   5389     1  0.0000000  1.2552000  3
   5360   5409   5390   5391     1  0.0000000  1.2552000  3
   5361   5360   5409   5390     1  180.0000771  6.0668000  2
   5361   5360   5409   5390     1  180.0000771  1.4644000  4
   5362   5363   5365   5366     1  180.0000771  0.8368000  1
   5362   5363   5365   5366     1  180.0000771  1.0460000  2
   5362   5363   5365   5366     1  0.0000000  0.7531200  3
   5362   5363   5365   5372     1  0.0000000  0.6508444  3
   5362   5380   5367   5366     1  180.0000771  0.4184000  2
   5362   5380   5367   5366     1  0.0000000  1.6024720  3
   5362   5380   5367   5371     1  0.0000000  1.6038667  3
   5363   5362   5373   5378     1  0.0000000  0.6508444  3
   5363   5362   5380   5367     1  180.0000771  0.4184000  2
   5363   5362   5380   5367     1  0.0000000  1.6024720  3
   5363   5365   5366   5367     1  180.0000771  0.8368000  1
   5363   5365   5366   5367     1  180.0000771  1.0460000  2
   5363   5365   5366   5367     1  0.0000000  0.7531200  3
   5363   5365   5366   5385     1  0.0000000  0.6508444  3
   5365   5363   5362   5373     1  180.0000771  0.8368000  1
   5365   5363   5362   5373     1  180.0000771  1.0460000  2
   5365   5363   5362   5373     1  0.0000000  0.7531200  3
   5365   5363   5362   5380     1  0.0000000  0.6508444  3
   5365   5366   5367   5371     1  0.0000000  0.6508444  3
   5365   5366   5367   5380     1  0.0000000  0.6508444  3
   5366   5365   5363   5383     1  0.0000000  0.6508444  3
   5367   5366   5365   5372     1  0.0000000  0.6508444  3
   5367   5380   5362   5373     1  180.0000771  0.4184000  2
   5367   5380   5362   5373     1  0.0000000  1.6024720  3
   5371   5367   5366   5385     1  0.0000000  0.6508444  3
   5372   5365   5363   5383     1  0.0000000  4.9162000  2
   5372   5365   5363   5383     1  0.0000000  0.6024960  3
   5372   5365   5366   5385     1  0.0000000  0.6508444  3
   5373   5362   5363   5383     1  0.0000000  0.6508444  3
   5378   5373   5362   5380     1  0.0000000  4.9162000  2
   5378   5373   5362   5380     1  0.0000000  0.6024960  3
   5380   5362   5363   5383     1  0.0000000  4.9162000  2
   5380   5362   5363   5383     1  0.0000000  0.6024960  3
   5380   5367   5366   5385     1  0.0000000  0.6508444  3
   5386   5387   5389   5390     1  180.0000771  0.8368000  1
   5386   5387   5389   5390     1  180.0000771  1.0460000  2
   5386   5387   5389   5390     1  0.0000000  0.7531200  3
   5386   5387   5389   5396     1  0.0000000  0.6508444  3
   5386   5404   5391   5390     1  180.0000771  0.4184000  2
   5386   5404   5391   5390     1  0.0000000  1.6024720  3
   5386   5404   5391   5395     1  0.0000000  1.6038667  3
   5387   5386   5397   5402     1  0.0000000  0.6508444  3
   5387   5386   5404   5391     1  180.0000771  0.4184000  2
   5387   5386   5404   5391     1  0.0000000  1.6024720  3
   5387   5389   5390   5391     1  180.0000771  0.8368000  1
   5387   5389   5390   5391     1  180.0000771  1.0460000  2
   5387   5389   5390   5391     1  0.0000000  0.7531200  3
   5387   5389   5390   5409     1  0.0000000  0.6508444  3
   5389   5387   5386   5397     1  180.0000771  0.8368000  1
   5389   5387   5386   5397     1  180.0000771  1.0460000  2
   5389   5387   5386   5397     1  0.0000000  0.7531200  3
   5389   5387   5386   5404     1  0.0000000  0.6508444  3
   5389   5390   5391   5395     1  0.0000000  0.6508444  3
   5389   5390   5391   5404     1  0.0000000  0.6508444  3
   5390   5389   5387   5407     1  0.0000000  0.6508444  3
   5391   5390   5389   5396     1  0.0000000  0.6508444  3
   5391   5404   5386   5397     1  180.0000771  0.4184000  2
   5391   5404   5386   5397     1  0.0000000  1.6024720  3
   5395   5391   5390   5409     1  0.0000000  0.6508444  3
   5396   5389   5387   5407     1  0.0000000  4.9162000  2
   5396   5389   5387   5407     1  0.0000000  0.6024960  3
   5396   5389   5390   5409     1  0.0000000  0.6508444  3
   5397   5386   5387   5407     1  0.0000000  0.6508444  3
   5402   5397   5386   5404     1  0.0000000  4.9162000  2
   5402   5397   5386   5404     1  0.0000000  0.6024960  3
   5404   5386   5387   5407     1  0.0000000  4.9162000  2
   5404   5386   5387   5407     1  0.0000000  0.6024960  3
   5404   5391   5390   5409     1  0.0000000  0.6508444  3
   5410   5412   5414   5418     1  0.0000000  0.6508444  3
   5412   5414   5418   5419     1  180.0000771  2.0083200  2
   5412   5414   5418   5419     1  0.0000000  1.2552000  3
   5412   5414   5418   5420     1  180.0000771  2.0083200  2
   5412   5414   5418   5420     1  0.0000000  1.2552000  3
   5414   5418   5419   5430     1  180.0000771  2.0083200  2
   5414   5418   5419   5430     1  0.0000000  1.2552000  3
   5414   5418   5420   5422     1  180.0000771  2.0083200  2
   5414   5418   5420   5422     1  0.0000000  1.2552000  3
   5418   5419   5430   5433     1  0.0000000  0.6508444  3
   5418   5420   5422   5426     1  0.0000000  0.6508444  3
   5419   5430   5433   5434     1  180.0000771  0.0000000  2
   5419   5430   5433   5482     1  180.0000771  0.0000000  2
   5419   5418   5420   5422     1  180.0000771  2.0083200  2
   5419   5418   5420   5422     1  0.0000000  1.2552000  3
   5420   5422   5426   5427     1  180.0000771  0.0000000  2
   5420   5422   5426   5458     1  180.0000771  0.0000000  2
   5420   5418   5419   5430     1  180.0000771  2.0083200  2
   5420   5418   5419   5430     1  0.0000000  1.2552000  3
   5422   5426   5458   5439     1  180.0000771  6.0668000  2
   5422   5426   5458   5439     1  180.0000771  1.4644000  4
   5426   5458   5439   5440     1  0.0000000  1.2552000  3
   5426   5458   5439   5438     1  0.0000000  1.2552000  3
   5427   5426   5458   5439     1  180.0000771  6.0668000  2
   5427   5426   5458   5439     1  180.0000771  1.4644000  4
   5430   5433   5482   5463     1  180.0000771  6.0668000  2
   5430   5433   5482   5463     1  180.0000771  1.4644000  4
   5433   5482   5463   5464     1  0.0000000  1.2552000  3
   5433   5482   5463   5462     1  0.0000000  1.2552000  3
   5434   5433   5482   5463     1  180.0000771  6.0668000  2
   5434   5433   5482   5463     1  180.0000771  1.4644000  4
   5435   5436   5438   5439     1  180.0000771  0.8368000  1
   5435   5436   5438   5439     1  180.0000771  1.0460000  2
   5435   5436   5438   5439     1  0.0000000  0.7531200  3
   5435   5436   5438   5445     1  0.0000000  0.6508444  3
   5435   5453   5440   5444     1  0.0000000  1.6038667  3
   5435   5453   5440   5439     1  180.0000771  0.4184000  2
   5435   5453   5440   5439     1  0.0000000  1.6024720  3
   5436   5438   5439   5440     1  180.0000771  0.8368000  1
   5436   5438   5439   5440     1  180.0000771  1.0460000  2
   5436   5438   5439   5440     1  0.0000000  0.7531200  3
   5436   5438   5439   5458     1  0.0000000  0.6508444  3
   5436   5435   5446   5451     1  0.0000000  0.6508444  3
   5436   5435   5453   5440     1  180.0000771  0.4184000  2
   5436   5435   5453   5440     1  0.0000000  1.6024720  3
   5438   5439   5440   5444     1  0.0000000  0.6508444  3
   5438   5439   5440   5453     1  0.0000000  0.6508444  3
   5438   5436   5435   5446     1  180.0000771  0.8368000  1
   5438   5436   5435   5446     1  180.0000771  1.0460000  2
   5438   5436   5435   5446     1  0.0000000  0.7531200  3
   5438   5436   5435   5453     1  0.0000000  0.6508444  3
   5439   5438   5436   5456     1  0.0000000  0.6508444  3
   5440   5453   5435   5446     1  180.0000771  0.4184000  2
   5440   5453   5435   5446     1  0.0000000  1.6024720  3
   5440   5439   5438   5445     1  0.0000000  0.6508444  3
   5444   5440   5439   5458     1  0.0000000  0.6508444  3
   5445   5438   5439   5458     1  0.0000000  0.6508444  3
   5445   5438   5436   5456     1  0.0000000  4.9162000  2
   5445   5438   5436   5456     1  0.0000000  0.6024960  3
   5446   5435   5436   5456     1  0.0000000  0.6508444  3
   5451   5446   5435   5453     1  0.0000000  4.9162000  2
   5451   5446   5435   5453     1  0.0000000  0.6024960  3
   5453   5440   5439   5458     1  0.0000000  0.6508444  3
   5453   5435   5436   5456     1  0.0000000  4.9162000  2
   5453   5435   5436   5456     1  0.0000000  0.6024960  3
   5459   5460   5462   5463     1  180.0000771  0.8368000  1
   5459   5460   5462   5463     1  180.0000771  1.0460000  2
   5459   5460   5462   5463     1  0.0000000  0.7531200  3
   5459   5460   5462   5469     1  0.0000000  0.6508444  3
   5459   5477   5464   5468     1  0.0000000  1.6038667  3
   5459   5477   5464   5463     1  180.0000771  0.4184000  2
   5459   5477   5464   5463     1  0.0000000  1.6024720  3
   5460   5462   5463   5464     1  180.0000771  0.8368000  1
   5460   5462   5463   5464     1  180.0000771  1.0460000  2
   5460   5462   5463   5464     1  0.0000000  0.7531200  3
   5460   5462   5463   5482     1  0.0000000  0.6508444  3
   5460   5459   5470   5475     1  0.0000000  0.6508444  3
   5460   5459   5477   5464     1  180.0000771  0.4184000  2
   5460   5459   5477   5464     1  0.0000000  1.6024720  3
   5462   5463   5464   5468     1  0.0000000  0.6508444  3
   5462   5463   5464   5477     1  0.0000000  0.6508444  3
   5462   5460   5459   5470     1  180.0000771  0.8368000  1
   5462   5460   5459   5470     1  180.0000771  1.0460000  2
   5462   5460   5459   5470     1  0.0000000  0.7531200  3
   5462   5460   5459   5477     1  0.0000000  0.6508444  3
   5463   5462   5460   5480     1  0.0000000  0.6508444  3
   5464   5477   5459   5470     1  180.0000771  0.4184000  2
   5464   5477   5459   5470     1  0.0000000  1.6024720  3
   5464   5463   5462   5469     1  0.0000000  0.6508444  3
   5468   5464   5463   5482     1  0.0000000  0.6508444  3
   5469   5462   5463   5482     1  0.0000000  0.6508444  3
   5469   5462   5460   5480     1  0.0000000  4.9162000  2
   5469   5462   5460   5480     1  0.0000000  0.6024960  3
   5470   5459   5460   5480     1  0.0000000  0.6508444  3
   5475   5470   5459   5477     1  0.0000000  4.9162000  2
   5475   5470   5459   5477     1  0.0000000  0.6024960  3
   5477   5464   5463   5482     1  0.0000000  0.6508444  3
   5477   5459   5460   5480     1  0.0000000  4.9162000  2
   5477   5459   5460   5480     1  0.0000000  0.6024960  3
   5483   5485   5487   5491     1  0.0000000  0.6508444  3
   5485   5487   5491   5492     1  180.0000771  2.0083200  2
   5485   5487   5491   5492     1  0.0000000  1.2552000  3
   5485   5487   5491   5493     1  180.0000771  2.0083200  2
   5485   5487   5491   5493     1  0.0000000  1.2552000  3
   5487   5491   5492   5503     1  180.0000771  2.0083200  2
   5487   5491   5492   5503     1  0.0000000  1.2552000  3
   5487   5491   5493   5495     1  180.0000771  2.0083200  2
   5487   5491   5493   5495     1  0.0000000  1.2552000  3
   5491   5492   5503   5506     1  0.0000000  0.6508444  3
   5491   5493   5495   5499     1  0.0000000  0.6508444  3
   5492   5491   5493   5495     1  180.0000771  2.0083200  2
   5492   5491   5493   5495     1  0.0000000  1.2552000  3
   5492   5503   5506   5507     1  180.0000771  0.0000000  2
   5492   5503   5506   5555     1  180.0000771  0.0000000  2
   5493   5491   5492   5503     1  180.0000771  2.0083200  2
   5493   5491   5492   5503     1  0.0000000  1.2552000  3
   5493   5495   5499   5500     1  180.0000771  0.0000000  2
   5493   5495   5499   5531     1  180.0000771  0.0000000  2
   5495   5499   5531   5512     1  180.0000771  6.0668000  2
   5495   5499   5531   5512     1  180.0000771  1.4644000  4
   5499   5531   5512   5511     1  0.0000000  1.2552000  3
   5499   5531   5512   5513     1  0.0000000  1.2552000  3
   5500   5499   5531   5512     1  180.0000771  6.0668000  2
   5500   5499   5531   5512     1  180.0000771  1.4644000  4
   5503   5506   5555   5536     1  180.0000771  6.0668000  2
   5503   5506   5555   5536     1  180.0000771  1.4644000  4
   5506   5555   5536   5535     1  0.0000000  1.2552000  3
   5506   5555   5536   5537     1  0.0000000  1.2552000  3
   5507   5506   5555   5536     1  180.0000771  6.0668000  2
   5507   5506   5555   5536     1  180.0000771  1.4644000  4
   5508   5509   5511   5512     1  180.0000771  0.8368000  1
   5508   5509   5511   5512     1  180.0000771  1.0460000  2
   5508   5509   5511   5512     1  0.0000000  0.7531200  3
   5508   5509   5511   5518     1  0.0000000  0.6508444  3
   5508   5526   5513   5512     1  180.0000771  0.4184000  2
   5508   5526   5513   5512     1  0.0000000  1.6024720  3
   5508   5526   5513   5517     1  0.0000000  1.6038667  3
   5509   5508   5519   5524     1  0.0000000  0.6508444  3
   5509   5508   5526   5513     1  180.0000771  0.4184000  2
   5509   5508   5526   5513     1  0.0000000  1.6024720  3
   5509   5511   5512   5513     1  180.0000771  0.8368000  1
   5509   5511   5512   5513     1  180.0000771  1.0460000  2
   5509   5511   5512   5513     1  0.0000000  0.7531200  3
   5509   5511   5512   5531     1  0.0000000  0.6508444  3
   5511   5509   5508   5519     1  180.0000771  0.8368000  1
   5511   5509   5508   5519     1  180.0000771  1.0460000  2
   5511   5509   5508   5519     1  0.0000000  0.7531200  3
   5511   5509   5508   5526     1  0.0000000  0.6508444  3
   5511   5512   5513   5517     1  0.0000000  0.6508444  3
   5511   5512   5513   5526     1  0.0000000  0.6508444  3
   5512   5511   5509   5529     1  0.0000000  0.6508444  3
   5513   5512   5511   5518     1  0.0000000  0.6508444  3
   5513   5526   5508   5519     1  180.0000771  0.4184000  2
   5513   5526   5508   5519     1  0.0000000  1.6024720  3
   5517   5513   5512   5531     1  0.0000000  0.6508444  3
   5518   5511   5509   5529     1  0.0000000  4.9162000  2
   5518   5511   5509   5529     1  0.0000000  0.6024960  3
   5518   5511   5512   5531     1  0.0000000  0.6508444  3
   5519   5508   5509   5529     1  0.0000000  0.6508444  3
   5524   5519   5508   5526     1  0.0000000  4.9162000  2
   5524   5519   5508   5526     1  0.0000000  0.6024960  3
   5526   5508   5509   5529     1  0.0000000  4.9162000  2
   5526   5508   5509   5529     1  0.0000000  0.6024960  3
   5526   5513   5512   5531     1  0.0000000  0.6508444  3
   5532   5533   5535   5536     1  180.0000771  0.8368000  1
   5532   5533   5535   5536     1  180.0000771  1.0460000  2
   5532   5533   5535   5536     1  0.0000000  0.7531200  3
   5532   5533   5535   5542     1  0.0000000  0.6508444  3
   5532   5550   5537   5536     1  180.0000771  0.4184000  2
   5532   5550   5537   5536     1  0.0000000  1.6024720  3
   5532   5550   5537   5541     1  0.0000000  1.6038667  3
   5533   5532   5543   5548     1  0.0000000  0.6508444  3
   5533   5532   5550   5537     1  180.0000771  0.4184000  2
   5533   5532   5550   5537     1  0.0000000  1.6024720  3
   5533   5535   5536   5537     1  180.0000771  0.8368000  1
   5533   5535   5536   5537     1  180.0000771  1.0460000  2
   5533   5535   5536   5537     1  0.0000000  0.7531200  3
   5533   5535   5536   5555     1  0.0000000  0.6508444  3
   5535   5533   5532   5543     1  180.0000771  0.8368000  1
   5535   5533   5532   5543     1  180.0000771  1.0460000  2
   5535   5533   5532   5543     1  0.0000000  0.7531200  3
   5535   5533   5532   5550     1  0.0000000  0.6508444  3
   5535   5536   5537   5541     1  0.0000000  0.6508444  3
   5535   5536   5537   5550     1  0.0000000  0.6508444  3
   5536   5535   5533   5553     1  0.0000000  0.6508444  3
   5537   5536   5535   5542     1  0.0000000  0.6508444  3
   5537   5550   5532   5543     1  180.0000771  0.4184000  2
   5537   5550   5532   5543     1  0.0000000  1.6024720  3
   5541   5537   5536   5555     1  0.0000000  0.6508444  3
   5542   5535   5533   5553     1  0.0000000  4.9162000  2
   5542   5535   5533   5553     1  0.0000000  0.6024960  3
   5542   5535   5536   5555     1  0.0000000  0.6508444  3
   5543   5532   5533   5553     1  0.0000000  0.6508444  3
   5548   5543   5532   5550     1  0.0000000  4.9162000  2
   5548   5543   5532   5550     1  0.0000000  0.6024960  3
   5550   5532   5533   5553     1  0.0000000  4.9162000  2
   5550   5532   5533   5553     1  0.0000000  0.6024960  3
   5550   5537   5536   5555     1  0.0000000  0.6508444  3
   5556   5558   5560   5564     1  0.0000000  0.6508444  3
   5558   5560   5564   5565     1  180.0000771  2.0083200  2
   5558   5560   5564   5565     1  0.0000000  1.2552000  3
   5558   5560   5564   5566     1  180.0000771  2.0083200  2
   5558   5560   5564   5566     1  0.0000000  1.2552000  3
   5560   5564   5565   5576     1  180.0000771  2.0083200  2
   5560   5564   5565   5576     1  0.0000000  1.2552000  3
   5560   5564   5566   5568     1  180.0000771  2.0083200  2
   5560   5564   5566   5568     1  0.0000000  1.2552000  3
   5564   5565   5576   5579     1  0.0000000  0.6508444  3
   5564   5566   5568   5572     1  0.0000000  0.6508444  3
   5565   5576   5579   5580     1  180.0000771  0.0000000  2
   5565   5576   5579   5628     1  180.0000771  0.0000000  2
   5565   5564   5566   5568     1  180.0000771  2.0083200  2
   5565   5564   5566   5568     1  0.0000000  1.2552000  3
   5566   5568   5572   5573     1  180.0000771  0.0000000  2
   5566   5568   5572   5604     1  180.0000771  0.0000000  2
   5566   5564   5565   5576     1  180.0000771  2.0083200  2
   5566   5564   5565   5576     1  0.0000000  1.2552000  3
   5568   5572   5604   5585     1  180.0000771  6.0668000  2
   5568   5572   5604   5585     1  180.0000771  1.4644000  4
   5572   5604   5585   5586     1  0.0000000  1.2552000  3
   5572   5604   5585   5584     1  0.0000000  1.2552000  3
   5573   5572   5604   5585     1  180.0000771  6.0668000  2
   5573   5572   5604   5585     1  180.0000771  1.4644000  4
   5576   5579   5628   5609     1  180.0000771  6.0668000  2
   5576   5579   5628   5609     1  180.0000771  1.4644000  4
   5579   5628   5609   5610     1  0.0000000  1.2552000  3
   5579   5628   5609   5608     1  0.0000000  1.2552000  3
   5580   5579   5628   5609     1  180.0000771  6.0668000  2
   5580   5579   5628   5609     1  180.0000771  1.4644000  4
   5581   5582   5584   5585     1  180.0000771  0.8368000  1
   5581   5582   5584   5585     1  180.0000771  1.0460000  2
   5581   5582   5584   5585     1  0.0000000  0.7531200  3
   5581   5582   5584   5591     1  0.0000000  0.6508444  3
   5581   5599   5586   5590     1  0.0000000  1.6038667  3
   5581   5599   5586   5585     1  180.0000771  0.4184000  2
   5581   5599   5586   5585     1  0.0000000  1.6024720  3
   5582   5584   5585   5586     1  180.0000771  0.8368000  1
   5582   5584   5585   5586     1  180.0000771  1.0460000  2
   5582   5584   5585   5586     1  0.0000000  0.7531200  3
   5582   5584   5585   5604     1  0.0000000  0.6508444  3
   5582   5581   5592   5597     1  0.0000000  0.6508444  3
   5582   5581   5599   5586     1  180.0000771  0.4184000  2
   5582   5581   5599   5586     1  0.0000000  1.6024720  3
   5584   5585   5586   5590     1  0.0000000  0.6508444  3
   5584   5585   5586   5599     1  0.0000000  0.6508444  3
   5584   5582   5581   5592     1  180.0000771  0.8368000  1
   5584   5582   5581   5592     1  180.0000771  1.0460000  2
   5584   5582   5581   5592     1  0.0000000  0.7531200  3
   5584   5582   5581   5599     1  0.0000000  0.6508444  3
   5585   5584   5582   5602     1  0.0000000  0.6508444  3
   5586   5599   5581   5592     1  180.0000771  0.4184000  2
   5586   5599   5581   5592     1  0.0000000  1.6024720  3
   5586   5585   5584   5591     1  0.0000000  0.6508444  3
   5590   5586   5585   5604     1  0.0000000  0.6508444  3
   5591   5584   5585   5604     1  0.0000000  0.6508444  3
   5591   5584   5582   5602     1  0.0000000  4.9162000  2
   5591   5584   5582   5602     1  0.0000000  0.6024960  3
   5592   5581   5582   5602     1  0.0000000  0.6508444  3
   5597   5592   5581   5599     1  0.0000000  4.9162000  2
   5597   5592   5581   5599     1  0.0000000  0.6024960  3
   5599   5586   5585   5604     1  0.0000000  0.6508444  3
   5599   5581   5582   5602     1  0.0000000  4.9162000  2
   5599   5581   5582   5602     1  0.0000000  0.6024960  3
   5605   5606   5608   5609     1  180.0000771  0.8368000  1
   5605   5606   5608   5609     1  180.0000771  1.0460000  2
   5605   5606   5608   5609     1  0.0000000  0.7531200  3
   5605   5606   5608   5615     1  0.0000000  0.6508444  3
   5605   5623   5610   5614     1  0.0000000  1.6038667  3
   5605   5623   5610   5609     1  180.0000771  0.4184000  2
   5605   5623   5610   5609     1  0.0000000  1.6024720  3
   5606   5608   5609   5610     1  180.0000771  0.8368000  1
   5606   5608   5609   5610     1  180.0000771  1.0460000  2
   5606   5608   5609   5610     1  0.0000000  0.7531200  3
   5606   5608   5609   5628     1  0.0000000  0.6508444  3
   5606   5605   5616   5621     1  0.0000000  0.6508444  3
   5606   5605   5623   5610     1  180.0000771  0.4184000  2
   5606   5605   5623   5610     1  0.0000000  1.6024720  3
   5608   5609   5610   5614     1  0.0000000  0.6508444  3
   5608   5609   5610   5623     1  0.0000000  0.6508444  3
   5608   5606   5605   5616     1  180.0000771  0.8368000  1
   5608   5606   5605   5616     1  180.0000771  1.0460000  2
   5608   5606   5605   5616     1  0.0000000  0.7531200  3
   5608   5606   5605   5623     1  0.0000000  0.6508444  3
   5609   5608   5606   5626     1  0.0000000  0.6508444  3
   5610   5623   5605   5616     1  180.0000771  0.4184000  2
   5610   5623   5605   5616     1  0.0000000  1.6024720  3
   5610   5609   5608   5615     1  0.0000000  0.6508444  3
   5614   5610   5609   5628     1  0.0000000  0.6508444  3
   5615   5608   5609   5628     1  0.0000000  0.6508444  3
   5615   5608   5606   5626     1  0.0000000  4.9162000  2
   5615   5608   5606   5626     1  0.0000000  0.6024960  3
   5616   5605   5606   5626     1  0.0000000  0.6508444  3
   5621   5616   5605   5623     1  0.0000000  4.9162000  2
   5621   5616   5605   5623     1  0.0000000  0.6024960  3
   5623   5610   5609   5628     1  0.0000000  0.6508444  3
   5623   5605   5606   5626     1  0.0000000  4.9162000  2
   5623   5605   5606   5626     1  0.0000000  0.6024960  3
   5629   5631   5633   5637     1  0.0000000  0.6508444  3
   5631   5633   5637   5638     1  180.0000771  2.0083200  2
   5631   5633   5637   5638     1  0.0000000  1.2552000  3
   5631   5633   5637   5639     1  180.0000771  2.0083200  2
   5631   5633   5637   5639     1  0.0000000  1.2552000  3
   5633   5637   5638   5649     1  180.0000771  2.0083200  2
   5633   5637   5638   5649     1  0.0000000  1.2552000  3
   5633   5637   5639   5641     1  180.0000771  2.0083200  2
   5633   5637   5639   5641     1  0.0000000  1.2552000  3
   5637   5638   5649   5652     1  0.0000000  0.6508444  3
   5637   5639   5641   5645     1  0.0000000  0.6508444  3
   5638   5637   5639   5641     1  180.0000771  2.0083200  2
   5638   5637   5639   5641     1  0.0000000  1.2552000  3
   5638   5649   5652   5653     1  180.0000771  0.0000000  2
   5638   5649   5652   5701     1  180.0000771  0.0000000  2
   5639   5637   5638   5649     1  180.0000771  2.0083200  2
   5639   5637   5638   5649     1  0.0000000  1.2552000  3
   5639   5641   5645   5646     1  180.0000771  0.0000000  2
   5639   5641   5645   5677     1  180.0000771  0.0000000  2
   5641   5645   5677   5658     1  180.0000771  6.0668000  2
   5641   5645   5677   5658     1  180.0000771  1.4644000  4
   5645   5677   5658   5657     1  0.0000000  1.2552000  3
   5645   5677   5658   5659     1  0.0000000  1.2552000  3
   5646   5645   5677   5658     1  180.0000771  6.0668000  2
   5646   5645   5677   5658     1  180.0000771  1.4644000  4
   5649   5652   5701   5682     1  180.0000771  6.0668000  2
   5649   5652   5701   5682     1  180.0000771  1.4644000  4
   5652   5701   5682   5681     1  0.0000000  1.2552000  3
   5652   5701   5682   5683     1  0.0000000  1.2552000  3
   5653   5652   5701   5682     1  180.0000771  6.0668000  2
   5653   5652   5701   5682     1  180.0000771  1.4644000  4
   5654   5655   5657   5658     1  180.0000771  0.8368000  1
   5654   5655   5657   5658     1  180.0000771  1.0460000  2
   5654   5655   5657   5658     1  0.0000000  0.7531200  3
   5654   5655   5657   5664     1  0.0000000  0.6508444  3
   5654   5672   5659   5658     1  180.0000771  0.4184000  2
   5654   5672   5659   5658     1  0.0000000  1.6024720  3
   5654   5672   5659   5663     1  0.0000000  1.6038667  3
   5655   5654   5665   5670     1  0.0000000  0.6508444  3
   5655   5654   5672   5659     1  180.0000771  0.4184000  2
   5655   5654   5672   5659     1  0.0000000  1.6024720  3
   5655   5657   5658   5659     1  180.0000771  0.8368000  1
   5655   5657   5658   5659     1  180.0000771  1.0460000  2
   5655   5657   5658   5659     1  0.0000000  0.7531200  3
   5655   5657   5658   5677     1  0.0000000  0.6508444  3
   5657   5655   5654   5665     1  180.0000771  0.8368000  1
   5657   5655   5654   5665     1  180.0000771  1.0460000  2
   5657   5655   5654   5665     1  0.0000000  0.7531200  3
   5657   5655   5654   5672     1  0.0000000  0.6508444  3
   5657   5658   5659   5663     1  0.0000000  0.6508444  3
   5657   5658   5659   5672     1  0.0000000  0.6508444  3
   5658   5657   5655   5675     1  0.0000000  0.6508444  3
   5659   5658   5657   5664     1  0.0000000  0.6508444  3
   5659   5672   5654   5665     1  180.0000771  0.4184000  2
   5659   5672   5654   5665     1  0.0000000  1.6024720  3
   5663   5659   5658   5677     1  0.0000000  0.6508444  3
   5664   5657   5655   5675     1  0.0000000  4.9162000  2
   5664   5657   5655   5675     1  0.0000000  0.6024960  3
   5664   5657   5658   5677     1  0.0000000  0.6508444  3
   5665   5654   5655   5675     1  0.0000000  0.6508444  3
   5670   5665   5654   5672     1  0.0000000  4.9162000  2
   5670   5665   5654   5672     1  0.0000000  0.6024960  3
   5672   5654   5655   5675     1  0.0000000  4.9162000  2
   5672   5654   5655   5675     1  0.0000000  0.6024960  3
   5672   5659   5658   5677     1  0.0000000  0.6508444  3
   5678   5679   5681   5682     1  180.0000771  0.8368000  1
   5678   5679   5681   5682     1  180.0000771  1.0460000  2
   5678   5679   5681   5682     1  0.0000000  0.7531200  3
   5678   5679   5681   5688     1  0.0000000  0.6508444  3
   5678   5696   5683   5682     1  180.0000771  0.4184000  2
   5678   5696   5683   5682     1  0.0000000  1.6024720  3
   5678   5696   5683   5687     1  0.0000000  1.6038667  3
   5679   5678   5689   5694     1  0.0000000  0.6508444  3
   5679   5678   5696   5683     1  180.0000771  0.4184000  2
   5679   5678   5696   5683     1  0.0000000  1.6024720  3
   5679   5681   5682   5683     1  180.0000771  0.8368000  1
   5679   5681   5682   5683     1  180.0000771  1.0460000  2
   5679   5681   5682   5683     1  0.0000000  0.7531200  3
   5679   5681   5682   5701     1  0.0000000  0.6508444  3
   5681   5679   5678   5689     1  180.0000771  0.8368000  1
   5681   5679   5678   5689     1  180.0000771  1.0460000  2
   5681   5679   5678   5689     1  0.0000000  0.7531200  3
   5681   5679   5678   5696     1  0.0000000  0.6508444  3
   5681   5682   5683   5687     1  0.0000000  0.6508444  3
   5681   5682   5683   5696     1  0.0000000  0.6508444  3
   5682   5681   5679   5699     1  0.0000000  0.6508444  3
   5683   5682   5681   5688     1  0.0000000  0.6508444  3
   5683   5696   5678   5689     1  180.0000771  0.4184000  2
   5683   5696   5678   5689     1  0.0000000  1.6024720  3
   5687   5683   5682   5701     1  0.0000000  0.6508444  3
   5688   5681   5679   5699     1  0.0000000  4.9162000  2
   5688   5681   5679   5699     1  0.0000000  0.6024960  3
   5688   5681   5682   5701     1  0.0000000  0.6508444  3
   5689   5678   5679   5699     1  0.0000000  0.6508444  3
   5694   5689   5678   5696     1  0.0000000  4.9162000  2
   5694   5689   5678   5696     1  0.0000000  0.6024960  3
   5696   5678   5679   5699     1  0.0000000  4.9162000  2
   5696   5678   5679   5699     1  0.0000000  0.6024960  3
   5696   5683   5682   5701     1  0.0000000  0.6508444  3
   5702   5704   5706   5710     1  0.0000000  0.6508444  3
   5704   5706   5710   5711     1  180.0000771  2.0083200  2
   5704   5706   5710   5711     1  0.0000000  1.2552000  3
   5704   5706   5710   5712     1  180.0000771  2.0083200  2
   5704   5706   5710   5712     1  0.0000000  1.2552000  3
   5706   5710   5711   5722     1  180.0000771  2.0083200  2
   5706   5710   5711   5722     1  0.0000000  1.2552000  3
   5706   5710   5712   5714     1  180.0000771  2.0083200  2
   5706   5710   5712   5714     1  0.0000000  1.2552000  3
   5710   5711   5722   5725     1  0.0000000  0.6508444  3
   5710   5712   5714   5718     1  0.0000000  0.6508444  3
   5711   5722   5725   5726     1  180.0000771  0.0000000  2
   5711   5722   5725   5774     1  180.0000771  0.0000000  2
   5711   5710   5712   5714     1  180.0000771  2.0083200  2
   5711   5710   5712   5714     1  0.0000000  1.2552000  3
   5712   5714   5718   5719     1  180.0000771  0.0000000  2
   5712   5714   5718   5750     1  180.0000771  0.0000000  2
   5712   5710   5711   5722     1  180.0000771  2.0083200  2
   5712   5710   5711   5722     1  0.0000000  1.2552000  3
   5714   5718   5750   5731     1  180.0000771  6.0668000  2
   5714   5718   5750   5731     1  180.0000771  1.4644000  4
   5718   5750   5731   5732     1  0.0000000  1.2552000  3
   5718   5750   5731   5730     1  0.0000000  1.2552000  3
   5719   5718   5750   5731     1  180.0000771  6.0668000  2
   5719   5718   5750   5731     1  180.0000771  1.4644000  4
   5722   5725   5774   5755     1  180.0000771  6.0668000  2
   5722   5725   5774   5755     1  180.0000771  1.4644000  4
   5725   5774   5755   5756     1  0.0000000  1.2552000  3
   5725   5774   5755   5754     1  0.0000000  1.2552000  3
   5726   5725   5774   5755     1  180.0000771  6.0668000  2
   5726   5725   5774   5755     1  180.0000771  1.4644000  4
   5727   5728   5730   5731     1  180.0000771  0.8368000  1
   5727   5728   5730   5731     1  180.0000771  1.0460000  2
   5727   5728   5730   5731     1  0.0000000  0.7531200  3
   5727   5728   5730   5737     1  0.0000000  0.6508444  3
   5727   5745   5732   5736     1  0.0000000  1.6038667  3
   5727   5745   5732   5731     1  180.0000771  0.4184000  2
   5727   5745   5732   5731     1  0.0000000  1.6024720  3
   5728   5730   5731   5732     1  180.0000771  0.8368000  1
   5728   5730   5731   5732     1  180.0000771  1.0460000  2
   5728   5730   5731   5732     1  0.0000000  0.7531200  3
   5728   5730   5731   5750     1  0.0000000  0.6508444  3
   5728   5727   5738   5743     1  0.0000000  0.6508444  3
   5728   5727   5745   5732     1  180.0000771  0.4184000  2
   5728   5727   5745   5732     1  0.0000000  1.6024720  3
   5730   5731   5732   5736     1  0.0000000  0.6508444  3
   5730   5731   5732   5745     1  0.0000000  0.6508444  3
   5730   5728   5727   5738     1  180.0000771  0.8368000  1
   5730   5728   5727   5738     1  180.0000771  1.0460000  2
   5730   5728   5727   5738     1  0.0000000  0.7531200  3
   5730   5728   5727   5745     1  0.0000000  0.6508444  3
   5731   5730   5728   5748     1  0.0000000  0.6508444  3
   5732   5745   5727   5738     1  180.0000771  0.4184000  2
   5732   5745   5727   5738     1  0.0000000  1.6024720  3
   5732   5731   5730   5737     1  0.0000000  0.6508444  3
   5736   5732   5731   5750     1  0.0000000  0.6508444  3
   5737   5730   5731   5750     1  0.0000000  0.6508444  3
   5737   5730   5728   5748     1  0.0000000  4.9162000  2
   5737   5730   5728   5748     1  0.0000000  0.6024960  3
   5738   5727   5728   5748     1  0.0000000  0.6508444  3
   5743   5738   5727   5745     1  0.0000000  4.9162000  2
   5743   5738   5727   5745     1  0.0000000  0.6024960  3
   5745   5732   5731   5750     1  0.0000000  0.6508444  3
   5745   5727   5728   5748     1  0.0000000  4.9162000  2
   5745   5727   5728   5748     1  0.0000000  0.6024960  3
   5751   5752   5754   5755     1  180.0000771  0.8368000  1
   5751   5752   5754   5755     1  180.0000771  1.0460000  2
   5751   5752   5754   5755     1  0.0000000  0.7531200  3
   5751   5752   5754   5761     1  0.0000000  0.6508444  3
   5751   5769   5756   5760     1  0.0000000  1.6038667  3
   5751   5769   5756   5755     1  180.0000771  0.4184000  2
   5751   5769   5756   5755     1  0.0000000  1.6024720  3
   5752   5754   5755   5756     1  180.0000771  0.8368000  1
   5752   5754   5755   5756     1  180.0000771  1.0460000  2
   5752   5754   5755   5756     1  0.0000000  0.7531200  3
   5752   5754   5755   5774     1  0.0000000  0.6508444  3
   5752   5751   5762   5767     1  0.0000000  0.6508444  3
   5752   5751   5769   5756     1  180.0000771  0.4184000  2
   5752   5751   5769   5756     1  0.0000000  1.6024720  3
   5754   5755   5756   5760     1  0.0000000  0.6508444  3
   5754   5755   5756   5769     1  0.0000000  0.6508444  3
   5754   5752   5751   5762     1  180.0000771  0.8368000  1
   5754   5752   5751   5762     1  180.0000771  1.0460000  2
   5754   5752   5751   5762     1  0.0000000  0.7531200  3
   5754   5752   5751   5769     1  0.0000000  0.6508444  3
   5755   5754   5752   5772     1  0.0000000  0.6508444  3
   5756   5769   5751   5762     1  180.0000771  0.4184000  2
   5756   5769   5751   5762     1  0.0000000  1.6024720  3
   5756   5755   5754   5761     1  0.0000000  0.6508444  3
   5760   5756   5755   5774     1  0.0000000  0.6508444  3
   5761   5754   5755   5774     1  0.0000000  0.6508444  3
   5761   5754   5752   5772     1  0.0000000  4.9162000  2
   5761   5754   5752   5772     1  0.0000000  0.6024960  3
   5762   5751   5752   5772     1  0.0000000  0.6508444  3
   5767   5762   5751   5769     1  0.0000000  4.9162000  2
   5767   5762   5751   5769     1  0.0000000  0.6024960  3
   5769   5756   5755   5774     1  0.0000000  0.6508444  3
   5769   5751   5752   5772     1  0.0000000  4.9162000  2
   5769   5751   5752   5772     1  0.0000000  0.6024960  3
   5775   5777   5779   5783     1  0.0000000  0.6508444  3
   5777   5779   5783   5784     1  180.0000771  2.0083200  2
   5777   5779   5783   5784     1  0.0000000  1.2552000  3
   5777   5779   5783   5785     1  180.0000771  2.0083200  2
   5777   5779   5783   5785     1  0.0000000  1.2552000  3
   5779   5783   5784   5795     1  180.0000771  2.0083200  2
   5779   5783   5784   5795     1  0.0000000  1.2552000  3
   5779   5783   5785   5787     1  180.0000771  2.0083200  2
   5779   5783   5785   5787     1  0.0000000  1.2552000  3
   5783   5784   5795   5798     1  0.0000000  0.6508444  3
   5783   5785   5787   5791     1  0.0000000  0.6508444  3
   5784   5783   5785   5787     1  180.0000771  2.0083200  2
   5784   5783   5785   5787     1  0.0000000  1.2552000  3
   5784   5795   5798   5799     1  180.0000771  0.0000000  2
   5784   5795   5798   5847     1  180.0000771  0.0000000  2
   5785   5783   5784   5795     1  180.0000771  2.0083200  2
   5785   5783   5784   5795     1  0.0000000  1.2552000  3
   5785   5787   5791   5792     1  180.0000771  0.0000000  2
   5785   5787   5791   5823     1  180.0000771  0.0000000  2
   5787   5791   5823   5804     1  180.0000771  6.0668000  2
   5787   5791   5823   5804     1  180.0000771  1.4644000  4
   5791   5823   5804   5803     1  0.0000000  1.2552000  3
   5791   5823   5804   5805     1  0.0000000  1.2552000  3
   5792   5791   5823   5804     1  180.0000771  6.0668000  2
   5792   5791   5823   5804     1  180.0000771  1.4644000  4
   5795   5798   5847   5828     1  180.0000771  6.0668000  2
   5795   5798   5847   5828     1  180.0000771  1.4644000  4
   5798   5847   5828   5827     1  0.0000000  1.2552000  3
   5798   5847   5828   5829     1  0.0000000  1.2552000  3
   5799   5798   5847   5828     1  180.0000771  6.0668000  2
   5799   5798   5847   5828     1  180.0000771  1.4644000  4
   5800   5801   5803   5804     1  180.0000771  0.8368000  1
   5800   5801   5803   5804     1  180.0000771  1.0460000  2
   5800   5801   5803   5804     1  0.0000000  0.7531200  3
   5800   5801   5803   5810     1  0.0000000  0.6508444  3
   5800   5818   5805   5804     1  180.0000771  0.4184000  2
   5800   5818   5805   5804     1  0.0000000  1.6024720  3
   5800   5818   5805   5809     1  0.0000000  1.6038667  3
   5801   5800   5811   5816     1  0.0000000  0.6508444  3
   5801   5800   5818   5805     1  180.0000771  0.4184000  2
   5801   5800   5818   5805     1  0.0000000  1.6024720  3
   5801   5803   5804   5805     1  180.0000771  0.8368000  1
   5801   5803   5804   5805     1  180.0000771  1.0460000  2
   5801   5803   5804   5805     1  0.0000000  0.7531200  3
   5801   5803   5804   5823     1  0.0000000  0.6508444  3
   5803   5801   5800   5811     1  180.0000771  0.8368000  1
   5803   5801   5800   5811     1  180.0000771  1.0460000  2
   5803   5801   5800   5811     1  0.0000000  0.7531200  3
   5803   5801   5800   5818     1  0.0000000  0.6508444  3
   5803   5804   5805   5809     1  0.0000000  0.6508444  3
   5803   5804   5805   5818     1  0.0000000  0.6508444  3
   5804   5803   5801   5821     1  0.0000000  0.6508444  3
   5805   5804   5803   5810     1  0.0000000  0.6508444  3
   5805   5818   5800   5811     1  180.0000771  0.4184000  2
   5805   5818   5800   5811     1  0.0000000  1.6024720  3
   5809   5805   5804   5823     1  0.0000000  0.6508444  3
   5810   5803   5801   5821     1  0.0000000  4.9162000  2
   5810   5803   5801   5821     1  0.0000000  0.6024960  3
   5810   5803   5804   5823     1  0.0000000  0.6508444  3
   5811   5800   5801   5821     1  0.0000000  0.6508444  3
   5816   5811   5800   5818     1  0.0000000  4.9162000  2
   5816   5811   5800   5818     1  0.0000000  0.6024960  3
   5818   5800   5801   5821     1  0.0000000  4.9162000  2
   5818   5800   5801   5821     1  0.0000000  0.6024960  3
   5818   5805   5804   5823     1  0.0000000  0.6508444  3
   5824   5825   5827   5828     1  180.0000771  0.8368000  1
   5824   5825   5827   5828     1  180.0000771  1.0460000  2
   5824   5825   5827   5828     1  0.0000000  0.7531200  3
   5824   5825   5827   5834     1  0.0000000  0.6508444  3
   5824   5842   5829   5828     1  180.0000771  0.4184000  2
   5824   5842   5829   5828     1  0.0000000  1.6024720  3
   5824   5842   5829   5833     1  0.0000000  1.6038667  3
   5825   5824   5835   5840     1  0.0000000  0.6508444  3
   5825   5824   5842   5829     1  180.0000771  0.4184000  2
   5825   5824   5842   5829     1  0.0000000  1.6024720  3
   5825   5827   5828   5829     1  180.0000771  0.8368000  1
   5825   5827   5828   5829     1  180.0000771  1.0460000  2
   5825   5827   5828   5829     1  0.0000000  0.7531200  3
   5825   5827   5828   5847     1  0.0000000  0.6508444  3
   5827   5825   5824   5835     1  180.0000771  0.8368000  1
   5827   5825   5824   5835     1  180.0000771  1.0460000  2
   5827   5825   5824   5835     1  0.0000000  0.7531200  3
   5827   5825   5824   5842     1  0.0000000  0.6508444  3
   5827   5828   5829   5833     1  0.0000000  0.6508444  3
   5827   5828   5829   5842     1  0.0000000  0.6508444  3
   5828   5827   5825   5845     1  0.0000000  0.6508444  3
   5829   5828   5827   5834     1  0.0000000  0.6508444  3
   5829   5842   5824   5835     1  180.0000771  0.4184000  2
   5829   5842   5824   5835     1  0.0000000  1.6024720  3
   5833   5829   5828   5847     1  0.0000000  0.6508444  3
   5834   5827   5825   5845     1  0.0000000  4.9162000  2
   5834   5827   5825   5845     1  0.0000000  0.6024960  3
   5834   5827   5828   5847     1  0.0000000  0.6508444  3
   5835   5824   5825   5845     1  0.0000000  0.6508444  3
   5840   5835   5824   5842     1  0.0000000  4.9162000  2
   5840   5835   5824   5842     1  0.0000000  0.6024960  3
   5842   5824   5825   5845     1  0.0000000  4.9162000  2
   5842   5824   5825   5845     1  0.0000000  0.6024960  3
   5842   5829   5828   5847     1  0.0000000  0.6508444  3
   5848   5850   5852   5856     1  0.0000000  0.6508444  3
   5850   5852   5856   5857     1  180.0000771  2.0083200  2
   5850   5852   5856   5857     1  0.0000000  1.2552000  3
   5850   5852   5856   5858     1  180.0000771  2.0083200  2
   5850   5852   5856   5858     1  0.0000000  1.2552000  3
   5852   5856   5857   5868     1  180.0000771  2.0083200  2
   5852   5856   5857   5868     1  0.0000000  1.2552000  3
   5852   5856   5858   5860     1  180.0000771  2.0083200  2
   5852   5856   5858   5860     1  0.0000000  1.2552000  3
   5856   5857   5868   5871     1  0.0000000  0.6508444  3
   5856   5858   5860   5864     1  0.0000000  0.6508444  3
   5857   5868   5871   5872     1  180.0000771  0.0000000  2
   5857   5868   5871   5920     1  180.0000771  0.0000000  2
   5857   5856   5858   5860     1  180.0000771  2.0083200  2
   5857   5856   5858   5860     1  0.0000000  1.2552000  3
   5858   5860   5864   5865     1  180.0000771  0.0000000  2
   5858   5860   5864   5896     1  180.0000771  0.0000000  2
   5858   5856   5857   5868     1  180.0000771  2.0083200  2
   5858   5856   5857   5868     1  0.0000000  1.2552000  3
   5860   5864   5896   5877     1  180.0000771  6.0668000  2
   5860   5864   5896   5877     1  180.0000771  1.4644000  4
   5864   5896   5877   5878     1  0.0000000  1.2552000  3
   5864   5896   5877   5876     1  0.0000000  1.2552000  3
   5865   5864   5896   5877     1  180.0000771  6.0668000  2
   5865   5864   5896   5877     1  180.0000771  1.4644000  4
   5868   5871   5920   5901     1  180.0000771  6.0668000  2
   5868   5871   5920   5901     1  180.0000771  1.4644000  4
   5871   5920   5901   5902     1  0.0000000  1.2552000  3
   5871   5920   5901   5900     1  0.0000000  1.2552000  3
   5872   5871   5920   5901     1  180.0000771  6.0668000  2
   5872   5871   5920   5901     1  180.0000771  1.4644000  4
   5873   5874   5876   5877     1  180.0000771  0.8368000  1
   5873   5874   5876   5877     1  180.0000771  1.0460000  2
   5873   5874   5876   5877     1  0.0000000  0.7531200  3
   5873   5874   5876   5883     1  0.0000000  0.6508444  3
   5873   5891   5878   5882     1  0.0000000  1.6038667  3
   5873   5891   5878   5877     1  180.0000771  0.4184000  2
   5873   5891   5878   5877     1  0.0000000  1.6024720  3
   5874   5876   5877   5878     1  180.0000771  0.8368000  1
   5874   5876   5877   5878     1  180.0000771  1.0460000  2
   5874   5876   5877   5878     1  0.0000000  0.7531200  3
   5874   5876   5877   5896     1  0.0000000  0.6508444  3
   5874   5873   5884   5889     1  0.0000000  0.6508444  3
   5874   5873   5891   5878     1  180.0000771  0.4184000  2
   5874   5873   5891   5878     1  0.0000000  1.6024720  3
   5876   5877   5878   5882     1  0.0000000  0.6508444  3
   5876   5877   5878   5891     1  0.0000000  0.6508444  3
   5876   5874   5873   5884     1  180.0000771  0.8368000  1
   5876   5874   5873   5884     1  180.0000771  1.0460000  2
   5876   5874   5873   5884     1  0.0000000  0.7531200  3
   5876   5874   5873   5891     1  0.0000000  0.6508444  3
   5877   5876   5874   5894     1  0.0000000  0.6508444  3
   5878   5891   5873   5884     1  180.0000771  0.4184000  2
   5878   5891   5873   5884     1  0.0000000  1.6024720  3
   5878   5877   5876   5883     1  0.0000000  0.6508444  3
   5882   5878   5877   5896     1  0.0000000  0.6508444  3
   5883   5876   5877   5896     1  0.0000000  0.6508444  3
   5883   5876   5874   5894     1  0.0000000  4.9162000  2
   5883   5876   5874   5894     1  0.0000000  0.6024960  3
   5884   5873   5874   5894     1  0.0000000  0.6508444  3
   5889   5884   5873   5891     1  0.0000000  4.9162000  2
   5889   5884   5873   5891     1  0.0000000  0.6024960  3
   5891   5878   5877   5896     1  0.0000000  0.6508444  3
   5891   5873   5874   5894     1  0.0000000  4.9162000  2
   5891   5873   5874   5894     1  0.0000000  0.6024960  3
   5897   5898   5900   5901     1  180.0000771  0.8368000  1
   5897   5898   5900   5901     1  180.0000771  1.0460000  2
   5897   5898   5900   5901     1  0.0000000  0.7531200  3
   5897   5898   5900   5907     1  0.0000000  0.6508444  3
   5897   5915   5902   5906     1  0.0000000  1.6038667  3
   5897   5915   5902   5901     1  180.0000771  0.4184000  2
   5897   5915   5902   5901     1  0.0000000  1.6024720  3
   5898   5900   5901   5902     1  180.0000771  0.8368000  1
   5898   5900   5901   5902     1  180.0000771  1.0460000  2
   5898   5900   5901   5902     1  0.0000000  0.7531200  3
   5898   5900   5901   5920     1  0.0000000  0.6508444  3
   5898   5897   5908   5913     1  0.0000000  0.6508444  3
   5898   5897   5915   5902     1  180.0000771  0.4184000  2
   5898   5897   5915   5902     1  0.0000000  1.6024720  3
   5900   5901   5902   5906     1  0.0000000  0.6508444  3
   5900   5901   5902   5915     1  0.0000000  0.6508444  3
   5900   5898   5897   5908     1  180.0000771  0.8368000  1
   5900   5898   5897   5908     1  180.0000771  1.0460000  2
   5900   5898   5897   5908     1  0.0000000  0.7531200  3
   5900   5898   5897   5915     1  0.0000000  0.6508444  3
   5901   5900   5898   5918     1  0.0000000  0.6508444  3
   5902   5915   5897   5908     1  180.0000771  0.4184000  2
   5902   5915   5897   5908     1  0.0000000  1.6024720  3
   5902   5901   5900   5907     1  0.0000000  0.6508444  3
   5906   5902   5901   5920     1  0.0000000  0.6508444  3
   5907   5900   5901   5920     1  0.0000000  0.6508444  3
   5907   5900   5898   5918     1  0.0000000  4.9162000  2
   5907   5900   5898   5918     1  0.0000000  0.6024960  3
   5908   5897   5898   5918     1  0.0000000  0.6508444  3
   5913   5908   5897   5915     1  0.0000000  4.9162000  2
   5913   5908   5897   5915     1  0.0000000  0.6024960  3
   5915   5902   5901   5920     1  0.0000000  0.6508444  3
   5915   5897   5898   5918     1  0.0000000  4.9162000  2
   5915   5897   5898   5918     1  0.0000000  0.6024960  3
   5921   5923   5925   5929     1  0.0000000  0.6508444  3
   5923   5925   5929   5930     1  180.0000771  2.0083200  2
   5923   5925   5929   5930     1  0.0000000  1.2552000  3
   5923   5925   5929   5931     1  180.0000771  2.0083200  2
   5923   5925   5929   5931     1  0.0000000  1.2552000  3
   5925   5929   5930   5941     1  180.0000771  2.0083200  2
   5925   5929   5930   5941     1  0.0000000  1.2552000  3
   5925   5929   5931   5933     1  180.0000771  2.0083200  2
   5925   5929   5931   5933     1  0.0000000  1.2552000  3
   5929   5930   5941   5944     1  0.0000000  0.6508444  3
   5929   5931   5933   5937     1  0.0000000  0.6508444  3
   5930   5929   5931   5933     1  180.0000771  2.0083200  2
   5930   5929   5931   5933     1  0.0000000  1.2552000  3
   5930   5941   5944   5945     1  180.0000771  0.0000000  2
   5930   5941   5944   5993     1  180.0000771  0.0000000  2
   5931   5929   5930   5941     1  180.0000771  2.0083200  2
   5931   5929   5930   5941     1  0.0000000  1.2552000  3
   5931   5933   5937   5938     1  180.0000771  0.0000000  2
   5931   5933   5937   5969     1  180.0000771  0.0000000  2
   5933   5937   5969   5950     1  180.0000771  6.0668000  2
   5933   5937   5969   5950     1  180.0000771  1.4644000  4
   5937   5969   5950   5949     1  0.0000000  1.2552000  3
   5937   5969   5950   5951     1  0.0000000  1.2552000  3
   5938   5937   5969   5950     1  180.0000771  6.0668000  2
   5938   5937   5969   5950     1  180.0000771  1.4644000  4
   5941   5944   5993   5974     1  180.0000771  6.0668000  2
   5941   5944   5993   5974     1  180.0000771  1.4644000  4
   5944   5993   5974   5973     1  0.0000000  1.2552000  3
   5944   5993   5974   5975     1  0.0000000  1.2552000  3
   5945   5944   5993   5974     1  180.0000771  6.0668000  2
   5945   5944   5993   5974     1  180.0000771  1.4644000  4
   5946   5947   5949   5950     1  180.0000771  0.8368000  1
   5946   5947   5949   5950     1  180.0000771  1.0460000  2
   5946   5947   5949   5950     1  0.0000000  0.7531200  3
   5946   5947   5949   5956     1  0.0000000  0.6508444  3
   5946   5964   5951   5950     1  180.0000771  0.4184000  2
   5946   5964   5951   5950     1  0.0000000  1.6024720  3
   5946   5964   5951   5955     1  0.0000000  1.6038667  3
   5947   5946   5957   5962     1  0.0000000  0.6508444  3
   5947   5946   5964   5951     1  180.0000771  0.4184000  2
   5947   5946   5964   5951     1  0.0000000  1.6024720  3
   5947   5949   5950   5951     1  180.0000771  0.8368000  1
   5947   5949   5950   5951     1  180.0000771  1.0460000  2
   5947   5949   5950   5951     1  0.0000000  0.7531200  3
   5947   5949   5950   5969     1  0.0000000  0.6508444  3
   5949   5947   5946   5957     1  180.0000771  0.8368000  1
   5949   5947   5946   5957     1  180.0000771  1.0460000  2
   5949   5947   5946   5957     1  0.0000000  0.7531200  3
   5949   5947   5946   5964     1  0.0000000  0.6508444  3
   5949   5950   5951   5955     1  0.0000000  0.6508444  3
   5949   5950   5951   5964     1  0.0000000  0.6508444  3
   5950   5949   5947   5967     1  0.0000000  0.6508444  3
   5951   5950   5949   5956     1  0.0000000  0.6508444  3
   5951   5964   5946   5957     1  180.0000771  0.4184000  2
   5951   5964   5946   5957     1  0.0000000  1.6024720  3
   5955   5951   5950   5969     1  0.0000000  0.6508444  3
   5956   5949   5947   5967     1  0.0000000  4.9162000  2
   5956   5949   5947   5967     1  0.0000000  0.6024960  3
   5956   5949   5950   5969     1  0.0000000  0.6508444  3
   5957   5946   5947   5967     1  0.0000000  0.6508444  3
   5962   5957   5946   5964     1  0.0000000  4.9162000  2
   5962   5957   5946   5964     1  0.0000000  0.6024960  3
   5964   5946   5947   5967     1  0.0000000  4.9162000  2
   5964   5946   5947   5967     1  0.0000000  0.6024960  3
   5964   5951   5950   5969     1  0.0000000  0.6508444  3
   5970   5971   5973   5974     1  180.0000771  0.8368000  1
   5970   5971   5973   5974     1  180.0000771  1.0460000  2
   5970   5971   5973   5974     1  0.0000000  0.7531200  3
   5970   5971   5973   5980     1  0.0000000  0.6508444  3
   5970   5988   5975   5974     1  180.0000771  0.4184000  2
   5970   5988   5975   5974     1  0.0000000  1.6024720  3
   5970   5988   5975   5979     1  0.0000000  1.6038667  3
   5971   5970   5981   5986     1  0.0000000  0.6508444  3
   5971   5970   5988   5975     1  180.0000771  0.4184000  2
   5971   5970   5988   5975     1  0.0000000  1.6024720  3
   5971   5973   5974   5975     1  180.0000771  0.8368000  1
   5971   5973   5974   5975     1  180.0000771  1.0460000  2
   5971   5973   5974   5975     1  0.0000000  0.7531200  3
   5971   5973   5974   5993     1  0.0000000  0.6508444  3
   5973   5971   5970   5981     1  180.0000771  0.8368000  1
   5973   5971   5970   5981     1  180.0000771  1.0460000  2
   5973   5971   5970   5981     1  0.0000000  0.7531200  3
   5973   5971   5970   5988     1  0.0000000  0.6508444  3
   5973   5974   5975   5979     1  0.0000000  0.6508444  3
   5973   5974   5975   5988     1  0.0000000  0.6508444  3
   5974   5973   5971   5991     1  0.0000000  0.6508444  3
   5975   5974   5973   5980     1  0.0000000  0.6508444  3
   5975   5988   5970   5981     1  180.0000771  0.4184000  2
   5975   5988   5970   5981     1  0.0000000  1.6024720  3
   5979   5975   5974   5993     1  0.0000000  0.6508444  3
   5980   5973   5971   5991     1  0.0000000  4.9162000  2
   5980   5973   5971   5991     1  0.0000000  0.6024960  3
   5980   5973   5974   5993     1  0.0000000  0.6508444  3
   5981   5970   5971   5991     1  0.0000000  0.6508444  3
   5986   5981   5970   5988     1  0.0000000  4.9162000  2
   5986   5981   5970   5988     1  0.0000000  0.6024960  3
   5988   5970   5971   5991     1  0.0000000  4.9162000  2
   5988   5970   5971   5991     1  0.0000000  0.6024960  3
   5988   5975   5974   5993     1  0.0000000  0.6508444  3
   5994   5996   5998   6002     1  0.0000000  0.6508444  3
   5996   5998   6002   6003     1  180.0000771  2.0083200  2
   5996   5998   6002   6003     1  0.0000000  1.2552000  3
   5996   5998   6002   6004     1  180.0000771  2.0083200  2
   5996   5998   6002   6004     1  0.0000000  1.2552000  3
   5998   6002   6003   6014     1  180.0000771  2.0083200  2
   5998   6002   6003   6014     1  0.0000000  1.2552000  3
   5998   6002   6004   6006     1  180.0000771  2.0083200  2
   5998   6002   6004   6006     1  0.0000000  1.2552000  3
   6002   6003   6014   6017     1  0.0000000  0.6508444  3
   6002   6004   6006   6010     1  0.0000000  0.6508444  3
   6003   6014   6017   6018     1  180.0000771  0.0000000  2
   6003   6014   6017   6066     1  180.0000771  0.0000000  2
   6003   6002   6004   6006     1  180.0000771  2.0083200  2
   6003   6002   6004   6006     1  0.0000000  1.2552000  3
   6004   6006   6010   6011     1  180.0000771  0.0000000  2
   6004   6006   6010   6042     1  180.0000771  0.0000000  2
   6004   6002   6003   6014     1  180.0000771  2.0083200  2
   6004   6002   6003   6014     1  0.0000000  1.2552000  3
   6006   6010   6042   6023     1  180.0000771  6.0668000  2
   6006   6010   6042   6023     1  180.0000771  1.4644000  4
   6010   6042   6023   6024     1  0.0000000  1.2552000  3
   6010   6042   6023   6022     1  0.0000000  1.2552000  3
   6011   6010   6042   6023     1  180.0000771  6.0668000  2
   6011   6010   6042   6023     1  180.0000771  1.4644000  4
   6014   6017   6066   6047     1  180.0000771  6.0668000  2
   6014   6017   6066   6047     1  180.0000771  1.4644000  4
   6017   6066   6047   6048     1  0.0000000  1.2552000  3
   6017   6066   6047   6046     1  0.0000000  1.2552000  3
   6018   6017   6066   6047     1  180.0000771  6.0668000  2
   6018   6017   6066   6047     1  180.0000771  1.4644000  4
   6019   6020   6022   6023     1  180.0000771  0.8368000  1
   6019   6020   6022   6023     1  180.0000771  1.0460000  2
   6019   6020   6022   6023     1  0.0000000  0.7531200  3
   6019   6020   6022   6029     1  0.0000000  0.6508444  3
   6019   6037   6024   6028     1  0.0000000  1.6038667  3
   6019   6037   6024   6023     1  180.0000771  0.4184000  2
   6019   6037   6024   6023     1  0.0000000  1.6024720  3
   6020   6022   6023   6024     1  180.0000771  0.8368000  1
   6020   6022   6023   6024     1  180.0000771  1.0460000  2
   6020   6022   6023   6024     1  0.0000000  0.7531200  3
   6020   6022   6023   6042     1  0.0000000  0.6508444  3
   6020   6019   6030   6035     1  0.0000000  0.6508444  3
   6020   6019   6037   6024     1  180.0000771  0.4184000  2
   6020   6019   6037   6024     1  0.0000000  1.6024720  3
   6022   6023   6024   6028     1  0.0000000  0.6508444  3
   6022   6023   6024   6037     1  0.0000000  0.6508444  3
   6022   6020   6019   6030     1  180.0000771  0.8368000  1
   6022   6020   6019   6030     1  180.0000771  1.0460000  2
   6022   6020   6019   6030     1  0.0000000  0.7531200  3
   6022   6020   6019   6037     1  0.0000000  0.6508444  3
   6023   6022   6020   6040     1  0.0000000  0.6508444  3
   6024   6037   6019   6030     1  180.0000771  0.4184000  2
   6024   6037   6019   6030     1  0.0000000  1.6024720  3
   6024   6023   6022   6029     1  0.0000000  0.6508444  3
   6028   6024   6023   6042     1  0.0000000  0.6508444  3
   6029   6022   6023   6042     1  0.0000000  0.6508444  3
   6029   6022   6020   6040     1  0.0000000  4.9162000  2
   6029   6022   6020   6040     1  0.0000000  0.6024960  3
   6030   6019   6020   6040     1  0.0000000  0.6508444  3
   6035   6030   6019   6037     1  0.0000000  4.9162000  2
   6035   6030   6019   6037     1  0.0000000  0.6024960  3
   6037   6024   6023   6042     1  0.0000000  0.6508444  3
   6037   6019   6020   6040     1  0.0000000  4.9162000  2
   6037   6019   6020   6040     1  0.0000000  0.6024960  3
   6043   6044   6046   6047     1  180.0000771  0.8368000  1
   6043   6044   6046   6047     1  180.0000771  1.0460000  2
   6043   6044   6046   6047     1  0.0000000  0.7531200  3
   6043   6044   6046   6053     1  0.0000000  0.6508444  3
   6043   6061   6048   6052     1  0.0000000  1.6038667  3
   6043   6061   6048   6047     1  180.0000771  0.4184000  2
   6043   6061   6048   6047     1  0.0000000  1.6024720  3
   6044   6046   6047   6048     1  180.0000771  0.8368000  1
   6044   6046   6047   6048     1  180.0000771  1.0460000  2
   6044   6046   6047   6048     1  0.0000000  0.7531200  3
   6044   6046   6047   6066     1  0.0000000  0.6508444  3
   6044   6043   6054   6059     1  0.0000000  0.6508444  3
   6044   6043   6061   6048     1  180.0000771  0.4184000  2
   6044   6043   6061   6048     1  0.0000000  1.6024720  3
   6046   6047   6048   6052     1  0.0000000  0.6508444  3
   6046   6047   6048   6061     1  0.0000000  0.6508444  3
   6046   6044   6043   6054     1  180.0000771  0.8368000  1
   6046   6044   6043   6054     1  180.0000771  1.0460000  2
   6046   6044   6043   6054     1  0.0000000  0.7531200  3
   6046   6044   6043   6061     1  0.0000000  0.6508444  3
   6047   6046   6044   6064     1  0.0000000  0.6508444  3
   6048   6061   6043   6054     1  180.0000771  0.4184000  2
   6048   6061   6043   6054     1  0.0000000  1.6024720  3
   6048   6047   6046   6053     1  0.0000000  0.6508444  3
   6052   6048   6047   6066     1  0.0000000  0.6508444  3
   6053   6046   6047   6066     1  0.0000000  0.6508444  3
   6053   6046   6044   6064     1  0.0000000  4.9162000  2
   6053   6046   6044   6064     1  0.0000000  0.6024960  3
   6054   6043   6044   6064     1  0.0000000  0.6508444  3
   6059   6054   6043   6061     1  0.0000000  4.9162000  2
   6059   6054   6043   6061     1  0.0000000  0.6024960  3
   6061   6048   6047   6066     1  0.0000000  0.6508444  3
   6061   6043   6044   6064     1  0.0000000  4.9162000  2
   6061   6043   6044   6064     1  0.0000000  0.6024960  3
   6067   6069   6071   6075     1  0.0000000  0.6508444  3
   6069   6071   6075   6076     1  180.0000771  2.0083200  2
   6069   6071   6075   6076     1  0.0000000  1.2552000  3
   6069   6071   6075   6077     1  180.0000771  2.0083200  2
   6069   6071   6075   6077     1  0.0000000  1.2552000  3
   6071   6075   6076   6087     1  180.0000771  2.0083200  2
   6071   6075   6076   6087     1  0.0000000  1.2552000  3
   6071   6075   6077   6079     1  180.0000771  2.0083200  2
   6071   6075   6077   6079     1  0.0000000  1.2552000  3
   6075   6076   6087   6090     1  0.0000000  0.6508444  3
   6075   6077   6079   6083     1  0.0000000  0.6508444  3
   6076   6075   6077   6079     1  180.0000771  2.0083200  2
   6076   6075   6077   6079     1  0.0000000  1.2552000  3
   6076   6087   6090   6091     1  180.0000771  0.0000000  2
   6076   6087   6090   6139     1  180.0000771  0.0000000  2
   6077   6075   6076   6087     1  180.0000771  2.0083200  2
   6077   6075   6076   6087     1  0.0000000  1.2552000  3
   6077   6079   6083   6084     1  180.0000771  0.0000000  2
   6077   6079   6083   6115     1  180.0000771  0.0000000  2
   6079   6083   6115   6096     1  180.0000771  6.0668000  2
   6079   6083   6115   6096     1  180.0000771  1.4644000  4
   6083   6115   6096   6095     1  0.0000000  1.2552000  3
   6083   6115   6096   6097     1  0.0000000  1.2552000  3
   6084   6083   6115   6096     1  180.0000771  6.0668000  2
   6084   6083   6115   6096     1  180.0000771  1.4644000  4
   6087   6090   6139   6120     1  180.0000771  6.0668000  2
   6087   6090   6139   6120     1  180.0000771  1.4644000  4
   6090   6139   6120   6119     1  0.0000000  1.2552000  3
   6090   6139   6120   6121     1  0.0000000  1.2552000  3
   6091   6090   6139   6120     1  180.0000771  6.0668000  2
   6091   6090   6139   6120     1  180.0000771  1.4644000  4
   6092   6093   6095   6096     1  180.0000771  0.8368000  1
   6092   6093   6095   6096     1  180.0000771  1.0460000  2
   6092   6093   6095   6096     1  0.0000000  0.7531200  3
   6092   6093   6095   6102     1  0.0000000  0.6508444  3
   6092   6110   6097   6096     1  180.0000771  0.4184000  2
   6092   6110   6097   6096     1  0.0000000  1.6024720  3
   6092   6110   6097   6101     1  0.0000000  1.6038667  3
   6093   6092   6103   6108     1  0.0000000  0.6508444  3
   6093   6092   6110   6097     1  180.0000771  0.4184000  2
   6093   6092   6110   6097     1  0.0000000  1.6024720  3
   6093   6095   6096   6097     1  180.0000771  0.8368000  1
   6093   6095   6096   6097     1  180.0000771  1.0460000  2
   6093   6095   6096   6097     1  0.0000000  0.7531200  3
   6093   6095   6096   6115     1  0.0000000  0.6508444  3
   6095   6093   6092   6103     1  180.0000771  0.8368000  1
   6095   6093   6092   6103     1  180.0000771  1.0460000  2
   6095   6093   6092   6103     1  0.0000000  0.7531200  3
   6095   6093   6092   6110     1  0.0000000  0.6508444  3
   6095   6096   6097   6101     1  0.0000000  0.6508444  3
   6095   6096   6097   6110     1  0.0000000  0.6508444  3
   6096   6095   6093   6113     1  0.0000000  0.6508444  3
   6097   6096   6095   6102     1  0.0000000  0.6508444  3
   6097   6110   6092   6103     1  180.0000771  0.4184000  2
   6097   6110   6092   6103     1  0.0000000  1.6024720  3
   6101   6097   6096   6115     1  0.0000000  0.6508444  3
   6102   6095   6093   6113     1  0.0000000  4.9162000  2
   6102   6095   6093   6113     1  0.0000000  0.6024960  3
   6102   6095   6096   6115     1  0.0000000  0.6508444  3
   6103   6092   6093   6113     1  0.0000000  0.6508444  3
   6108   6103   6092   6110     1  0.0000000  4.9162000  2
   6108   6103   6092   6110     1  0.0000000  0.6024960  3
   6110   6092   6093   6113     1  0.0000000  4.9162000  2
   6110   6092   6093   6113     1  0.0000000  0.6024960  3
   6110   6097   6096   6115     1  0.0000000  0.6508444  3
   6116   6117   6119   6120     1  180.0000771  0.8368000  1
   6116   6117   6119   6120     1  180.0000771  1.0460000  2
   6116   6117   6119   6120     1  0.0000000  0.7531200  3
   6116   6117   6119   6126     1  0.0000000  0.6508444  3
   6116   6134   6121   6120     1  180.0000771  0.4184000  2
   6116   6134   6121   6120     1  0.0000000  1.6024720  3
   6116   6134   6121   6125     1  0.0000000  1.6038667  3
   6117   6116   6127   6132     1  0.0000000  0.6508444  3
   6117   6116   6134   6121     1  180.0000771  0.4184000  2
   6117   6116   6134   6121     1  0.0000000  1.6024720  3
   6117   6119   6120   6121     1  180.0000771  0.8368000  1
   6117   6119   6120   6121     1  180.0000771  1.0460000  2
   6117   6119   6120   6121     1  0.0000000  0.7531200  3
   6117   6119   6120   6139     1  0.0000000  0.6508444  3
   6119   6117   6116   6127     1  180.0000771  0.8368000  1
   6119   6117   6116   6127     1  180.0000771  1.0460000  2
   6119   6117   6116   6127     1  0.0000000  0.7531200  3
   6119   6117   6116   6134     1  0.0000000  0.6508444  3
   6119   6120   6121   6125     1  0.0000000  0.6508444  3
   6119   6120   6121   6134     1  0.0000000  0.6508444  3
   6120   6119   6117   6137     1  0.0000000  0.6508444  3
   6121   6120   6119   6126     1  0.0000000  0.6508444  3
   6121   6134   6116   6127     1  180.0000771  0.4184000  2
   6121   6134   6116   6127     1  0.0000000  1.6024720  3
   6125   6121   6120   6139     1  0.0000000  0.6508444  3
   6126   6119   6117   6137     1  0.0000000  4.9162000  2
   6126   6119   6117   6137     1  0.0000000  0.6024960  3
   6126   6119   6120   6139     1  0.0000000  0.6508444  3
   6127   6116   6117   6137     1  0.0000000  0.6508444  3
   6132   6127   6116   6134     1  0.0000000  4.9162000  2
   6132   6127   6116   6134     1  0.0000000  0.6024960  3
   6134   6116   6117   6137     1  0.0000000  4.9162000  2
   6134   6116   6117   6137     1  0.0000000  0.6024960  3
   6134   6121   6120   6139     1  0.0000000  0.6508444  3
   6140   6142   6144   6148     1  0.0000000  0.6508444  3
   6142   6144   6148   6149     1  180.0000771  2.0083200  2
   6142   6144   6148   6149     1  0.0000000  1.2552000  3
   6142   6144   6148   6150     1  180.0000771  2.0083200  2
   6142   6144   6148   6150     1  0.0000000  1.2552000  3
   6144   6148   6149   6160     1  180.0000771  2.0083200  2
   6144   6148   6149   6160     1  0.0000000  1.2552000  3
   6144   6148   6150   6152     1  180.0000771  2.0083200  2
   6144   6148   6150   6152     1  0.0000000  1.2552000  3
   6148   6149   6160   6163     1  0.0000000  0.6508444  3
   6148   6150   6152   6156     1  0.0000000  0.6508444  3
   6149   6160   6163   6164     1  180.0000771  0.0000000  2
   6149   6160   6163   6212     1  180.0000771  0.0000000  2
   6149   6148   6150   6152     1  180.0000771  2.0083200  2
   6149   6148   6150   6152     1  0.0000000  1.2552000  3
   6150   6152   6156   6157     1  180.0000771  0.0000000  2
   6150   6152   6156   6188     1  180.0000771  0.0000000  2
   6150   6148   6149   6160     1  180.0000771  2.0083200  2
   6150   6148   6149   6160     1  0.0000000  1.2552000  3
   6152   6156   6188   6169     1  180.0000771  6.0668000  2
   6152   6156   6188   6169     1  180.0000771  1.4644000  4
   6156   6188   6169   6170     1  0.0000000  1.2552000  3
   6156   6188   6169   6168     1  0.0000000  1.2552000  3
   6157   6156   6188   6169     1  180.0000771  6.0668000  2
   6157   6156   6188   6169     1  180.0000771  1.4644000  4
   6160   6163   6212   6193     1  180.0000771  6.0668000  2
   6160   6163   6212   6193     1  180.0000771  1.4644000  4
   6163   6212   6193   6194     1  0.0000000  1.2552000  3
   6163   6212   6193   6192     1  0.0000000  1.2552000  3
   6164   6163   6212   6193     1  180.0000771  6.0668000  2
   6164   6163   6212   6193     1  180.0000771  1.4644000  4
   6165   6166   6168   6169     1  180.0000771  0.8368000  1
   6165   6166   6168   6169     1  180.0000771  1.0460000  2
   6165   6166   6168   6169     1  0.0000000  0.7531200  3
   6165   6166   6168   6175     1  0.0000000  0.6508444  3
   6165   6183   6170   6174     1  0.0000000  1.6038667  3
   6165   6183   6170   6169     1  180.0000771  0.4184000  2
   6165   6183   6170   6169     1  0.0000000  1.6024720  3
   6166   6168   6169   6170     1  180.0000771  0.8368000  1
   6166   6168   6169   6170     1  180.0000771  1.0460000  2
   6166   6168   6169   6170     1  0.0000000  0.7531200  3
   6166   6168   6169   6188     1  0.0000000  0.6508444  3
   6166   6165   6176   6181     1  0.0000000  0.6508444  3
   6166   6165   6183   6170     1  180.0000771  0.4184000  2
   6166   6165   6183   6170     1  0.0000000  1.6024720  3
   6168   6169   6170   6174     1  0.0000000  0.6508444  3
   6168   6169   6170   6183     1  0.0000000  0.6508444  3
   6168   6166   6165   6176     1  180.0000771  0.8368000  1
   6168   6166   6165   6176     1  180.0000771  1.0460000  2
   6168   6166   6165   6176     1  0.0000000  0.7531200  3
   6168   6166   6165   6183     1  0.0000000  0.6508444  3
   6169   6168   6166   6186     1  0.0000000  0.6508444  3
   6170   6183   6165   6176     1  180.0000771  0.4184000  2
   6170   6183   6165   6176     1  0.0000000  1.6024720  3
   6170   6169   6168   6175     1  0.0000000  0.6508444  3
   6174   6170   6169   6188     1  0.0000000  0.6508444  3
   6175   6168   6169   6188     1  0.0000000  0.6508444  3
   6175   6168   6166   6186     1  0.0000000  4.9162000  2
   6175   6168   6166   6186     1  0.0000000  0.6024960  3
   6176   6165   6166   6186     1  0.0000000  0.6508444  3
   6181   6176   6165   6183     1  0.0000000  4.9162000  2
   6181   6176   6165   6183     1  0.0000000  0.6024960  3
   6183   6170   6169   6188     1  0.0000000  0.6508444  3
   6183   6165   6166   6186     1  0.0000000  4.9162000  2
   6183   6165   6166   6186     1  0.0000000  0.6024960  3
   6189   6190   6192   6193     1  180.0000771  0.8368000  1
   6189   6190   6192   6193     1  180.0000771  1.0460000  2
   6189   6190   6192   6193     1  0.0000000  0.7531200  3
   6189   6190   6192   6199     1  0.0000000  0.6508444  3
   6189   6207   6194   6198     1  0.0000000  1.6038667  3
   6189   6207   6194   6193     1  180.0000771  0.4184000  2
   6189   6207   6194   6193     1  0.0000000  1.6024720  3
   6190   6192   6193   6194     1  180.0000771  0.8368000  1
   6190   6192   6193   6194     1  180.0000771  1.0460000  2
   6190   6192   6193   6194     1  0.0000000  0.7531200  3
   6190   6192   6193   6212     1  0.0000000  0.6508444  3
   6190   6189   6200   6205     1  0.0000000  0.6508444  3
   6190   6189   6207   6194     1  180.0000771  0.4184000  2
   6190   6189   6207   6194     1  0.0000000  1.6024720  3
   6192   6193   6194   6198     1  0.0000000  0.6508444  3
   6192   6193   6194   6207     1  0.0000000  0.6508444  3
   6192   6190   6189   6200     1  180.0000771  0.8368000  1
   6192   6190   6189   6200     1  180.0000771  1.0460000  2
   6192   6190   6189   6200     1  0.0000000  0.7531200  3
   6192   6190   6189   6207     1  0.0000000  0.6508444  3
   6193   6192   6190   6210     1  0.0000000  0.6508444  3
   6194   6207   6189   6200     1  180.0000771  0.4184000  2
   6194   6207   6189   6200     1  0.0000000  1.6024720  3
   6194   6193   6192   6199     1  0.0000000  0.6508444  3
   6198   6194   6193   6212     1  0.0000000  0.6508444  3
   6199   6192   6193   6212     1  0.0000000  0.6508444  3
   6199   6192   6190   6210     1  0.0000000  4.9162000  2
   6199   6192   6190   6210     1  0.0000000  0.6024960  3
   6200   6189   6190   6210     1  0.0000000  0.6508444  3
   6205   6200   6189   6207     1  0.0000000  4.9162000  2
   6205   6200   6189   6207     1  0.0000000  0.6024960  3
   6207   6194   6193   6212     1  0.0000000  0.6508444  3
   6207   6189   6190   6210     1  0.0000000  4.9162000  2
   6207   6189   6190   6210     1  0.0000000  0.6024960  3
     27     64     33     37     4  180.0000771  43.9320000  2
     30     89     34     40     4  180.0000771  43.9320000  2
     21    114     35     38     4  180.0000771  43.9320000  2
     24    139     36     39     4  180.0000771  43.9320000  2
     54    164     60     62     4  180.0000771  43.9320000  2
     57    189     61     63     4  180.0000771  43.9320000  2
     79    214     85     87     4  180.0000771  43.9320000  2
     82    239     86     88     4  180.0000771  43.9320000  2
    104    264    110    112     4  180.0000771  43.9320000  2
    107    289    111    113     4  180.0000771  43.9320000  2
    129    314    135    137     4  180.0000771  43.9320000  2
    132    339    136    138     4  180.0000771  43.9320000  2
    154    364    160    162     4  180.0000771  43.9320000  2
    157    389    161    163     4  180.0000771  43.9320000  2
    179    414    185    187     4  180.0000771  43.9320000  2
    182    439    186    188     4  180.0000771  43.9320000  2
    204    464    210    212     4  180.0000771  43.9320000  2
    207    489    211    213     4  180.0000771  43.9320000  2
    229    514    235    237     4  180.0000771  43.9320000  2
    232    539    236    238     4  180.0000771  43.9320000  2
    254    564    260    262     4  180.0000771  43.9320000  2
    257    589    261    263     4  180.0000771  43.9320000  2
    279    614    285    287     4  180.0000771  43.9320000  2
    282    639    286    288     4  180.0000771  43.9320000  2
    304    664    310    312     4  180.0000771  43.9320000  2
    307    689    311    313     4  180.0000771  43.9320000  2
    329    714    335    337     4  180.0000771  43.9320000  2
    332    739    336    338     4  180.0000771  43.9320000  2
    354    764    360    362     4  180.0000771  43.9320000  2
    357    789    361    363     4  180.0000771  43.9320000  2
    379    814    385    387     4  180.0000771  43.9320000  2
    382    839    386    388     4  180.0000771  43.9320000  2
    404    864    410    412     4  180.0000771  43.9320000  2
    407    889    411    413     4  180.0000771  43.9320000  2
    429    914    435    437     4  180.0000771  43.9320000  2
    432    939    436    438     4  180.0000771  43.9320000  2
    454    964    460    462     4  180.0000771  43.9320000  2
    457    989    461    463     4  180.0000771  43.9320000  2
    479   1014    485    487     4  180.0000771  43.9320000  2
    482   1039    486    488     4  180.0000771  43.9320000  2
    504   1064    510    512     4  180.0000771  43.9320000  2
    507   1089    511    513     4  180.0000771  43.9320000  2
    529   1114    535    537     4  180.0000771  43.9320000  2
    532   1139    536    538     4  180.0000771  43.9320000  2
    554   1164    560    562     4  180.0000771  43.9320000  2
    557   1189    561    563     4  180.0000771  43.9320000  2
    579   1214    585    587     4  180.0000771  43.9320000  2
    582   1239    586    588     4  180.0000771  43.9320000  2
    604   1264    610    612     4  180.0000771  43.9320000  2
    607   1289    611    613     4  180.0000771  43.9320000  2
    629   1314    635    637     4  180.0000771  43.9320000  2
    632   1339    636    638     4  180.0000771  43.9320000  2
    654   1364    660    662     4  180.0000771  43.9320000  2
    657   1389    661    663     4  180.0000771  43.9320000  2
    679   1414    685    687     4  180.0000771  43.9320000  2
    682   1439    686    688     4  180.0000771  43.9320000  2
    704   1464    710    712     4  180.0000771  43.9320000  2
    707   1489    711    713     4  180.0000771  43.9320000  2
    729   1514    735    737     4  180.0000771  43.9320000  2
    732   1539    736    738     4  180.0000771  43.9320000  2
    754   1541    760    762     4  180.0000771  43.9320000  2
    757   1614    761    763     4  180.0000771  43.9320000  2
    779   1687    785    787     4  180.0000771  43.9320000  2
    782   1760    786    788     4  180.0000771  43.9320000  2
    804   1833    810    812     4  180.0000771  43.9320000  2
    807   1906    811    813     4  180.0000771  43.9320000  2
    829   1979    835    837     4  180.0000771  43.9320000  2
    832   2052    836    838     4  180.0000771  43.9320000  2
    854   2125    860    862     4  180.0000771  43.9320000  2
    857   2198    861    863     4  180.0000771  43.9320000  2
    879   2271    885    887     4  180.0000771  43.9320000  2
    882   2344    886    888     4  180.0000771  43.9320000  2
    904   2417    910    912     4  180.0000771  43.9320000  2
    907   2490    911    913     4  180.0000771  43.9320000  2
    929   2563    935    937     4  180.0000771  43.9320000  2
    932   2636    936    938     4  180.0000771  43.9320000  2
    954   2709    960    962     4  180.0000771  43.9320000  2
    957   2782    961    963     4  180.0000771  43.9320000  2
    979   2855    985    987     4  180.0000771  43.9320000  2
    982   2928    986    988     4  180.0000771  43.9320000  2
   1004   3001   1010   1012     4  180.0000771  43.9320000  2
   1007   3074   1011   1013     4  180.0000771  43.9320000  2
   1029   3147   1035   1037     4  180.0000771  43.9320000  2
   1032   3220   1036   1038     4  180.0000771  43.9320000  2
   1054   3293   1060   1062     4  180.0000771  43.9320000  2
   1057   3366   1061   1063     4  180.0000771  43.9320000  2
   1079   3439   1085   1087     4  180.0000771  43.9320000  2
   1082   3512   1086   1088     4  180.0000771  43.9320000  2
   1104   3585   1110   1112     4  180.0000771  43.9320000  2
   1107   3658   1111   1113     4  180.0000771  43.9320000  2
   1129   3731   1135   1137     4  180.0000771  43.9320000  2
   1132   3804   1136   1138     4  180.0000771  43.9320000  2
   1154   3877   1160   1162     4  180.0000771  43.9320000  2
   1157   3950   1161   1163     4  180.0000771  43.9320000  2
   1179   4023   1185   1187     4  180.0000771  43.9320000  2
   1182   4096   1186   1188     4  180.0000771  43.9320000  2
   1204   4169   1210   1212     4  180.0000771  43.9320000  2
   1207   4242   1211   1213     4  180.0000771  43.9320000  2
   1229   4315   1235   1237     4  180.0000771  43.9320000  2
   1232   4388   1236   1238     4  180.0000771  43.9320000  2
   1254   4461   1260   1262     4  180.0000771  43.9320000  2
   1257   4534   1261   1263     4  180.0000771  43.9320000  2
   1279   4607   1285   1287     4  180.0000771  43.9320000  2
   1282   4680   1286   1288     4  180.0000771  43.9320000  2
   1304   4753   1310   1312     4  180.0000771  43.9320000  2
   1307   4826   1311   1313     4  180.0000771  43.9320000  2
   1329   4899   1335   1337     4  180.0000771  43.9320000  2
   1332   4972   1336   1338     4  180.0000771  43.9320000  2
   1354   5045   1360   1362     4  180.0000771  43.9320000  2
   1357   5118   1361   1363     4  180.0000771  43.9320000  2
   1379   5191   1385   1387     4  180.0000771  43.9320000  2
   1382   5264   1386   1388     4  180.0000771  43.9320000  2
   1404   5337   1410   1412     4  180.0000771  43.9320000  2
   1407   5410   1411   1413     4  180.0000771  43.9320000  2
   1429   5483   1435   1437     4  180.0000771  43.9320000  2
   1432   5556   1436   1438     4  180.0000771  43.9320000  2
   1454   5629   1460   1462     4  180.0000771  43.9320000  2
   1457   5702   1461   1463     4  180.0000771  43.9320000  2
   1479   5775   1485   1487     4  180.0000771  43.9320000  2
   1482   5848   1486   1488     4  180.0000771  43.9320000  2
   1504   5921   1510   1512     4  180.0000771  43.9320000  2
   1507   5994   1511   1513     4  180.0000771  43.9320000  2
   1529   6067   1535   1537     4  180.0000771  43.9320000  2
   1532   6140   1536   1538     4  180.0000771  43.9320000  2
   1553   1589   1557   1558     4  180.0000771  43.9320000  2
   1561   1613   1564   1565     4  180.0000771  43.9320000  2
   1626   1662   1630   1631     4  180.0000771  43.9320000  2
   1634   1686   1637   1638     4  180.0000771  43.9320000  2
   1699   1735   1703   1704     4  180.0000771  43.9320000  2
   1707   1759   1710   1711     4  180.0000771  43.9320000  2
   1772   1808   1776   1777     4  180.0000771  43.9320000  2
   1780   1832   1783   1784     4  180.0000771  43.9320000  2
   1845   1881   1849   1850     4  180.0000771  43.9320000  2
   1853   1905   1856   1857     4  180.0000771  43.9320000  2
   1918   1954   1922   1923     4  180.0000771  43.9320000  2
   1926   1978   1929   1930     4  180.0000771  43.9320000  2
   1991   2027   1995   1996     4  180.0000771  43.9320000  2
   1999   2051   2002   2003     4  180.0000771  43.9320000  2
   2064   2100   2068   2069     4  180.0000771  43.9320000  2
   2072   2124   2075   2076     4  180.0000771  43.9320000  2
   2137   2173   2141   2142     4  180.0000771  43.9320000  2
   2145   2197   2148   2149     4  180.0000771  43.9320000  2
   2210   2246   2214   2215     4  180.0000771  43.9320000  2
   2218   2270   2221   2222     4  180.0000771  43.9320000  2
   2283   2319   2287   2288     4  180.0000771  43.9320000  2
   2291   2343   2294   2295     4  180.0000771  43.9320000  2
   2356   2392   2360   2361     4  180.0000771  43.9320000  2
   2364   2416   2367   2368     4  180.0000771  43.9320000  2
   2429   2465   2433   2434     4  180.0000771  43.9320000  2
   2437   2489   2440   2441     4  180.0000771  43.9320000  2
   2502   2538   2506   2507     4  180.0000771  43.9320000  2
   2510   2562   2513   2514     4  180.0000771  43.9320000  2
   2575   2611   2579   2580     4  180.0000771  43.9320000  2
   2583   2635   2586   2587     4  180.0000771  43.9320000  2
   2648   2684   2652   2653     4  180.0000771  43.9320000  2
   2656   2708   2659   2660     4  180.0000771  43.9320000  2
   2721   2757   2725   2726     4  180.0000771  43.9320000  2
   2729   2781   2732   2733     4  180.0000771  43.9320000  2
   2794   2830   2798   2799     4  180.0000771  43.9320000  2
   2802   2854   2805   2806     4  180.0000771  43.9320000  2
   2867   2903   2871   2872     4  180.0000771  43.9320000  2
   2875   2927   2878   2879     4  180.0000771  43.9320000  2
   2940   2976   2944   2945     4  180.0000771  43.9320000  2
   2948   3000   2951   2952     4  180.0000771  43.9320000  2
   3013   3049   3017   3018     4  180.0000771  43.9320000  2
   3021   3073   3024   3025     4  180.0000771  43.9320000  2
   3086   3122   3090   3091     4  180.0000771  43.9320000  2
   3094   3146   3097   3098     4  180.0000771  43.9320000  2
   3159   3195   3163   3164     4  180.0000771  43.9320000  2
   3167   3219   3170   3171     4  180.0000771  43.9320000  2
   3232   3268   3236   3237     4  180.0000771  43.9320000  2
   3240   3292   3243   3244     4  180.0000771  43.9320000  2
   3305   3341   3309   3310     4  180.0000771  43.9320000  2
   3313   3365   3316   3317     4  180.0000771  43.9320000  2
   3378   3414   3382   3383     4  180.0000771  43.9320000  2
   3386   3438   3389   3390     4  180.0000771  43.9320000  2
   3451   3487   3455   3456     4  180.0000771  43.9320000  2
   3459   3511   3462   3463     4  180.0000771  43.9320000  2
   3524   3560   3528   3529     4  180.0000771  43.9320000  2
   3532   3584   3535   3536     4  180.0000771  43.9320000  2
   3597   3633   3601   3602     4  180.0000771  43.9320000  2
   3605   3657   3608   3609     4  180.0000771  43.9320000  2
   3670   3706   3674   3675     4  180.0000771  43.9320000  2
   3678   3730   3681   3682     4  180.0000771  43.9320000  2
   3743   3779   3747   3748     4  180.0000771  43.9320000  2
   3751   3803   3754   3755     4  180.0000771  43.9320000  2
   3816   3852   3820   3821     4  180.0000771  43.9320000  2
   3824   3876   3827   3828     4  180.0000771  43.9320000  2
   3889   3925   3893   3894     4  180.0000771  43.9320000  2
   3897   3949   3900   3901     4  180.0000771  43.9320000  2
   3962   3998   3966   3967     4  180.0000771  43.9320000  2
   3970   4022   3973   3974     4  180.0000771  43.9320000  2
   4035   4071   4039   4040     4  180.0000771  43.9320000  2
   4043   4095   4046   4047     4  180.0000771  43.9320000  2
   4108   4144   4112   4113     4  180.0000771  43.9320000  2
   4116   4168   4119   4120     4  180.0000771  43.9320000  2
   4181   4217   4185   4186     4  180.0000771  43.9320000  2
   4189   4241   4192   4193     4  180.0000771  43.9320000  2
   4254   4290   4258   4259     4  180.0000771  43.9320000  2
   4262   4314   4265   4266     4  180.0000771  43.9320000  2
   4327   4363   4331   4332     4  180.0000771  43.9320000  2
   4335   4387   4338   4339     4  180.0000771  43.9320000  2
   4400   4436   4404   4405     4  180.0000771  43.9320000  2
   4408   4460   4411   4412     4  180.0000771  43.9320000  2
   4473   4509   4477   4478     4  180.0000771  43.9320000  2
   4481   4533   4484   4485     4  180.0000771  43.9320000  2
   4546   4582   4550   4551     4  180.0000771  43.9320000  2
   4554   4606   4557   4558     4  180.0000771  43.9320000  2
   4619   4655   4623   4624     4  180.0000771  43.9320000  2
   4627   4679   4630   4631     4  180.0000771  43.9320000  2
   4692   4728   4696   4697     4  180.0000771  43.9320000  2
   4700   4752   4703   4704     4  180.0000771  43.9320000  2
   4765   4801   4769   4770     4  180.0000771  43.9320000  2
   4773   4825   4776   4777     4  180.0000771  43.9320000  2
   4838   4874   4842   4843     4  180.0000771  43.9320000  2
   4846   4898   4849   4850     4  180.0000771  43.9320000  2
   4911   4947   4915   4916     4  180.0000771  43.9320000  2
   4919   4971   4922   4923     4  180.0000771  43.9320000  2
   4984   5020   4988   4989     4  180.0000771  43.9320000  2
   4992   5044   4995   4996     4  180.0000771  43.9320000  2
   5057   5093   5061   5062     4  180.0000771  43.9320000  2
   5065   5117   5068   5069     4  180.0000771  43.9320000  2
   5130   5166   5134   5135     4  180.0000771  43.9320000  2
   5138   5190   5141   5142     4  180.0000771  43.9320000  2
   5203   5239   5207   5208     4  180.0000771  43.9320000  2
   5211   5263   5214   5215     4  180.0000771  43.9320000  2
   5276   5312   5280   5281     4  180.0000771  43.9320000  2
   5284   5336   5287   5288     4  180.0000771  43.9320000  2
   5349   5385   5353   5354     4  180.0000771  43.9320000  2
   5357   5409   5360   5361     4  180.0000771  43.9320000  2
   5422   5458   5426   5427     4  180.0000771  43.9320000  2
   5430   5482   5433   5434     4  180.0000771  43.9320000  2
   5495   5531   5499   5500     4  180.0000771  43.9320000  2
   5503   5555   5506   5507     4  180.0000771  43.9320000  2
   5568   5604   5572   5573     4  180.0000771  43.9320000  2
   5576   5628   5579   5580     4  180.0000771  43.9320000  2
   5641   5677   5645   5646     4  180.0000771  43.9320000  2
   5649   5701   5652   5653     4  180.0000771  43.9320000  2
   5714   5750   5718   5719     4  180.0000771  43.9320000  2
   5722   5774   5725   5726     4  180.0000771  43.9320000  2
   5787   5823   5791   5792     4  180.0000771  43.9320000  2
   5795   5847   5798   5799     4  180.0000771  43.9320000  2
   5860   5896   5864   5865     4  180.0000771  43.9320000  2
   5868   5920   5871   5872     4  180.0000771  43.9320000  2
   5933   5969   5937   5938     4  180.0000771  43.9320000  2
   5941   5993   5944   5945     4  180.0000771  43.9320000  2
   6006   6042   6010   6011     4  180.0000771  43.9320000  2
   6014   6066   6017   6018     4  180.0000771  43.9320000  2
   6079   6115   6083   6084     4  180.0000771  43.9320000  2
   6087   6139   6090   6091     4  180.0000771  43.9320000  2
   6152   6188   6156   6157     4  180.0000771  43.9320000  2
   6160   6212   6163   6164     4  180.0000771  43.9320000  2
      1      8      9     10     1  0.0000000  1.2552000  3
      1      8      9     11     1  0.0000000  1.2552000  3
      1      8     12     13     1  0.0000000  1.2552000  3
      1      8     12     14     1  0.0000000  1.2552000  3
      2      1      4      7     1  0.0000000  0.6508444  3
      2      1      4      5     1  0.0000000  0.6508444  3
      2      1      4      6     1  0.0000000  0.6508444  3
      2      1      8      9     1  0.0000000  1.2552000  3
      2      1      8     12     1  0.0000000  1.2552000  3
      3      1      4      7     1  0.0000000  0.6508444  3
      3      1      4      5     1  0.0000000  0.6508444  3
      3      1      4      6     1  0.0000000  0.6508444  3
      3      1      8      9     1  0.0000000  1.2552000  3
      3      1      8     12     1  0.0000000  1.2552000  3
      4      7     15     16     1  0.0000000  1.2552000  3
      4      7     15     17     1  0.0000000  1.2552000  3
      4      7     18     19     1  0.0000000  1.2552000  3
      4      7     18     20     1  0.0000000  1.2552000  3
      8      1      4      5     1  0.0000000  0.6508444  3
      5      4      7     15     1  0.0000000  1.2552000  3
      5      4      7     18     1  0.0000000  1.2552000  3
      8      1      4      6     1  0.0000000  0.6508444  3
      6      4      7     15     1  0.0000000  1.2552000  3
      6      4      7     18     1  0.0000000  1.2552000  3
      7     15     21     22     1  0.0000000  0.6508444  3
      7     15     21     23     1  0.0000000  0.6508444  3
      7     18     24     25     1  0.0000000  0.6508444  3
      7     18     24     26     1  0.0000000  0.6508444  3
      8      9     30     31     1  0.0000000  0.6508444  3
      8      9     30     32     1  0.0000000  0.6508444  3
      8     12     27     28     1  0.0000000  0.6508444  3
      8     12     27     29     1  0.0000000  0.6508444  3
      9      8     12     13     1  0.0000000  1.2552000  3
      9      8     12     14     1  0.0000000  1.2552000  3
     10      9      8     12     1  0.0000000  1.2552000  3
     10      9     30     34     1  0.0000000  0.6508444  3
     10      9     30     31     1  0.0000000  0.6508444  3
     10      9     30     32     1  0.0000000  0.6508444  3
     11      9      8     12     1  0.0000000  1.2552000  3
     11      9     30     34     1  0.0000000  0.6508444  3
     11      9     30     31     1  0.0000000  0.6508444  3
     11      9     30     32     1  0.0000000  0.6508444  3
     13     12     27     33     1  0.0000000  0.6508444  3
     13     12     27     28     1  0.0000000  0.6508444  3
     13     12     27     29     1  0.0000000  0.6508444  3
     14     12     27     33     1  0.0000000  0.6508444  3
     14     12     27     28     1  0.0000000  0.6508444  3
     14     12     27     29     1  0.0000000  0.6508444  3
     15      7     18     19     1  0.0000000  1.2552000  3
     15      7     18     20     1  0.0000000  1.2552000  3
     16     15      7     18     1  0.0000000  1.2552000  3
     16     15     21     35     1  0.0000000  0.6508444  3
     16     15     21     22     1  0.0000000  0.6508444  3
     16     15     21     23     1  0.0000000  0.6508444  3
     17     15      7     18     1  0.0000000  1.2552000  3
     17     15     21     35     1  0.0000000  0.6508444  3
     17     15     21     22     1  0.0000000  0.6508444  3
     17     15     21     23     1  0.0000000  0.6508444  3
     19     18     24     36     1  0.0000000  0.6508444  3
     19     18     24     25     1  0.0000000  0.6508444  3
     19     18     24     26     1  0.0000000  0.6508444  3
     20     18     24     36     1  0.0000000  0.6508444  3
     20     18     24     25     1  0.0000000  0.6508444  3
     20     18     24     26     1  0.0000000  0.6508444  3
     21     35    114    115     1  180.0000771  10.4600000  2
     22     21     35     38     1  0.0000000  3.3472000  1
     22     21     35     38     1  0.0000000  0.0000000  2
     22     21     35     38     1  180.0000771  0.3347200  3
     22     21     35    114     1  180.0000771  0.0000000  2
     23     21     35     38     1  0.0000000  3.3472000  1
     23     21     35     38     1  0.0000000  0.0000000  2
     23     21     35     38     1  180.0000771  0.3347200  3
     23     21     35    114     1  180.0000771  0.0000000  2
     24     36    139    140     1  180.0000771  10.4600000  2
     25     24     36     39     1  0.0000000  3.3472000  1
     25     24     36     39     1  0.0000000  0.0000000  2
     25     24     36     39     1  180.0000771  0.3347200  3
     25     24     36    139     1  180.0000771  0.0000000  2
     26     24     36     39     1  0.0000000  3.3472000  1
     26     24     36     39     1  0.0000000  0.0000000  2
     26     24     36     39     1  180.0000771  0.3347200  3
     26     24     36    139     1  180.0000771  0.0000000  2
     27     33     64     65     1  180.0000771  10.4600000  2
     28     27     33     37     1  0.0000000  3.3472000  1
     28     27     33     37     1  0.0000000  0.0000000  2
     28     27     33     37     1  180.0000771  0.3347200  3
     28     27     33     64     1  180.0000771  0.0000000  2
     29     27     33     37     1  0.0000000  3.3472000  1
     29     27     33     37     1  0.0000000  0.0000000  2
     29     27     33     37     1  180.0000771  0.3347200  3
     29     27     33     64     1  180.0000771  0.0000000  2
     30     34     89     90     1  180.0000771  10.4600000  2
     31     30     34     40     1  0.0000000  3.3472000  1
     31     30     34     40     1  0.0000000  0.0000000  2
     31     30     34     40     1  180.0000771  0.3347200  3
     31     30     34     89     1  180.0000771  0.0000000  2
     32     30     34     40     1  0.0000000  3.3472000  1
     32     30     34     40     1  0.0000000  0.0000000  2
     32     30     34     40     1  180.0000771  0.3347200  3
     32     30     34     89     1  180.0000771  0.0000000  2
     33     64     44     45     1  0.0000000  0.0000000  2
     33     64     44     46     1  0.0000000  0.0000000  2
     34     89     69     70     1  0.0000000  0.0000000  2
     34     89     69     71     1  0.0000000  0.0000000  2
     35    114     94     95     1  0.0000000  0.0000000  2
     35    114     94     96     1  0.0000000  0.0000000  2
     36    139    119    120     1  0.0000000  0.0000000  2
     36    139    119    121     1  0.0000000  0.0000000  2
     37     33     64     65     1  0.0000000  8.3680000  1
     37     33     64     65     1  180.0000771  10.4600000  2
     38     35    114    115     1  0.0000000  8.3680000  1
     38     35    114    115     1  180.0000771  10.4600000  2
     39     36    139    140     1  0.0000000  8.3680000  1
     39     36    139    140     1  180.0000771  10.4600000  2
     40     34     89     90     1  0.0000000  8.3680000  1
     40     34     89     90     1  180.0000771  10.4600000  2
     41     44     64     65     1  0.0000000  0.0000000  2
     41     47     48     49     1  0.0000000  1.2552000  3
     41     47     48     50     1  0.0000000  1.2552000  3
     41     47     51     52     1  0.0000000  1.2552000  3
     41     47     51     53     1  0.0000000  1.2552000  3
     42     41     44     64     1  0.0000000  0.6508444  3
     42     41     44     45     1  0.0000000  0.6508444  3
     42     41     44     46     1  0.0000000  0.6508444  3
     42     41     47     48     1  0.0000000  1.2552000  3
     42     41     47     51     1  0.0000000  1.2552000  3
     43     41     44     64     1  0.0000000  0.6508444  3
     43     41     44     45     1  0.0000000  0.6508444  3
     43     41     44     46     1  0.0000000  0.6508444  3
     43     41     47     48     1  0.0000000  1.2552000  3
     43     41     47     51     1  0.0000000  1.2552000  3
     45     44     41     47     1  0.0000000  0.6508444  3
     45     44     64     65     1  0.0000000  0.0000000  2
     46     44     41     47     1  0.0000000  0.6508444  3
     46     44     64     65     1  0.0000000  0.0000000  2
     47     48     57     58     1  0.0000000  0.6508444  3
     47     48     57     59     1  0.0000000  0.6508444  3
     47     51     54     55     1  0.0000000  0.6508444  3
     47     51     54     56     1  0.0000000  0.6508444  3
     48     47     51     52     1  0.0000000  1.2552000  3
     48     47     51     53     1  0.0000000  1.2552000  3
     49     48     47     51     1  0.0000000  1.2552000  3
     49     48     57     61     1  0.0000000  0.6508444  3
     49     48     57     58     1  0.0000000  0.6508444  3
     49     48     57     59     1  0.0000000  0.6508444  3
     50     48     47     51     1  0.0000000  1.2552000  3
     50     48     57     61     1  0.0000000  0.6508444  3
     50     48     57     58     1  0.0000000  0.6508444  3
     50     48     57     59     1  0.0000000  0.6508444  3
     52     51     54     60     1  0.0000000  0.6508444  3
     52     51     54     55     1  0.0000000  0.6508444  3
     52     51     54     56     1  0.0000000  0.6508444  3
     53     51     54     60     1  0.0000000  0.6508444  3
     53     51     54     55     1  0.0000000  0.6508444  3
     53     51     54     56     1  0.0000000  0.6508444  3
     54     60    164    165     1  180.0000771  10.4600000  2
     55     54     60     62     1  0.0000000  3.3472000  1
     55     54     60     62     1  0.0000000  0.0000000  2
     55     54     60     62     1  180.0000771  0.3347200  3
     55     54     60    164     1  180.0000771  0.0000000  2
     56     54     60     62     1  0.0000000  3.3472000  1
     56     54     60     62     1  0.0000000  0.0000000  2
     56     54     60     62     1  180.0000771  0.3347200  3
     56     54     60    164     1  180.0000771  0.0000000  2
     57     61    189    190     1  180.0000771  10.4600000  2
     58     57     61     63     1  0.0000000  3.3472000  1
     58     57     61     63     1  0.0000000  0.0000000  2
     58     57     61     63     1  180.0000771  0.3347200  3
     58     57     61    189     1  180.0000771  0.0000000  2
     59     57     61     63     1  0.0000000  3.3472000  1
     59     57     61     63     1  0.0000000  0.0000000  2
     59     57     61     63     1  180.0000771  0.3347200  3
     59     57     61    189     1  180.0000771  0.0000000  2
     60    164    144    145     1  0.0000000  0.0000000  2
     60    164    144    146     1  0.0000000  0.0000000  2
     61    189    169    170     1  0.0000000  0.0000000  2
     61    189    169    171     1  0.0000000  0.0000000  2
     62     60    164    165     1  0.0000000  8.3680000  1
     62     60    164    165     1  180.0000771  10.4600000  2
     63     61    189    190     1  0.0000000  8.3680000  1
     63     61    189    190     1  180.0000771  10.4600000  2
     66     69     89     90     1  0.0000000  0.0000000  2
     66     72     73     74     1  0.0000000  1.2552000  3
     66     72     73     75     1  0.0000000  1.2552000  3
     66     72     76     77     1  0.0000000  1.2552000  3
     66     72     76     78     1  0.0000000  1.2552000  3
     67     66     69     89     1  0.0000000  0.6508444  3
     67     66     69     70     1  0.0000000  0.6508444  3
     67     66     69     71     1  0.0000000  0.6508444  3
     67     66     72     73     1  0.0000000  1.2552000  3
     67     66     72     76     1  0.0000000  1.2552000  3
     68     66     69     89     1  0.0000000  0.6508444  3
     68     66     69     70     1  0.0000000  0.6508444  3
     68     66     69     71     1  0.0000000  0.6508444  3
     68     66     72     73     1  0.0000000  1.2552000  3
     68     66     72     76     1  0.0000000  1.2552000  3
     70     69     66     72     1  0.0000000  0.6508444  3
     70     69     89     90     1  0.0000000  0.0000000  2
     71     69     66     72     1  0.0000000  0.6508444  3
     71     69     89     90     1  0.0000000  0.0000000  2
     72     73     82     83     1  0.0000000  0.6508444  3
     72     73     82     84     1  0.0000000  0.6508444  3
     72     76     79     80     1  0.0000000  0.6508444  3
     72     76     79     81     1  0.0000000  0.6508444  3
     73     72     76     77     1  0.0000000  1.2552000  3
     73     72     76     78     1  0.0000000  1.2552000  3
     74     73     72     76     1  0.0000000  1.2552000  3
     74     73     82     86     1  0.0000000  0.6508444  3
     74     73     82     83     1  0.0000000  0.6508444  3
     74     73     82     84     1  0.0000000  0.6508444  3
     75     73     72     76     1  0.0000000  1.2552000  3
     75     73     82     86     1  0.0000000  0.6508444  3
     75     73     82     83     1  0.0000000  0.6508444  3
     75     73     82     84     1  0.0000000  0.6508444  3
     77     76     79     85     1  0.0000000  0.6508444  3
     77     76     79     80     1  0.0000000  0.6508444  3
     77     76     79     81     1  0.0000000  0.6508444  3
     78     76     79     85     1  0.0000000  0.6508444  3
     78     76     79     80     1  0.0000000  0.6508444  3
     78     76     79     81     1  0.0000000  0.6508444  3
     79     85    214    215     1  180.0000771  10.4600000  2
     80     79     85     87     1  0.0000000  3.3472000  1
     80     79     85     87     1  0.0000000  0.0000000  2
     80     79     85     87     1  180.0000771  0.3347200  3
     80     79     85    214     1  180.0000771  0.0000000  2
     81     79     85     87     1  0.0000000  3.3472000  1
     81     79     85     87     1  0.0000000  0.0000000  2
     81     79     85     87     1  180.0000771  0.3347200  3
     81     79     85    214     1  180.0000771  0.0000000  2
     82     86    239    240     1  180.0000771  10.4600000  2
     83     82     86     88     1  0.0000000  3.3472000  1
     83     82     86     88     1  0.0000000  0.0000000  2
     83     82     86     88     1  180.0000771  0.3347200  3
     83     82     86    239     1  180.0000771  0.0000000  2
     84     82     86     88     1  0.0000000  3.3472000  1
     84     82     86     88     1  0.0000000  0.0000000  2
     84     82     86     88     1  180.0000771  0.3347200  3
     84     82     86    239     1  180.0000771  0.0000000  2
     85    214    194    195     1  0.0000000  0.0000000  2
     85    214    194    196     1  0.0000000  0.0000000  2
     86    239    219    220     1  0.0000000  0.0000000  2
     86    239    219    221     1  0.0000000  0.0000000  2
     87     85    214    215     1  0.0000000  8.3680000  1
     87     85    214    215     1  180.0000771  10.4600000  2
     88     86    239    240     1  0.0000000  8.3680000  1
     88     86    239    240     1  180.0000771  10.4600000  2
     91     94    114    115     1  0.0000000  0.0000000  2
     91     97     98     99     1  0.0000000  1.2552000  3
     91     97     98    100     1  0.0000000  1.2552000  3
     91     97    101    102     1  0.0000000  1.2552000  3
     91     97    101    103     1  0.0000000  1.2552000  3
     92     91     94    114     1  0.0000000  0.6508444  3
     92     91     94     95     1  0.0000000  0.6508444  3
     92     91     94     96     1  0.0000000  0.6508444  3
     92     91     97     98     1  0.0000000  1.2552000  3
     92     91     97    101     1  0.0000000  1.2552000  3
     93     91     94    114     1  0.0000000  0.6508444  3
     93     91     94     95     1  0.0000000  0.6508444  3
     93     91     94     96     1  0.0000000  0.6508444  3
     93     91     97     98     1  0.0000000  1.2552000  3
     93     91     97    101     1  0.0000000  1.2552000  3
     95     94     91     97     1  0.0000000  0.6508444  3
     95     94    114    115     1  0.0000000  0.0000000  2
     96     94     91     97     1  0.0000000  0.6508444  3
     96     94    114    115     1  0.0000000  0.0000000  2
     97     98    107    108     1  0.0000000  0.6508444  3
     97     98    107    109     1  0.0000000  0.6508444  3
     97    101    104    105     1  0.0000000  0.6508444  3
     97    101    104    106     1  0.0000000  0.6508444  3
     98     97    101    102     1  0.0000000  1.2552000  3
     98     97    101    103     1  0.0000000  1.2552000  3
     99     98     97    101     1  0.0000000  1.2552000  3
     99     98    107    111     1  0.0000000  0.6508444  3
     99     98    107    108     1  0.0000000  0.6508444  3
     99     98    107    109     1  0.0000000  0.6508444  3
    100     98     97    101     1  0.0000000  1.2552000  3
    100     98    107    111     1  0.0000000  0.6508444  3
    100     98    107    108     1  0.0000000  0.6508444  3
    100     98    107    109     1  0.0000000  0.6508444  3
    102    101    104    110     1  0.0000000  0.6508444  3
    102    101    104    105     1  0.0000000  0.6508444  3
    102    101    104    106     1  0.0000000  0.6508444  3
    103    101    104    110     1  0.0000000  0.6508444  3
    103    101    104    105     1  0.0000000  0.6508444  3
    103    101    104    106     1  0.0000000  0.6508444  3
    104    110    264    265     1  180.0000771  10.4600000  2
    105    104    110    112     1  0.0000000  3.3472000  1
    105    104    110    112     1  0.0000000  0.0000000  2
    105    104    110    112     1  180.0000771  0.3347200  3
    105    104    110    264     1  180.0000771  0.0000000  2
    106    104    110    112     1  0.0000000  3.3472000  1
    106    104    110    112     1  0.0000000  0.0000000  2
    106    104    110    112     1  180.0000771  0.3347200  3
    106    104    110    264     1  180.0000771  0.0000000  2
    107    111    289    290     1  180.0000771  10.4600000  2
    108    107    111    113     1  0.0000000  3.3472000  1
    108    107    111    113     1  0.0000000  0.0000000  2
    108    107    111    113     1  180.0000771  0.3347200  3
    108    107    111    289     1  180.0000771  0.0000000  2
    109    107    111    113     1  0.0000000  3.3472000  1
    109    107    111    113     1  0.0000000  0.0000000  2
    109    107    111    113     1  180.0000771  0.3347200  3
    109    107    111    289     1  180.0000771  0.0000000  2
    110    264    244    245     1  0.0000000  0.0000000  2
    110    264    244    246     1  0.0000000  0.0000000  2
    111    289    269    270     1  0.0000000  0.0000000  2
    111    289    269    271     1  0.0000000  0.0000000  2
    112    110    264    265     1  0.0000000  8.3680000  1
    112    110    264    265     1  180.0000771  10.4600000  2
    113    111    289    290     1  0.0000000  8.3680000  1
    113    111    289    290     1  180.0000771  10.4600000  2
    116    119    139    140     1  0.0000000  0.0000000  2
    116    122    123    124     1  0.0000000  1.2552000  3
    116    122    123    125     1  0.0000000  1.2552000  3
    116    122    126    127     1  0.0000000  1.2552000  3
    116    122    126    128     1  0.0000000  1.2552000  3
    117    116    119    139     1  0.0000000  0.6508444  3
    117    116    119    120     1  0.0000000  0.6508444  3
    117    116    119    121     1  0.0000000  0.6508444  3
    117    116    122    123     1  0.0000000  1.2552000  3
    117    116    122    126     1  0.0000000  1.2552000  3
    118    116    119    139     1  0.0000000  0.6508444  3
    118    116    119    120     1  0.0000000  0.6508444  3
    118    116    119    121     1  0.0000000  0.6508444  3
    118    116    122    123     1  0.0000000  1.2552000  3
    118    116    122    126     1  0.0000000  1.2552000  3
    120    119    116    122     1  0.0000000  0.6508444  3
    120    119    139    140     1  0.0000000  0.0000000  2
    121    119    116    122     1  0.0000000  0.6508444  3
    121    119    139    140     1  0.0000000  0.0000000  2
    122    123    132    133     1  0.0000000  0.6508444  3
    122    123    132    134     1  0.0000000  0.6508444  3
    122    126    129    130     1  0.0000000  0.6508444  3
    122    126    129    131     1  0.0000000  0.6508444  3
    123    122    126    127     1  0.0000000  1.2552000  3
    123    122    126    128     1  0.0000000  1.2552000  3
    124    123    122    126     1  0.0000000  1.2552000  3
    124    123    132    136     1  0.0000000  0.6508444  3
    124    123    132    133     1  0.0000000  0.6508444  3
    124    123    132    134     1  0.0000000  0.6508444  3
    125    123    122    126     1  0.0000000  1.2552000  3
    125    123    132    136     1  0.0000000  0.6508444  3
    125    123    132    133     1  0.0000000  0.6508444  3
    125    123    132    134     1  0.0000000  0.6508444  3
    127    126    129    135     1  0.0000000  0.6508444  3
    127    126    129    130     1  0.0000000  0.6508444  3
    127    126    129    131     1  0.0000000  0.6508444  3
    128    126    129    135     1  0.0000000  0.6508444  3
    128    126    129    130     1  0.0000000  0.6508444  3
    128    126    129    131     1  0.0000000  0.6508444  3
    129    135    314    315     1  180.0000771  10.4600000  2
    130    129    135    137     1  0.0000000  3.3472000  1
    130    129    135    137     1  0.0000000  0.0000000  2
    130    129    135    137     1  180.0000771  0.3347200  3
    130    129    135    314     1  180.0000771  0.0000000  2
    131    129    135    137     1  0.0000000  3.3472000  1
    131    129    135    137     1  0.0000000  0.0000000  2
    131    129    135    137     1  180.0000771  0.3347200  3
    131    129    135    314     1  180.0000771  0.0000000  2
    132    136    339    340     1  180.0000771  10.4600000  2
    133    132    136    138     1  0.0000000  3.3472000  1
    133    132    136    138     1  0.0000000  0.0000000  2
    133    132    136    138     1  180.0000771  0.3347200  3
    133    132    136    339     1  180.0000771  0.0000000  2
    134    132    136    138     1  0.0000000  3.3472000  1
    134    132    136    138     1  0.0000000  0.0000000  2
    134    132    136    138     1  180.0000771  0.3347200  3
    134    132    136    339     1  180.0000771  0.0000000  2
    135    314    294    295     1  0.0000000  0.0000000  2
    135    314    294    296     1  0.0000000  0.0000000  2
    136    339    319    320     1  0.0000000  0.0000000  2
    136    339    319    321     1  0.0000000  0.0000000  2
    137    135    314    315     1  0.0000000  8.3680000  1
    137    135    314    315     1  180.0000771  10.4600000  2
    138    136    339    340     1  0.0000000  8.3680000  1
    138    136    339    340     1  180.0000771  10.4600000  2
    141    144    164    165     1  0.0000000  0.0000000  2
    141    147    148    149     1  0.0000000  1.2552000  3
    141    147    148    150     1  0.0000000  1.2552000  3
    141    147    151    152     1  0.0000000  1.2552000  3
    141    147    151    153     1  0.0000000  1.2552000  3
    142    141    144    164     1  0.0000000  0.6508444  3
    142    141    144    145     1  0.0000000  0.6508444  3
    142    141    144    146     1  0.0000000  0.6508444  3
    142    141    147    148     1  0.0000000  1.2552000  3
    142    141    147    151     1  0.0000000  1.2552000  3
    143    141    144    164     1  0.0000000  0.6508444  3
    143    141    144    145     1  0.0000000  0.6508444  3
    143    141    144    146     1  0.0000000  0.6508444  3
    143    141    147    148     1  0.0000000  1.2552000  3
    143    141    147    151     1  0.0000000  1.2552000  3
    145    144    141    147     1  0.0000000  0.6508444  3
    145    144    164    165     1  0.0000000  0.0000000  2
    146    144    141    147     1  0.0000000  0.6508444  3
    146    144    164    165     1  0.0000000  0.0000000  2
    147    148    157    158     1  0.0000000  0.6508444  3
    147    148    157    159     1  0.0000000  0.6508444  3
    147    151    154    155     1  0.0000000  0.6508444  3
    147    151    154    156     1  0.0000000  0.6508444  3
    148    147    151    152     1  0.0000000  1.2552000  3
    148    147    151    153     1  0.0000000  1.2552000  3
    149    148    147    151     1  0.0000000  1.2552000  3
    149    148    157    161     1  0.0000000  0.6508444  3
    149    148    157    158     1  0.0000000  0.6508444  3
    149    148    157    159     1  0.0000000  0.6508444  3
    150    148    147    151     1  0.0000000  1.2552000  3
    150    148    157    161     1  0.0000000  0.6508444  3
    150    148    157    158     1  0.0000000  0.6508444  3
    150    148    157    159     1  0.0000000  0.6508444  3
    152    151    154    160     1  0.0000000  0.6508444  3
    152    151    154    155     1  0.0000000  0.6508444  3
    152    151    154    156     1  0.0000000  0.6508444  3
    153    151    154    160     1  0.0000000  0.6508444  3
    153    151    154    155     1  0.0000000  0.6508444  3
    153    151    154    156     1  0.0000000  0.6508444  3
    154    160    364    365     1  180.0000771  10.4600000  2
    155    154    160    162     1  0.0000000  3.3472000  1
    155    154    160    162     1  0.0000000  0.0000000  2
    155    154    160    162     1  180.0000771  0.3347200  3
    155    154    160    364     1  180.0000771  0.0000000  2
    156    154    160    162     1  0.0000000  3.3472000  1
    156    154    160    162     1  0.0000000  0.0000000  2
    156    154    160    162     1  180.0000771  0.3347200  3
    156    154    160    364     1  180.0000771  0.0000000  2
    157    161    389    390     1  180.0000771  10.4600000  2
    158    157    161    163     1  0.0000000  3.3472000  1
    158    157    161    163     1  0.0000000  0.0000000  2
    158    157    161    163     1  180.0000771  0.3347200  3
    158    157    161    389     1  180.0000771  0.0000000  2
    159    157    161    163     1  0.0000000  3.3472000  1
    159    157    161    163     1  0.0000000  0.0000000  2
    159    157    161    163     1  180.0000771  0.3347200  3
    159    157    161    389     1  180.0000771  0.0000000  2
    160    364    344    345     1  0.0000000  0.0000000  2
    160    364    344    346     1  0.0000000  0.0000000  2
    161    389    369    370     1  0.0000000  0.0000000  2
    161    389    369    371     1  0.0000000  0.0000000  2
    162    160    364    365     1  0.0000000  8.3680000  1
    162    160    364    365     1  180.0000771  10.4600000  2
    163    161    389    390     1  0.0000000  8.3680000  1
    163    161    389    390     1  180.0000771  10.4600000  2
    166    169    189    190     1  0.0000000  0.0000000  2
    166    172    173    174     1  0.0000000  1.2552000  3
    166    172    173    175     1  0.0000000  1.2552000  3
    166    172    176    177     1  0.0000000  1.2552000  3
    166    172    176    178     1  0.0000000  1.2552000  3
    167    166    169    189     1  0.0000000  0.6508444  3
    167    166    169    170     1  0.0000000  0.6508444  3
    167    166    169    171     1  0.0000000  0.6508444  3
    167    166    172    173     1  0.0000000  1.2552000  3
    167    166    172    176     1  0.0000000  1.2552000  3
    168    166    169    189     1  0.0000000  0.6508444  3
    168    166    169    170     1  0.0000000  0.6508444  3
    168    166    169    171     1  0.0000000  0.6508444  3
    168    166    172    173     1  0.0000000  1.2552000  3
    168    166    172    176     1  0.0000000  1.2552000  3
    170    169    166    172     1  0.0000000  0.6508444  3
    170    169    189    190     1  0.0000000  0.0000000  2
    171    169    166    172     1  0.0000000  0.6508444  3
    171    169    189    190     1  0.0000000  0.0000000  2
    172    173    182    183     1  0.0000000  0.6508444  3
    172    173    182    184     1  0.0000000  0.6508444  3
    172    176    179    180     1  0.0000000  0.6508444  3
    172    176    179    181     1  0.0000000  0.6508444  3
    173    172    176    177     1  0.0000000  1.2552000  3
    173    172    176    178     1  0.0000000  1.2552000  3
    174    173    172    176     1  0.0000000  1.2552000  3
    174    173    182    186     1  0.0000000  0.6508444  3
    174    173    182    183     1  0.0000000  0.6508444  3
    174    173    182    184     1  0.0000000  0.6508444  3
    175    173    172    176     1  0.0000000  1.2552000  3
    175    173    182    186     1  0.0000000  0.6508444  3
    175    173    182    183     1  0.0000000  0.6508444  3
    175    173    182    184     1  0.0000000  0.6508444  3
    177    176    179    185     1  0.0000000  0.6508444  3
    177    176    179    180     1  0.0000000  0.6508444  3
    177    176    179    181     1  0.0000000  0.6508444  3
    178    176    179    185     1  0.0000000  0.6508444  3
    178    176    179    180     1  0.0000000  0.6508444  3
    178    176    179    181     1  0.0000000  0.6508444  3
    179    185    414    415     1  180.0000771  10.4600000  2
    180    179    185    187     1  0.0000000  3.3472000  1
    180    179    185    187     1  0.0000000  0.0000000  2
    180    179    185    187     1  180.0000771  0.3347200  3
    180    179    185    414     1  180.0000771  0.0000000  2
    181    179    185    187     1  0.0000000  3.3472000  1
    181    179    185    187     1  0.0000000  0.0000000  2
    181    179    185    187     1  180.0000771  0.3347200  3
    181    179    185    414     1  180.0000771  0.0000000  2
    182    186    439    440     1  180.0000771  10.4600000  2
    183    182    186    188     1  0.0000000  3.3472000  1
    183    182    186    188     1  0.0000000  0.0000000  2
    183    182    186    188     1  180.0000771  0.3347200  3
    183    182    186    439     1  180.0000771  0.0000000  2
    184    182    186    188     1  0.0000000  3.3472000  1
    184    182    186    188     1  0.0000000  0.0000000  2
    184    182    186    188     1  180.0000771  0.3347200  3
    184    182    186    439     1  180.0000771  0.0000000  2
    185    414    394    395     1  0.0000000  0.0000000  2
    185    414    394    396     1  0.0000000  0.0000000  2
    186    439    419    420     1  0.0000000  0.0000000  2
    186    439    419    421     1  0.0000000  0.0000000  2
    187    185    414    415     1  0.0000000  8.3680000  1
    187    185    414    415     1  180.0000771  10.4600000  2
    188    186    439    440     1  0.0000000  8.3680000  1
    188    186    439    440     1  180.0000771  10.4600000  2
    191    194    214    215     1  0.0000000  0.0000000  2
    191    197    198    199     1  0.0000000  1.2552000  3
    191    197    198    200     1  0.0000000  1.2552000  3
    191    197    201    202     1  0.0000000  1.2552000  3
    191    197    201    203     1  0.0000000  1.2552000  3
    192    191    194    214     1  0.0000000  0.6508444  3
    192    191    194    195     1  0.0000000  0.6508444  3
    192    191    194    196     1  0.0000000  0.6508444  3
    192    191    197    198     1  0.0000000  1.2552000  3
    192    191    197    201     1  0.0000000  1.2552000  3
    193    191    194    214     1  0.0000000  0.6508444  3
    193    191    194    195     1  0.0000000  0.6508444  3
    193    191    194    196     1  0.0000000  0.6508444  3
    193    191    197    198     1  0.0000000  1.2552000  3
    193    191    197    201     1  0.0000000  1.2552000  3
    195    194    191    197     1  0.0000000  0.6508444  3
    195    194    214    215     1  0.0000000  0.0000000  2
    196    194    191    197     1  0.0000000  0.6508444  3
    196    194    214    215     1  0.0000000  0.0000000  2
    197    198    207    208     1  0.0000000  0.6508444  3
    197    198    207    209     1  0.0000000  0.6508444  3
    197    201    204    205     1  0.0000000  0.6508444  3
    197    201    204    206     1  0.0000000  0.6508444  3
    198    197    201    202     1  0.0000000  1.2552000  3
    198    197    201    203     1  0.0000000  1.2552000  3
    199    198    197    201     1  0.0000000  1.2552000  3
    199    198    207    211     1  0.0000000  0.6508444  3
    199    198    207    208     1  0.0000000  0.6508444  3
    199    198    207    209     1  0.0000000  0.6508444  3
    200    198    197    201     1  0.0000000  1.2552000  3
    200    198    207    211     1  0.0000000  0.6508444  3
    200    198    207    208     1  0.0000000  0.6508444  3
    200    198    207    209     1  0.0000000  0.6508444  3
    202    201    204    210     1  0.0000000  0.6508444  3
    202    201    204    205     1  0.0000000  0.6508444  3
    202    201    204    206     1  0.0000000  0.6508444  3
    203    201    204    210     1  0.0000000  0.6508444  3
    203    201    204    205     1  0.0000000  0.6508444  3
    203    201    204    206     1  0.0000000  0.6508444  3
    204    210    464    465     1  180.0000771  10.4600000  2
    205    204    210    212     1  0.0000000  3.3472000  1
    205    204    210    212     1  0.0000000  0.0000000  2
    205    204    210    212     1  180.0000771  0.3347200  3
    205    204    210    464     1  180.0000771  0.0000000  2
    206    204    210    212     1  0.0000000  3.3472000  1
    206    204    210    212     1  0.0000000  0.0000000  2
    206    204    210    212     1  180.0000771  0.3347200  3
    206    204    210    464     1  180.0000771  0.0000000  2
    207    211    489    490     1  180.0000771  10.4600000  2
    208    207    211    213     1  0.0000000  3.3472000  1
    208    207    211    213     1  0.0000000  0.0000000  2
    208    207    211    213     1  180.0000771  0.3347200  3
    208    207    211    489     1  180.0000771  0.0000000  2
    209    207    211    213     1  0.0000000  3.3472000  1
    209    207    211    213     1  0.0000000  0.0000000  2
    209    207    211    213     1  180.0000771  0.3347200  3
    209    207    211    489     1  180.0000771  0.0000000  2
    210    464    444    445     1  0.0000000  0.0000000  2
    210    464    444    446     1  0.0000000  0.0000000  2
    211    489    469    470     1  0.0000000  0.0000000  2
    211    489    469    471     1  0.0000000  0.0000000  2
    212    210    464    465     1  0.0000000  8.3680000  1
    212    210    464    465     1  180.0000771  10.4600000  2
    213    211    489    490     1  0.0000000  8.3680000  1
    213    211    489    490     1  180.0000771  10.4600000  2
    216    219    239    240     1  0.0000000  0.0000000  2
    216    222    223    224     1  0.0000000  1.2552000  3
    216    222    223    225     1  0.0000000  1.2552000  3
    216    222    226    227     1  0.0000000  1.2552000  3
    216    222    226    228     1  0.0000000  1.2552000  3
    217    216    219    239     1  0.0000000  0.6508444  3
    217    216    219    220     1  0.0000000  0.6508444  3
    217    216    219    221     1  0.0000000  0.6508444  3
    217    216    222    223     1  0.0000000  1.2552000  3
    217    216    222    226     1  0.0000000  1.2552000  3
    218    216    219    239     1  0.0000000  0.6508444  3
    218    216    219    220     1  0.0000000  0.6508444  3
    218    216    219    221     1  0.0000000  0.6508444  3
    218    216    222    223     1  0.0000000  1.2552000  3
    218    216    222    226     1  0.0000000  1.2552000  3
    220    219    216    222     1  0.0000000  0.6508444  3
    220    219    239    240     1  0.0000000  0.0000000  2
    221    219    216    222     1  0.0000000  0.6508444  3
    221    219    239    240     1  0.0000000  0.0000000  2
    222    223    232    233     1  0.0000000  0.6508444  3
    222    223    232    234     1  0.0000000  0.6508444  3
    222    226    229    230     1  0.0000000  0.6508444  3
    222    226    229    231     1  0.0000000  0.6508444  3
    223    222    226    227     1  0.0000000  1.2552000  3
    223    222    226    228     1  0.0000000  1.2552000  3
    224    223    222    226     1  0.0000000  1.2552000  3
    224    223    232    236     1  0.0000000  0.6508444  3
    224    223    232    233     1  0.0000000  0.6508444  3
    224    223    232    234     1  0.0000000  0.6508444  3
    225    223    222    226     1  0.0000000  1.2552000  3
    225    223    232    236     1  0.0000000  0.6508444  3
    225    223    232    233     1  0.0000000  0.6508444  3
    225    223    232    234     1  0.0000000  0.6508444  3
    227    226    229    235     1  0.0000000  0.6508444  3
    227    226    229    230     1  0.0000000  0.6508444  3
    227    226    229    231     1  0.0000000  0.6508444  3
    228    226    229    235     1  0.0000000  0.6508444  3
    228    226    229    230     1  0.0000000  0.6508444  3
    228    226    229    231     1  0.0000000  0.6508444  3
    229    235    514    515     1  180.0000771  10.4600000  2
    230    229    235    237     1  0.0000000  3.3472000  1
    230    229    235    237     1  0.0000000  0.0000000  2
    230    229    235    237     1  180.0000771  0.3347200  3
    230    229    235    514     1  180.0000771  0.0000000  2
    231    229    235    237     1  0.0000000  3.3472000  1
    231    229    235    237     1  0.0000000  0.0000000  2
    231    229    235    237     1  180.0000771  0.3347200  3
    231    229    235    514     1  180.0000771  0.0000000  2
    232    236    539    540     1  180.0000771  10.4600000  2
    233    232    236    238     1  0.0000000  3.3472000  1
    233    232    236    238     1  0.0000000  0.0000000  2
    233    232    236    238     1  180.0000771  0.3347200  3
    233    232    236    539     1  180.0000771  0.0000000  2
    234    232    236    238     1  0.0000000  3.3472000  1
    234    232    236    238     1  0.0000000  0.0000000  2
    234    232    236    238     1  180.0000771  0.3347200  3
    234    232    236    539     1  180.0000771  0.0000000  2
    235    514    494    495     1  0.0000000  0.0000000  2
    235    514    494    496     1  0.0000000  0.0000000  2
    236    539    519    520     1  0.0000000  0.0000000  2
    236    539    519    521     1  0.0000000  0.0000000  2
    237    235    514    515     1  0.0000000  8.3680000  1
    237    235    514    515     1  180.0000771  10.4600000  2
    238    236    539    540     1  0.0000000  8.3680000  1
    238    236    539    540     1  180.0000771  10.4600000  2
    241    244    264    265     1  0.0000000  0.0000000  2
    241    247    248    249     1  0.0000000  1.2552000  3
    241    247    248    250     1  0.0000000  1.2552000  3
    241    247    251    252     1  0.0000000  1.2552000  3
    241    247    251    253     1  0.0000000  1.2552000  3
    242    241    244    264     1  0.0000000  0.6508444  3
    242    241    244    245     1  0.0000000  0.6508444  3
    242    241    244    246     1  0.0000000  0.6508444  3
    242    241    247    248     1  0.0000000  1.2552000  3
    242    241    247    251     1  0.0000000  1.2552000  3
    243    241    244    264     1  0.0000000  0.6508444  3
    243    241    244    245     1  0.0000000  0.6508444  3
    243    241    244    246     1  0.0000000  0.6508444  3
    243    241    247    248     1  0.0000000  1.2552000  3
    243    241    247    251     1  0.0000000  1.2552000  3
    245    244    241    247     1  0.0000000  0.6508444  3
    245    244    264    265     1  0.0000000  0.0000000  2
    246    244    241    247     1  0.0000000  0.6508444  3
    246    244    264    265     1  0.0000000  0.0000000  2
    247    248    257    258     1  0.0000000  0.6508444  3
    247    248    257    259     1  0.0000000  0.6508444  3
    247    251    254    255     1  0.0000000  0.6508444  3
    247    251    254    256     1  0.0000000  0.6508444  3
    248    247    251    252     1  0.0000000  1.2552000  3
    248    247    251    253     1  0.0000000  1.2552000  3
    249    248    247    251     1  0.0000000  1.2552000  3
    249    248    257    261     1  0.0000000  0.6508444  3
    249    248    257    258     1  0.0000000  0.6508444  3
    249    248    257    259     1  0.0000000  0.6508444  3
    250    248    247    251     1  0.0000000  1.2552000  3
    250    248    257    261     1  0.0000000  0.6508444  3
    250    248    257    258     1  0.0000000  0.6508444  3
    250    248    257    259     1  0.0000000  0.6508444  3
    252    251    254    260     1  0.0000000  0.6508444  3
    252    251    254    255     1  0.0000000  0.6508444  3
    252    251    254    256     1  0.0000000  0.6508444  3
    253    251    254    260     1  0.0000000  0.6508444  3
    253    251    254    255     1  0.0000000  0.6508444  3
    253    251    254    256     1  0.0000000  0.6508444  3
    254    260    564    565     1  180.0000771  10.4600000  2
    255    254    260    262     1  0.0000000  3.3472000  1
    255    254    260    262     1  0.0000000  0.0000000  2
    255    254    260    262     1  180.0000771  0.3347200  3
    255    254    260    564     1  180.0000771  0.0000000  2
    256    254    260    262     1  0.0000000  3.3472000  1
    256    254    260    262     1  0.0000000  0.0000000  2
    256    254    260    262     1  180.0000771  0.3347200  3
    256    254    260    564     1  180.0000771  0.0000000  2
    257    261    589    590     1  180.0000771  10.4600000  2
    258    257    261    263     1  0.0000000  3.3472000  1
    258    257    261    263     1  0.0000000  0.0000000  2
    258    257    261    263     1  180.0000771  0.3347200  3
    258    257    261    589     1  180.0000771  0.0000000  2
    259    257    261    263     1  0.0000000  3.3472000  1
    259    257    261    263     1  0.0000000  0.0000000  2
    259    257    261    263     1  180.0000771  0.3347200  3
    259    257    261    589     1  180.0000771  0.0000000  2
    260    564    544    545     1  0.0000000  0.0000000  2
    260    564    544    546     1  0.0000000  0.0000000  2
    261    589    569    570     1  0.0000000  0.0000000  2
    261    589    569    571     1  0.0000000  0.0000000  2
    262    260    564    565     1  0.0000000  8.3680000  1
    262    260    564    565     1  180.0000771  10.4600000  2
    263    261    589    590     1  0.0000000  8.3680000  1
    263    261    589    590     1  180.0000771  10.4600000  2
    266    269    289    290     1  0.0000000  0.0000000  2
    266    272    273    274     1  0.0000000  1.2552000  3
    266    272    273    275     1  0.0000000  1.2552000  3
    266    272    276    277     1  0.0000000  1.2552000  3
    266    272    276    278     1  0.0000000  1.2552000  3
    267    266    269    289     1  0.0000000  0.6508444  3
    267    266    269    270     1  0.0000000  0.6508444  3
    267    266    269    271     1  0.0000000  0.6508444  3
    267    266    272    273     1  0.0000000  1.2552000  3
    267    266    272    276     1  0.0000000  1.2552000  3
    268    266    269    289     1  0.0000000  0.6508444  3
    268    266    269    270     1  0.0000000  0.6508444  3
    268    266    269    271     1  0.0000000  0.6508444  3
    268    266    272    273     1  0.0000000  1.2552000  3
    268    266    272    276     1  0.0000000  1.2552000  3
    270    269    266    272     1  0.0000000  0.6508444  3
    270    269    289    290     1  0.0000000  0.0000000  2
    271    269    266    272     1  0.0000000  0.6508444  3
    271    269    289    290     1  0.0000000  0.0000000  2
    272    273    282    283     1  0.0000000  0.6508444  3
    272    273    282    284     1  0.0000000  0.6508444  3
    272    276    279    280     1  0.0000000  0.6508444  3
    272    276    279    281     1  0.0000000  0.6508444  3
    273    272    276    277     1  0.0000000  1.2552000  3
    273    272    276    278     1  0.0000000  1.2552000  3
    274    273    272    276     1  0.0000000  1.2552000  3
    274    273    282    286     1  0.0000000  0.6508444  3
    274    273    282    283     1  0.0000000  0.6508444  3
    274    273    282    284     1  0.0000000  0.6508444  3
    275    273    272    276     1  0.0000000  1.2552000  3
    275    273    282    286     1  0.0000000  0.6508444  3
    275    273    282    283     1  0.0000000  0.6508444  3
    275    273    282    284     1  0.0000000  0.6508444  3
    277    276    279    285     1  0.0000000  0.6508444  3
    277    276    279    280     1  0.0000000  0.6508444  3
    277    276    279    281     1  0.0000000  0.6508444  3
    278    276    279    285     1  0.0000000  0.6508444  3
    278    276    279    280     1  0.0000000  0.6508444  3
    278    276    279    281     1  0.0000000  0.6508444  3
    279    285    614    615     1  180.0000771  10.4600000  2
    280    279    285    287     1  0.0000000  3.3472000  1
    280    279    285    287     1  0.0000000  0.0000000  2
    280    279    285    287     1  180.0000771  0.3347200  3
    280    279    285    614     1  180.0000771  0.0000000  2
    281    279    285    287     1  0.0000000  3.3472000  1
    281    279    285    287     1  0.0000000  0.0000000  2
    281    279    285    287     1  180.0000771  0.3347200  3
    281    279    285    614     1  180.0000771  0.0000000  2
    282    286    639    640     1  180.0000771  10.4600000  2
    283    282    286    288     1  0.0000000  3.3472000  1
    283    282    286    288     1  0.0000000  0.0000000  2
    283    282    286    288     1  180.0000771  0.3347200  3
    283    282    286    639     1  180.0000771  0.0000000  2
    284    282    286    288     1  0.0000000  3.3472000  1
    284    282    286    288     1  0.0000000  0.0000000  2
    284    282    286    288     1  180.0000771  0.3347200  3
    284    282    286    639     1  180.0000771  0.0000000  2
    285    614    594    595     1  0.0000000  0.0000000  2
    285    614    594    596     1  0.0000000  0.0000000  2
    286    639    619    620     1  0.0000000  0.0000000  2
    286    639    619    621     1  0.0000000  0.0000000  2
    287    285    614    615     1  0.0000000  8.3680000  1
    287    285    614    615     1  180.0000771  10.4600000  2
    288    286    639    640     1  0.0000000  8.3680000  1
    288    286    639    640     1  180.0000771  10.4600000  2
    291    294    314    315     1  0.0000000  0.0000000  2
    291    297    298    299     1  0.0000000  1.2552000  3
    291    297    298    300     1  0.0000000  1.2552000  3
    291    297    301    302     1  0.0000000  1.2552000  3
    291    297    301    303     1  0.0000000  1.2552000  3
    292    291    294    314     1  0.0000000  0.6508444  3
    292    291    294    295     1  0.0000000  0.6508444  3
    292    291    294    296     1  0.0000000  0.6508444  3
    292    291    297    298     1  0.0000000  1.2552000  3
    292    291    297    301     1  0.0000000  1.2552000  3
    293    291    294    314     1  0.0000000  0.6508444  3
    293    291    294    295     1  0.0000000  0.6508444  3
    293    291    294    296     1  0.0000000  0.6508444  3
    293    291    297    298     1  0.0000000  1.2552000  3
    293    291    297    301     1  0.0000000  1.2552000  3
    295    294    291    297     1  0.0000000  0.6508444  3
    295    294    314    315     1  0.0000000  0.0000000  2
    296    294    291    297     1  0.0000000  0.6508444  3
    296    294    314    315     1  0.0000000  0.0000000  2
    297    298    307    308     1  0.0000000  0.6508444  3
    297    298    307    309     1  0.0000000  0.6508444  3
    297    301    304    305     1  0.0000000  0.6508444  3
    297    301    304    306     1  0.0000000  0.6508444  3
    298    297    301    302     1  0.0000000  1.2552000  3
    298    297    301    303     1  0.0000000  1.2552000  3
    299    298    297    301     1  0.0000000  1.2552000  3
    299    298    307    311     1  0.0000000  0.6508444  3
    299    298    307    308     1  0.0000000  0.6508444  3
    299    298    307    309     1  0.0000000  0.6508444  3
    300    298    297    301     1  0.0000000  1.2552000  3
    300    298    307    311     1  0.0000000  0.6508444  3
    300    298    307    308     1  0.0000000  0.6508444  3
    300    298    307    309     1  0.0000000  0.6508444  3
    302    301    304    310     1  0.0000000  0.6508444  3
    302    301    304    305     1  0.0000000  0.6508444  3
    302    301    304    306     1  0.0000000  0.6508444  3
    303    301    304    310     1  0.0000000  0.6508444  3
    303    301    304    305     1  0.0000000  0.6508444  3
    303    301    304    306     1  0.0000000  0.6508444  3
    304    310    664    665     1  180.0000771  10.4600000  2
    305    304    310    312     1  0.0000000  3.3472000  1
    305    304    310    312     1  0.0000000  0.0000000  2
    305    304    310    312     1  180.0000771  0.3347200  3
    305    304    310    664     1  180.0000771  0.0000000  2
    306    304    310    312     1  0.0000000  3.3472000  1
    306    304    310    312     1  0.0000000  0.0000000  2
    306    304    310    312     1  180.0000771  0.3347200  3
    306    304    310    664     1  180.0000771  0.0000000  2
    307    311    689    690     1  180.0000771  10.4600000  2
    308    307    311    313     1  0.0000000  3.3472000  1
    308    307    311    313     1  0.0000000  0.0000000  2
    308    307    311    313     1  180.0000771  0.3347200  3
    308    307    311    689     1  180.0000771  0.0000000  2
    309    307    311    313     1  0.0000000  3.3472000  1
    309    307    311    313     1  0.0000000  0.0000000  2
    309    307    311    313     1  180.0000771  0.3347200  3
    309    307    311    689     1  180.0000771  0.0000000  2
    310    664    644    645     1  0.0000000  0.0000000  2
    310    664    644    646     1  0.0000000  0.0000000  2
    311    689    669    670     1  0.0000000  0.0000000  2
    311    689    669    671     1  0.0000000  0.0000000  2
    312    310    664    665     1  0.0000000  8.3680000  1
    312    310    664    665     1  180.0000771  10.4600000  2
    313    311    689    690     1  0.0000000  8.3680000  1
    313    311    689    690     1  180.0000771  10.4600000  2
    316    319    339    340     1  0.0000000  0.0000000  2
    316    322    323    324     1  0.0000000  1.2552000  3
    316    322    323    325     1  0.0000000  1.2552000  3
    316    322    326    327     1  0.0000000  1.2552000  3
    316    322    326    328     1  0.0000000  1.2552000  3
    317    316    319    339     1  0.0000000  0.6508444  3
    317    316    319    320     1  0.0000000  0.6508444  3
    317    316    319    321     1  0.0000000  0.6508444  3
    317    316    322    323     1  0.0000000  1.2552000  3
    317    316    322    326     1  0.0000000  1.2552000  3
    318    316    319    339     1  0.0000000  0.6508444  3
    318    316    319    320     1  0.0000000  0.6508444  3
    318    316    319    321     1  0.0000000  0.6508444  3
    318    316    322    323     1  0.0000000  1.2552000  3
    318    316    322    326     1  0.0000000  1.2552000  3
    320    319    316    322     1  0.0000000  0.6508444  3
    320    319    339    340     1  0.0000000  0.0000000  2
    321    319    316    322     1  0.0000000  0.6508444  3
    321    319    339    340     1  0.0000000  0.0000000  2
    322    323    332    333     1  0.0000000  0.6508444  3
    322    323    332    334     1  0.0000000  0.6508444  3
    322    326    329    330     1  0.0000000  0.6508444  3
    322    326    329    331     1  0.0000000  0.6508444  3
    323    322    326    327     1  0.0000000  1.2552000  3
    323    322    326    328     1  0.0000000  1.2552000  3
    324    323    322    326     1  0.0000000  1.2552000  3
    324    323    332    336     1  0.0000000  0.6508444  3
    324    323    332    333     1  0.0000000  0.6508444  3
    324    323    332    334     1  0.0000000  0.6508444  3
    325    323    322    326     1  0.0000000  1.2552000  3
    325    323    332    336     1  0.0000000  0.6508444  3
    325    323    332    333     1  0.0000000  0.6508444  3
    325    323    332    334     1  0.0000000  0.6508444  3
    327    326    329    335     1  0.0000000  0.6508444  3
    327    326    329    330     1  0.0000000  0.6508444  3
    327    326    329    331     1  0.0000000  0.6508444  3
    328    326    329    335     1  0.0000000  0.6508444  3
    328    326    329    330     1  0.0000000  0.6508444  3
    328    326    329    331     1  0.0000000  0.6508444  3
    329    335    714    715     1  180.0000771  10.4600000  2
    330    329    335    337     1  0.0000000  3.3472000  1
    330    329    335    337     1  0.0000000  0.0000000  2
    330    329    335    337     1  180.0000771  0.3347200  3
    330    329    335    714     1  180.0000771  0.0000000  2
    331    329    335    337     1  0.0000000  3.3472000  1
    331    329    335    337     1  0.0000000  0.0000000  2
    331    329    335    337     1  180.0000771  0.3347200  3
    331    329    335    714     1  180.0000771  0.0000000  2
    332    336    739    740     1  180.0000771  10.4600000  2
    333    332    336    338     1  0.0000000  3.3472000  1
    333    332    336    338     1  0.0000000  0.0000000  2
    333    332    336    338     1  180.0000771  0.3347200  3
    333    332    336    739     1  180.0000771  0.0000000  2
    334    332    336    338     1  0.0000000  3.3472000  1
    334    332    336    338     1  0.0000000  0.0000000  2
    334    332    336    338     1  180.0000771  0.3347200  3
    334    332    336    739     1  180.0000771  0.0000000  2
    335    714    694    695     1  0.0000000  0.0000000  2
    335    714    694    696     1  0.0000000  0.0000000  2
    336    739    719    720     1  0.0000000  0.0000000  2
    336    739    719    721     1  0.0000000  0.0000000  2
    337    335    714    715     1  0.0000000  8.3680000  1
    337    335    714    715     1  180.0000771  10.4600000  2
    338    336    739    740     1  0.0000000  8.3680000  1
    338    336    739    740     1  180.0000771  10.4600000  2
    341    344    364    365     1  0.0000000  0.0000000  2
    341    347    348    349     1  0.0000000  1.2552000  3
    341    347    348    350     1  0.0000000  1.2552000  3
    341    347    351    352     1  0.0000000  1.2552000  3
    341    347    351    353     1  0.0000000  1.2552000  3
    342    341    344    364     1  0.0000000  0.6508444  3
    342    341    344    345     1  0.0000000  0.6508444  3
    342    341    344    346     1  0.0000000  0.6508444  3
    342    341    347    348     1  0.0000000  1.2552000  3
    342    341    347    351     1  0.0000000  1.2552000  3
    343    341    344    364     1  0.0000000  0.6508444  3
    343    341    344    345     1  0.0000000  0.6508444  3
    343    341    344    346     1  0.0000000  0.6508444  3
    343    341    347    348     1  0.0000000  1.2552000  3
    343    341    347    351     1  0.0000000  1.2552000  3
    345    344    341    347     1  0.0000000  0.6508444  3
    345    344    364    365     1  0.0000000  0.0000000  2
    346    344    341    347     1  0.0000000  0.6508444  3
    346    344    364    365     1  0.0000000  0.0000000  2
    347    348    357    358     1  0.0000000  0.6508444  3
    347    348    357    359     1  0.0000000  0.6508444  3
    347    351    354    355     1  0.0000000  0.6508444  3
    347    351    354    356     1  0.0000000  0.6508444  3
    348    347    351    352     1  0.0000000  1.2552000  3
    348    347    351    353     1  0.0000000  1.2552000  3
    349    348    347    351     1  0.0000000  1.2552000  3
    349    348    357    361     1  0.0000000  0.6508444  3
    349    348    357    358     1  0.0000000  0.6508444  3
    349    348    357    359     1  0.0000000  0.6508444  3
    350    348    347    351     1  0.0000000  1.2552000  3
    350    348    357    361     1  0.0000000  0.6508444  3
    350    348    357    358     1  0.0000000  0.6508444  3
    350    348    357    359     1  0.0000000  0.6508444  3
    352    351    354    360     1  0.0000000  0.6508444  3
    352    351    354    355     1  0.0000000  0.6508444  3
    352    351    354    356     1  0.0000000  0.6508444  3
    353    351    354    360     1  0.0000000  0.6508444  3
    353    351    354    355     1  0.0000000  0.6508444  3
    353    351    354    356     1  0.0000000  0.6508444  3
    354    360    764    765     1  180.0000771  10.4600000  2
    355    354    360    362     1  0.0000000  3.3472000  1
    355    354    360    362     1  0.0000000  0.0000000  2
    355    354    360    362     1  180.0000771  0.3347200  3
    355    354    360    764     1  180.0000771  0.0000000  2
    356    354    360    362     1  0.0000000  3.3472000  1
    356    354    360    362     1  0.0000000  0.0000000  2
    356    354    360    362     1  180.0000771  0.3347200  3
    356    354    360    764     1  180.0000771  0.0000000  2
    357    361    789    790     1  180.0000771  10.4600000  2
    358    357    361    363     1  0.0000000  3.3472000  1
    358    357    361    363     1  0.0000000  0.0000000  2
    358    357    361    363     1  180.0000771  0.3347200  3
    358    357    361    789     1  180.0000771  0.0000000  2
    359    357    361    363     1  0.0000000  3.3472000  1
    359    357    361    363     1  0.0000000  0.0000000  2
    359    357    361    363     1  180.0000771  0.3347200  3
    359    357    361    789     1  180.0000771  0.0000000  2
    360    764    744    745     1  0.0000000  0.0000000  2
    360    764    744    746     1  0.0000000  0.0000000  2
    361    789    769    770     1  0.0000000  0.0000000  2
    361    789    769    771     1  0.0000000  0.0000000  2
    362    360    764    765     1  0.0000000  8.3680000  1
    362    360    764    765     1  180.0000771  10.4600000  2
    363    361    789    790     1  0.0000000  8.3680000  1
    363    361    789    790     1  180.0000771  10.4600000  2
    366    369    389    390     1  0.0000000  0.0000000  2
    366    372    373    374     1  0.0000000  1.2552000  3
    366    372    373    375     1  0.0000000  1.2552000  3
    366    372    376    377     1  0.0000000  1.2552000  3
    366    372    376    378     1  0.0000000  1.2552000  3
    367    366    369    389     1  0.0000000  0.6508444  3
    367    366    369    370     1  0.0000000  0.6508444  3
    367    366    369    371     1  0.0000000  0.6508444  3
    367    366    372    373     1  0.0000000  1.2552000  3
    367    366    372    376     1  0.0000000  1.2552000  3
    368    366    369    389     1  0.0000000  0.6508444  3
    368    366    369    370     1  0.0000000  0.6508444  3
    368    366    369    371     1  0.0000000  0.6508444  3
    368    366    372    373     1  0.0000000  1.2552000  3
    368    366    372    376     1  0.0000000  1.2552000  3
    370    369    366    372     1  0.0000000  0.6508444  3
    370    369    389    390     1  0.0000000  0.0000000  2
    371    369    366    372     1  0.0000000  0.6508444  3
    371    369    389    390     1  0.0000000  0.0000000  2
    372    373    382    383     1  0.0000000  0.6508444  3
    372    373    382    384     1  0.0000000  0.6508444  3
    372    376    379    380     1  0.0000000  0.6508444  3
    372    376    379    381     1  0.0000000  0.6508444  3
    373    372    376    377     1  0.0000000  1.2552000  3
    373    372    376    378     1  0.0000000  1.2552000  3
    374    373    372    376     1  0.0000000  1.2552000  3
    374    373    382    386     1  0.0000000  0.6508444  3
    374    373    382    383     1  0.0000000  0.6508444  3
    374    373    382    384     1  0.0000000  0.6508444  3
    375    373    372    376     1  0.0000000  1.2552000  3
    375    373    382    386     1  0.0000000  0.6508444  3
    375    373    382    383     1  0.0000000  0.6508444  3
    375    373    382    384     1  0.0000000  0.6508444  3
    377    376    379    385     1  0.0000000  0.6508444  3
    377    376    379    380     1  0.0000000  0.6508444  3
    377    376    379    381     1  0.0000000  0.6508444  3
    378    376    379    385     1  0.0000000  0.6508444  3
    378    376    379    380     1  0.0000000  0.6508444  3
    378    376    379    381     1  0.0000000  0.6508444  3
    379    385    814    815     1  180.0000771  10.4600000  2
    380    379    385    387     1  0.0000000  3.3472000  1
    380    379    385    387     1  0.0000000  0.0000000  2
    380    379    385    387     1  180.0000771  0.3347200  3
    380    379    385    814     1  180.0000771  0.0000000  2
    381    379    385    387     1  0.0000000  3.3472000  1
    381    379    385    387     1  0.0000000  0.0000000  2
    381    379    385    387     1  180.0000771  0.3347200  3
    381    379    385    814     1  180.0000771  0.0000000  2
    382    386    839    840     1  180.0000771  10.4600000  2
    383    382    386    388     1  0.0000000  3.3472000  1
    383    382    386    388     1  0.0000000  0.0000000  2
    383    382    386    388     1  180.0000771  0.3347200  3
    383    382    386    839     1  180.0000771  0.0000000  2
    384    382    386    388     1  0.0000000  3.3472000  1
    384    382    386    388     1  0.0000000  0.0000000  2
    384    382    386    388     1  180.0000771  0.3347200  3
    384    382    386    839     1  180.0000771  0.0000000  2
    385    814    794    795     1  0.0000000  0.0000000  2
    385    814    794    796     1  0.0000000  0.0000000  2
    386    839    819    820     1  0.0000000  0.0000000  2
    386    839    819    821     1  0.0000000  0.0000000  2
    387    385    814    815     1  0.0000000  8.3680000  1
    387    385    814    815     1  180.0000771  10.4600000  2
    388    386    839    840     1  0.0000000  8.3680000  1
    388    386    839    840     1  180.0000771  10.4600000  2
    391    394    414    415     1  0.0000000  0.0000000  2
    391    397    398    399     1  0.0000000  1.2552000  3
    391    397    398    400     1  0.0000000  1.2552000  3
    391    397    401    402     1  0.0000000  1.2552000  3
    391    397    401    403     1  0.0000000  1.2552000  3
    392    391    394    414     1  0.0000000  0.6508444  3
    392    391    394    395     1  0.0000000  0.6508444  3
    392    391    394    396     1  0.0000000  0.6508444  3
    392    391    397    398     1  0.0000000  1.2552000  3
    392    391    397    401     1  0.0000000  1.2552000  3
    393    391    394    414     1  0.0000000  0.6508444  3
    393    391    394    395     1  0.0000000  0.6508444  3
    393    391    394    396     1  0.0000000  0.6508444  3
    393    391    397    398     1  0.0000000  1.2552000  3
    393    391    397    401     1  0.0000000  1.2552000  3
    395    394    391    397     1  0.0000000  0.6508444  3
    395    394    414    415     1  0.0000000  0.0000000  2
    396    394    391    397     1  0.0000000  0.6508444  3
    396    394    414    415     1  0.0000000  0.0000000  2
    397    398    407    408     1  0.0000000  0.6508444  3
    397    398    407    409     1  0.0000000  0.6508444  3
    397    401    404    405     1  0.0000000  0.6508444  3
    397    401    404    406     1  0.0000000  0.6508444  3
    398    397    401    402     1  0.0000000  1.2552000  3
    398    397    401    403     1  0.0000000  1.2552000  3
    399    398    397    401     1  0.0000000  1.2552000  3
    399    398    407    411     1  0.0000000  0.6508444  3
    399    398    407    408     1  0.0000000  0.6508444  3
    399    398    407    409     1  0.0000000  0.6508444  3
    400    398    397    401     1  0.0000000  1.2552000  3
    400    398    407    411     1  0.0000000  0.6508444  3
    400    398    407    408     1  0.0000000  0.6508444  3
    400    398    407    409     1  0.0000000  0.6508444  3
    402    401    404    410     1  0.0000000  0.6508444  3
    402    401    404    405     1  0.0000000  0.6508444  3
    402    401    404    406     1  0.0000000  0.6508444  3
    403    401    404    410     1  0.0000000  0.6508444  3
    403    401    404    405     1  0.0000000  0.6508444  3
    403    401    404    406     1  0.0000000  0.6508444  3
    404    410    864    865     1  180.0000771  10.4600000  2
    405    404    410    412     1  0.0000000  3.3472000  1
    405    404    410    412     1  0.0000000  0.0000000  2
    405    404    410    412     1  180.0000771  0.3347200  3
    405    404    410    864     1  180.0000771  0.0000000  2
    406    404    410    412     1  0.0000000  3.3472000  1
    406    404    410    412     1  0.0000000  0.0000000  2
    406    404    410    412     1  180.0000771  0.3347200  3
    406    404    410    864     1  180.0000771  0.0000000  2
    407    411    889    890     1  180.0000771  10.4600000  2
    408    407    411    413     1  0.0000000  3.3472000  1
    408    407    411    413     1  0.0000000  0.0000000  2
    408    407    411    413     1  180.0000771  0.3347200  3
    408    407    411    889     1  180.0000771  0.0000000  2
    409    407    411    413     1  0.0000000  3.3472000  1
    409    407    411    413     1  0.0000000  0.0000000  2
    409    407    411    413     1  180.0000771  0.3347200  3
    409    407    411    889     1  180.0000771  0.0000000  2
    410    864    844    845     1  0.0000000  0.0000000  2
    410    864    844    846     1  0.0000000  0.0000000  2
    411    889    869    870     1  0.0000000  0.0000000  2
    411    889    869    871     1  0.0000000  0.0000000  2
    412    410    864    865     1  0.0000000  8.3680000  1
    412    410    864    865     1  180.0000771  10.4600000  2
    413    411    889    890     1  0.0000000  8.3680000  1
    413    411    889    890     1  180.0000771  10.4600000  2
    416    419    439    440     1  0.0000000  0.0000000  2
    416    422    423    424     1  0.0000000  1.2552000  3
    416    422    423    425     1  0.0000000  1.2552000  3
    416    422    426    427     1  0.0000000  1.2552000  3
    416    422    426    428     1  0.0000000  1.2552000  3
    417    416    419    439     1  0.0000000  0.6508444  3
    417    416    419    420     1  0.0000000  0.6508444  3
    417    416    419    421     1  0.0000000  0.6508444  3
    417    416    422    423     1  0.0000000  1.2552000  3
    417    416    422    426     1  0.0000000  1.2552000  3
    418    416    419    439     1  0.0000000  0.6508444  3
    418    416    419    420     1  0.0000000  0.6508444  3
    418    416    419    421     1  0.0000000  0.6508444  3
    418    416    422    423     1  0.0000000  1.2552000  3
    418    416    422    426     1  0.0000000  1.2552000  3
    420    419    416    422     1  0.0000000  0.6508444  3
    420    419    439    440     1  0.0000000  0.0000000  2
    421    419    416    422     1  0.0000000  0.6508444  3
    421    419    439    440     1  0.0000000  0.0000000  2
    422    423    432    433     1  0.0000000  0.6508444  3
    422    423    432    434     1  0.0000000  0.6508444  3
    422    426    429    430     1  0.0000000  0.6508444  3
    422    426    429    431     1  0.0000000  0.6508444  3
    423    422    426    427     1  0.0000000  1.2552000  3
    423    422    426    428     1  0.0000000  1.2552000  3
    424    423    422    426     1  0.0000000  1.2552000  3
    424    423    432    436     1  0.0000000  0.6508444  3
    424    423    432    433     1  0.0000000  0.6508444  3
    424    423    432    434     1  0.0000000  0.6508444  3
    425    423    422    426     1  0.0000000  1.2552000  3
    425    423    432    436     1  0.0000000  0.6508444  3
    425    423    432    433     1  0.0000000  0.6508444  3
    425    423    432    434     1  0.0000000  0.6508444  3
    427    426    429    435     1  0.0000000  0.6508444  3
    427    426    429    430     1  0.0000000  0.6508444  3
    427    426    429    431     1  0.0000000  0.6508444  3
    428    426    429    435     1  0.0000000  0.6508444  3
    428    426    429    430     1  0.0000000  0.6508444  3
    428    426    429    431     1  0.0000000  0.6508444  3
    429    435    914    915     1  180.0000771  10.4600000  2
    430    429    435    437     1  0.0000000  3.3472000  1
    430    429    435    437     1  0.0000000  0.0000000  2
    430    429    435    437     1  180.0000771  0.3347200  3
    430    429    435    914     1  180.0000771  0.0000000  2
    431    429    435    437     1  0.0000000  3.3472000  1
    431    429    435    437     1  0.0000000  0.0000000  2
    431    429    435    437     1  180.0000771  0.3347200  3
    431    429    435    914     1  180.0000771  0.0000000  2
    432    436    939    940     1  180.0000771  10.4600000  2
    433    432    436    438     1  0.0000000  3.3472000  1
    433    432    436    438     1  0.0000000  0.0000000  2
    433    432    436    438     1  180.0000771  0.3347200  3
    433    432    436    939     1  180.0000771  0.0000000  2
    434    432    436    438     1  0.0000000  3.3472000  1
    434    432    436    438     1  0.0000000  0.0000000  2
    434    432    436    438     1  180.0000771  0.3347200  3
    434    432    436    939     1  180.0000771  0.0000000  2
    435    914    894    895     1  0.0000000  0.0000000  2
    435    914    894    896     1  0.0000000  0.0000000  2
    436    939    919    920     1  0.0000000  0.0000000  2
    436    939    919    921     1  0.0000000  0.0000000  2
    437    435    914    915     1  0.0000000  8.3680000  1
    437    435    914    915     1  180.0000771  10.4600000  2
    438    436    939    940     1  0.0000000  8.3680000  1
    438    436    939    940     1  180.0000771  10.4600000  2
    441    444    464    465     1  0.0000000  0.0000000  2
    441    447    448    449     1  0.0000000  1.2552000  3
    441    447    448    450     1  0.0000000  1.2552000  3
    441    447    451    452     1  0.0000000  1.2552000  3
    441    447    451    453     1  0.0000000  1.2552000  3
    442    441    444    464     1  0.0000000  0.6508444  3
    442    441    444    445     1  0.0000000  0.6508444  3
    442    441    444    446     1  0.0000000  0.6508444  3
    442    441    447    448     1  0.0000000  1.2552000  3
    442    441    447    451     1  0.0000000  1.2552000  3
    443    441    444    464     1  0.0000000  0.6508444  3
    443    441    444    445     1  0.0000000  0.6508444  3
    443    441    444    446     1  0.0000000  0.6508444  3
    443    441    447    448     1  0.0000000  1.2552000  3
    443    441    447    451     1  0.0000000  1.2552000  3
    445    444    441    447     1  0.0000000  0.6508444  3
    445    444    464    465     1  0.0000000  0.0000000  2
    446    444    441    447     1  0.0000000  0.6508444  3
    446    444    464    465     1  0.0000000  0.0000000  2
    447    448    457    458     1  0.0000000  0.6508444  3
    447    448    457    459     1  0.0000000  0.6508444  3
    447    451    454    455     1  0.0000000  0.6508444  3
    447    451    454    456     1  0.0000000  0.6508444  3
    448    447    451    452     1  0.0000000  1.2552000  3
    448    447    451    453     1  0.0000000  1.2552000  3
    449    448    447    451     1  0.0000000  1.2552000  3
    449    448    457    461     1  0.0000000  0.6508444  3
    449    448    457    458     1  0.0000000  0.6508444  3
    449    448    457    459     1  0.0000000  0.6508444  3
    450    448    447    451     1  0.0000000  1.2552000  3
    450    448    457    461     1  0.0000000  0.6508444  3
    450    448    457    458     1  0.0000000  0.6508444  3
    450    448    457    459     1  0.0000000  0.6508444  3
    452    451    454    460     1  0.0000000  0.6508444  3
    452    451    454    455     1  0.0000000  0.6508444  3
    452    451    454    456     1  0.0000000  0.6508444  3
    453    451    454    460     1  0.0000000  0.6508444  3
    453    451    454    455     1  0.0000000  0.6508444  3
    453    451    454    456     1  0.0000000  0.6508444  3
    454    460    964    965     1  180.0000771  10.4600000  2
    455    454    460    462     1  0.0000000  3.3472000  1
    455    454    460    462     1  0.0000000  0.0000000  2
    455    454    460    462     1  180.0000771  0.3347200  3
    455    454    460    964     1  180.0000771  0.0000000  2
    456    454    460    462     1  0.0000000  3.3472000  1
    456    454    460    462     1  0.0000000  0.0000000  2
    456    454    460    462     1  180.0000771  0.3347200  3
    456    454    460    964     1  180.0000771  0.0000000  2
    457    461    989    990     1  180.0000771  10.4600000  2
    458    457    461    463     1  0.0000000  3.3472000  1
    458    457    461    463     1  0.0000000  0.0000000  2
    458    457    461    463     1  180.0000771  0.3347200  3
    458    457    461    989     1  180.0000771  0.0000000  2
    459    457    461    463     1  0.0000000  3.3472000  1
    459    457    461    463     1  0.0000000  0.0000000  2
    459    457    461    463     1  180.0000771  0.3347200  3
    459    457    461    989     1  180.0000771  0.0000000  2
    460    964    944    945     1  0.0000000  0.0000000  2
    460    964    944    946     1  0.0000000  0.0000000  2
    461    989    969    970     1  0.0000000  0.0000000  2
    461    989    969    971     1  0.0000000  0.0000000  2
    462    460    964    965     1  0.0000000  8.3680000  1
    462    460    964    965     1  180.0000771  10.4600000  2
    463    461    989    990     1  0.0000000  8.3680000  1
    463    461    989    990     1  180.0000771  10.4600000  2
    466    469    489    490     1  0.0000000  0.0000000  2
    466    472    473    474     1  0.0000000  1.2552000  3
    466    472    473    475     1  0.0000000  1.2552000  3
    466    472    476    477     1  0.0000000  1.2552000  3
    466    472    476    478     1  0.0000000  1.2552000  3
    467    466    469    489     1  0.0000000  0.6508444  3
    467    466    469    470     1  0.0000000  0.6508444  3
    467    466    469    471     1  0.0000000  0.6508444  3
    467    466    472    473     1  0.0000000  1.2552000  3
    467    466    472    476     1  0.0000000  1.2552000  3
    468    466    469    489     1  0.0000000  0.6508444  3
    468    466    469    470     1  0.0000000  0.6508444  3
    468    466    469    471     1  0.0000000  0.6508444  3
    468    466    472    473     1  0.0000000  1.2552000  3
    468    466    472    476     1  0.0000000  1.2552000  3
    470    469    466    472     1  0.0000000  0.6508444  3
    470    469    489    490     1  0.0000000  0.0000000  2
    471    469    466    472     1  0.0000000  0.6508444  3
    471    469    489    490     1  0.0000000  0.0000000  2
    472    473    482    483     1  0.0000000  0.6508444  3
    472    473    482    484     1  0.0000000  0.6508444  3
    472    476    479    480     1  0.0000000  0.6508444  3
    472    476    479    481     1  0.0000000  0.6508444  3
    473    472    476    477     1  0.0000000  1.2552000  3
    473    472    476    478     1  0.0000000  1.2552000  3
    474    473    472    476     1  0.0000000  1.2552000  3
    474    473    482    486     1  0.0000000  0.6508444  3
    474    473    482    483     1  0.0000000  0.6508444  3
    474    473    482    484     1  0.0000000  0.6508444  3
    475    473    472    476     1  0.0000000  1.2552000  3
    475    473    482    486     1  0.0000000  0.6508444  3
    475    473    482    483     1  0.0000000  0.6508444  3
    475    473    482    484     1  0.0000000  0.6508444  3
    477    476    479    485     1  0.0000000  0.6508444  3
    477    476    479    480     1  0.0000000  0.6508444  3
    477    476    479    481     1  0.0000000  0.6508444  3
    478    476    479    485     1  0.0000000  0.6508444  3
    478    476    479    480     1  0.0000000  0.6508444  3
    478    476    479    481     1  0.0000000  0.6508444  3
    479    485   1014   1015     1  180.0000771  10.4600000  2
    480    479    485    487     1  0.0000000  3.3472000  1
    480    479    485    487     1  0.0000000  0.0000000  2
    480    479    485    487     1  180.0000771  0.3347200  3
    480    479    485   1014     1  180.0000771  0.0000000  2
    481    479    485    487     1  0.0000000  3.3472000  1
    481    479    485    487     1  0.0000000  0.0000000  2
    481    479    485    487     1  180.0000771  0.3347200  3
    481    479    485   1014     1  180.0000771  0.0000000  2
    482    486   1039   1040     1  180.0000771  10.4600000  2
    483    482    486    488     1  0.0000000  3.3472000  1
    483    482    486    488     1  0.0000000  0.0000000  2
    483    482    486    488     1  180.0000771  0.3347200  3
    483    482    486   1039     1  180.0000771  0.0000000  2
    484    482    486    488     1  0.0000000  3.3472000  1
    484    482    486    488     1  0.0000000  0.0000000  2
    484    482    486    488     1  180.0000771  0.3347200  3
    484    482    486   1039     1  180.0000771  0.0000000  2
    485   1014    994    995     1  0.0000000  0.0000000  2
    485   1014    994    996     1  0.0000000  0.0000000  2
    486   1039   1019   1020     1  0.0000000  0.0000000  2
    486   1039   1019   1021     1  0.0000000  0.0000000  2
    487    485   1014   1015     1  0.0000000  8.3680000  1
    487    485   1014   1015     1  180.0000771  10.4600000  2
    488    486   1039   1040     1  0.0000000  8.3680000  1
    488    486   1039   1040     1  180.0000771  10.4600000  2
    491    494    514    515     1  0.0000000  0.0000000  2
    491    497    498    499     1  0.0000000  1.2552000  3
    491    497    498    500     1  0.0000000  1.2552000  3
    491    497    501    502     1  0.0000000  1.2552000  3
    491    497    501    503     1  0.0000000  1.2552000  3
    492    491    494    514     1  0.0000000  0.6508444  3
    492    491    494    495     1  0.0000000  0.6508444  3
    492    491    494    496     1  0.0000000  0.6508444  3
    492    491    497    498     1  0.0000000  1.2552000  3
    492    491    497    501     1  0.0000000  1.2552000  3
    493    491    494    514     1  0.0000000  0.6508444  3
    493    491    494    495     1  0.0000000  0.6508444  3
    493    491    494    496     1  0.0000000  0.6508444  3
    493    491    497    498     1  0.0000000  1.2552000  3
    493    491    497    501     1  0.0000000  1.2552000  3
    495    494    491    497     1  0.0000000  0.6508444  3
    495    494    514    515     1  0.0000000  0.0000000  2
    496    494    491    497     1  0.0000000  0.6508444  3
    496    494    514    515     1  0.0000000  0.0000000  2
    497    498    507    508     1  0.0000000  0.6508444  3
    497    498    507    509     1  0.0000000  0.6508444  3
    497    501    504    505     1  0.0000000  0.6508444  3
    497    501    504    506     1  0.0000000  0.6508444  3
    498    497    501    502     1  0.0000000  1.2552000  3
    498    497    501    503     1  0.0000000  1.2552000  3
    499    498    497    501     1  0.0000000  1.2552000  3
    499    498    507    511     1  0.0000000  0.6508444  3
    499    498    507    508     1  0.0000000  0.6508444  3
    499    498    507    509     1  0.0000000  0.6508444  3
    500    498    497    501     1  0.0000000  1.2552000  3
    500    498    507    511     1  0.0000000  0.6508444  3
    500    498    507    508     1  0.0000000  0.6508444  3
    500    498    507    509     1  0.0000000  0.6508444  3
    502    501    504    510     1  0.0000000  0.6508444  3
    502    501    504    505     1  0.0000000  0.6508444  3
    502    501    504    506     1  0.0000000  0.6508444  3
    503    501    504    510     1  0.0000000  0.6508444  3
    503    501    504    505     1  0.0000000  0.6508444  3
    503    501    504    506     1  0.0000000  0.6508444  3
    504    510   1064   1065     1  180.0000771  10.4600000  2
    505    504    510    512     1  0.0000000  3.3472000  1
    505    504    510    512     1  0.0000000  0.0000000  2
    505    504    510    512     1  180.0000771  0.3347200  3
    505    504    510   1064     1  180.0000771  0.0000000  2
    506    504    510    512     1  0.0000000  3.3472000  1
    506    504    510    512     1  0.0000000  0.0000000  2
    506    504    510    512     1  180.0000771  0.3347200  3
    506    504    510   1064     1  180.0000771  0.0000000  2
    507    511   1089   1090     1  180.0000771  10.4600000  2
    508    507    511    513     1  0.0000000  3.3472000  1
    508    507    511    513     1  0.0000000  0.0000000  2
    508    507    511    513     1  180.0000771  0.3347200  3
    508    507    511   1089     1  180.0000771  0.0000000  2
    509    507    511    513     1  0.0000000  3.3472000  1
    509    507    511    513     1  0.0000000  0.0000000  2
    509    507    511    513     1  180.0000771  0.3347200  3
    509    507    511   1089     1  180.0000771  0.0000000  2
    510   1064   1044   1045     1  0.0000000  0.0000000  2
    510   1064   1044   1046     1  0.0000000  0.0000000  2
    511   1089   1069   1070     1  0.0000000  0.0000000  2
    511   1089   1069   1071     1  0.0000000  0.0000000  2
    512    510   1064   1065     1  0.0000000  8.3680000  1
    512    510   1064   1065     1  180.0000771  10.4600000  2
    513    511   1089   1090     1  0.0000000  8.3680000  1
    513    511   1089   1090     1  180.0000771  10.4600000  2
    516    519    539    540     1  0.0000000  0.0000000  2
    516    522    523    524     1  0.0000000  1.2552000  3
    516    522    523    525     1  0.0000000  1.2552000  3
    516    522    526    527     1  0.0000000  1.2552000  3
    516    522    526    528     1  0.0000000  1.2552000  3
    517    516    519    539     1  0.0000000  0.6508444  3
    517    516    519    520     1  0.0000000  0.6508444  3
    517    516    519    521     1  0.0000000  0.6508444  3
    517    516    522    523     1  0.0000000  1.2552000  3
    517    516    522    526     1  0.0000000  1.2552000  3
    518    516    519    539     1  0.0000000  0.6508444  3
    518    516    519    520     1  0.0000000  0.6508444  3
    518    516    519    521     1  0.0000000  0.6508444  3
    518    516    522    523     1  0.0000000  1.2552000  3
    518    516    522    526     1  0.0000000  1.2552000  3
    520    519    516    522     1  0.0000000  0.6508444  3
    520    519    539    540     1  0.0000000  0.0000000  2
    521    519    516    522     1  0.0000000  0.6508444  3
    521    519    539    540     1  0.0000000  0.0000000  2
    522    523    532    533     1  0.0000000  0.6508444  3
    522    523    532    534     1  0.0000000  0.6508444  3
    522    526    529    530     1  0.0000000  0.6508444  3
    522    526    529    531     1  0.0000000  0.6508444  3
    523    522    526    527     1  0.0000000  1.2552000  3
    523    522    526    528     1  0.0000000  1.2552000  3
    524    523    522    526     1  0.0000000  1.2552000  3
    524    523    532    536     1  0.0000000  0.6508444  3
    524    523    532    533     1  0.0000000  0.6508444  3
    524    523    532    534     1  0.0000000  0.6508444  3
    525    523    522    526     1  0.0000000  1.2552000  3
    525    523    532    536     1  0.0000000  0.6508444  3
    525    523    532    533     1  0.0000000  0.6508444  3
    525    523    532    534     1  0.0000000  0.6508444  3
    527    526    529    535     1  0.0000000  0.6508444  3
    527    526    529    530     1  0.0000000  0.6508444  3
    527    526    529    531     1  0.0000000  0.6508444  3
    528    526    529    535     1  0.0000000  0.6508444  3
    528    526    529    530     1  0.0000000  0.6508444  3
    528    526    529    531     1  0.0000000  0.6508444  3
    529    535   1114   1115     1  180.0000771  10.4600000  2
    530    529    535    537     1  0.0000000  3.3472000  1
    530    529    535    537     1  0.0000000  0.0000000  2
    530    529    535    537     1  180.0000771  0.3347200  3
    530    529    535   1114     1  180.0000771  0.0000000  2
    531    529    535    537     1  0.0000000  3.3472000  1
    531    529    535    537     1  0.0000000  0.0000000  2
    531    529    535    537     1  180.0000771  0.3347200  3
    531    529    535   1114     1  180.0000771  0.0000000  2
    532    536   1139   1140     1  180.0000771  10.4600000  2
    533    532    536    538     1  0.0000000  3.3472000  1
    533    532    536    538     1  0.0000000  0.0000000  2
    533    532    536    538     1  180.0000771  0.3347200  3
    533    532    536   1139     1  180.0000771  0.0000000  2
    534    532    536    538     1  0.0000000  3.3472000  1
    534    532    536    538     1  0.0000000  0.0000000  2
    534    532    536    538     1  180.0000771  0.3347200  3
    534    532    536   1139     1  180.0000771  0.0000000  2
    535   1114   1094   1095     1  0.0000000  0.0000000  2
    535   1114   1094   1096     1  0.0000000  0.0000000  2
    536   1139   1119   1120     1  0.0000000  0.0000000  2
    536   1139   1119   1121     1  0.0000000  0.0000000  2
    537    535   1114   1115     1  0.0000000  8.3680000  1
    537    535   1114   1115     1  180.0000771  10.4600000  2
    538    536   1139   1140     1  0.0000000  8.3680000  1
    538    536   1139   1140     1  180.0000771  10.4600000  2
    541    544    564    565     1  0.0000000  0.0000000  2
    541    547    548    549     1  0.0000000  1.2552000  3
    541    547    548    550     1  0.0000000  1.2552000  3
    541    547    551    552     1  0.0000000  1.2552000  3
    541    547    551    553     1  0.0000000  1.2552000  3
    542    541    544    564     1  0.0000000  0.6508444  3
    542    541    544    545     1  0.0000000  0.6508444  3
    542    541    544    546     1  0.0000000  0.6508444  3
    542    541    547    548     1  0.0000000  1.2552000  3
    542    541    547    551     1  0.0000000  1.2552000  3
    543    541    544    564     1  0.0000000  0.6508444  3
    543    541    544    545     1  0.0000000  0.6508444  3
    543    541    544    546     1  0.0000000  0.6508444  3
    543    541    547    548     1  0.0000000  1.2552000  3
    543    541    547    551     1  0.0000000  1.2552000  3
    545    544    541    547     1  0.0000000  0.6508444  3
    545    544    564    565     1  0.0000000  0.0000000  2
    546    544    541    547     1  0.0000000  0.6508444  3
    546    544    564    565     1  0.0000000  0.0000000  2
    547    548    557    558     1  0.0000000  0.6508444  3
    547    548    557    559     1  0.0000000  0.6508444  3
    547    551    554    555     1  0.0000000  0.6508444  3
    547    551    554    556     1  0.0000000  0.6508444  3
    548    547    551    552     1  0.0000000  1.2552000  3
    548    547    551    553     1  0.0000000  1.2552000  3
    549    548    547    551     1  0.0000000  1.2552000  3
    549    548    557    561     1  0.0000000  0.6508444  3
    549    548    557    558     1  0.0000000  0.6508444  3
    549    548    557    559     1  0.0000000  0.6508444  3
    550    548    547    551     1  0.0000000  1.2552000  3
    550    548    557    561     1  0.0000000  0.6508444  3
    550    548    557    558     1  0.0000000  0.6508444  3
    550    548    557    559     1  0.0000000  0.6508444  3
    552    551    554    560     1  0.0000000  0.6508444  3
    552    551    554    555     1  0.0000000  0.6508444  3
    552    551    554    556     1  0.0000000  0.6508444  3
    553    551    554    560     1  0.0000000  0.6508444  3
    553    551    554    555     1  0.0000000  0.6508444  3
    553    551    554    556     1  0.0000000  0.6508444  3
    554    560   1164   1165     1  180.0000771  10.4600000  2
    555    554    560    562     1  0.0000000  3.3472000  1
    555    554    560    562     1  0.0000000  0.0000000  2
    555    554    560    562     1  180.0000771  0.3347200  3
    555    554    560   1164     1  180.0000771  0.0000000  2
    556    554    560    562     1  0.0000000  3.3472000  1
    556    554    560    562     1  0.0000000  0.0000000  2
    556    554    560    562     1  180.0000771  0.3347200  3
    556    554    560   1164     1  180.0000771  0.0000000  2
    557    561   1189   1190     1  180.0000771  10.4600000  2
    558    557    561    563     1  0.0000000  3.3472000  1
    558    557    561    563     1  0.0000000  0.0000000  2
    558    557    561    563     1  180.0000771  0.3347200  3
    558    557    561   1189     1  180.0000771  0.0000000  2
    559    557    561    563     1  0.0000000  3.3472000  1
    559    557    561    563     1  0.0000000  0.0000000  2
    559    557    561    563     1  180.0000771  0.3347200  3
    559    557    561   1189     1  180.0000771  0.0000000  2
    560   1164   1144   1145     1  0.0000000  0.0000000  2
    560   1164   1144   1146     1  0.0000000  0.0000000  2
    561   1189   1169   1170     1  0.0000000  0.0000000  2
    561   1189   1169   1171     1  0.0000000  0.0000000  2
    562    560   1164   1165     1  0.0000000  8.3680000  1
    562    560   1164   1165     1  180.0000771  10.4600000  2
    563    561   1189   1190     1  0.0000000  8.3680000  1
    563    561   1189   1190     1  180.0000771  10.4600000  2
    566    569    589    590     1  0.0000000  0.0000000  2
    566    572    573    574     1  0.0000000  1.2552000  3
    566    572    573    575     1  0.0000000  1.2552000  3
    566    572    576    577     1  0.0000000  1.2552000  3
    566    572    576    578     1  0.0000000  1.2552000  3
    567    566    569    589     1  0.0000000  0.6508444  3
    567    566    569    570     1  0.0000000  0.6508444  3
    567    566    569    571     1  0.0000000  0.6508444  3
    567    566    572    573     1  0.0000000  1.2552000  3
    567    566    572    576     1  0.0000000  1.2552000  3
    568    566    569    589     1  0.0000000  0.6508444  3
    568    566    569    570     1  0.0000000  0.6508444  3
    568    566    569    571     1  0.0000000  0.6508444  3
    568    566    572    573     1  0.0000000  1.2552000  3
    568    566    572    576     1  0.0000000  1.2552000  3
    570    569    566    572     1  0.0000000  0.6508444  3
    570    569    589    590     1  0.0000000  0.0000000  2
    571    569    566    572     1  0.0000000  0.6508444  3
    571    569    589    590     1  0.0000000  0.0000000  2
    572    573    582    583     1  0.0000000  0.6508444  3
    572    573    582    584     1  0.0000000  0.6508444  3
    572    576    579    580     1  0.0000000  0.6508444  3
    572    576    579    581     1  0.0000000  0.6508444  3
    573    572    576    577     1  0.0000000  1.2552000  3
    573    572    576    578     1  0.0000000  1.2552000  3
    574    573    572    576     1  0.0000000  1.2552000  3
    574    573    582    586     1  0.0000000  0.6508444  3
    574    573    582    583     1  0.0000000  0.6508444  3
    574    573    582    584     1  0.0000000  0.6508444  3
    575    573    572    576     1  0.0000000  1.2552000  3
    575    573    582    586     1  0.0000000  0.6508444  3
    575    573    582    583     1  0.0000000  0.6508444  3
    575    573    582    584     1  0.0000000  0.6508444  3
    577    576    579    585     1  0.0000000  0.6508444  3
    577    576    579    580     1  0.0000000  0.6508444  3
    577    576    579    581     1  0.0000000  0.6508444  3
    578    576    579    585     1  0.0000000  0.6508444  3
    578    576    579    580     1  0.0000000  0.6508444  3
    578    576    579    581     1  0.0000000  0.6508444  3
    579    585   1214   1215     1  180.0000771  10.4600000  2
    580    579    585    587     1  0.0000000  3.3472000  1
    580    579    585    587     1  0.0000000  0.0000000  2
    580    579    585    587     1  180.0000771  0.3347200  3
    580    579    585   1214     1  180.0000771  0.0000000  2
    581    579    585    587     1  0.0000000  3.3472000  1
    581    579    585    587     1  0.0000000  0.0000000  2
    581    579    585    587     1  180.0000771  0.3347200  3
    581    579    585   1214     1  180.0000771  0.0000000  2
    582    586   1239   1240     1  180.0000771  10.4600000  2
    583    582    586    588     1  0.0000000  3.3472000  1
    583    582    586    588     1  0.0000000  0.0000000  2
    583    582    586    588     1  180.0000771  0.3347200  3
    583    582    586   1239     1  180.0000771  0.0000000  2
    584    582    586    588     1  0.0000000  3.3472000  1
    584    582    586    588     1  0.0000000  0.0000000  2
    584    582    586    588     1  180.0000771  0.3347200  3
    584    582    586   1239     1  180.0000771  0.0000000  2
    585   1214   1194   1195     1  0.0000000  0.0000000  2
    585   1214   1194   1196     1  0.0000000  0.0000000  2
    586   1239   1219   1220     1  0.0000000  0.0000000  2
    586   1239   1219   1221     1  0.0000000  0.0000000  2
    587    585   1214   1215     1  0.0000000  8.3680000  1
    587    585   1214   1215     1  180.0000771  10.4600000  2
    588    586   1239   1240     1  0.0000000  8.3680000  1
    588    586   1239   1240     1  180.0000771  10.4600000  2
    591    594    614    615     1  0.0000000  0.0000000  2
    591    597    598    599     1  0.0000000  1.2552000  3
    591    597    598    600     1  0.0000000  1.2552000  3
    591    597    601    602     1  0.0000000  1.2552000  3
    591    597    601    603     1  0.0000000  1.2552000  3
    592    591    594    614     1  0.0000000  0.6508444  3
    592    591    594    595     1  0.0000000  0.6508444  3
    592    591    594    596     1  0.0000000  0.6508444  3
    592    591    597    598     1  0.0000000  1.2552000  3
    592    591    597    601     1  0.0000000  1.2552000  3
    593    591    594    614     1  0.0000000  0.6508444  3
    593    591    594    595     1  0.0000000  0.6508444  3
    593    591    594    596     1  0.0000000  0.6508444  3
    593    591    597    598     1  0.0000000  1.2552000  3
    593    591    597    601     1  0.0000000  1.2552000  3
    595    594    591    597     1  0.0000000  0.6508444  3
    595    594    614    615     1  0.0000000  0.0000000  2
    596    594    591    597     1  0.0000000  0.6508444  3
    596    594    614    615     1  0.0000000  0.0000000  2
    597    598    607    608     1  0.0000000  0.6508444  3
    597    598    607    609     1  0.0000000  0.6508444  3
    597    601    604    605     1  0.0000000  0.6508444  3
    597    601    604    606     1  0.0000000  0.6508444  3
    598    597    601    602     1  0.0000000  1.2552000  3
    598    597    601    603     1  0.0000000  1.2552000  3
    599    598    597    601     1  0.0000000  1.2552000  3
    599    598    607    611     1  0.0000000  0.6508444  3
    599    598    607    608     1  0.0000000  0.6508444  3
    599    598    607    609     1  0.0000000  0.6508444  3
    600    598    597    601     1  0.0000000  1.2552000  3
    600    598    607    611     1  0.0000000  0.6508444  3
    600    598    607    608     1  0.0000000  0.6508444  3
    600    598    607    609     1  0.0000000  0.6508444  3
    602    601    604    610     1  0.0000000  0.6508444  3
    602    601    604    605     1  0.0000000  0.6508444  3
    602    601    604    606     1  0.0000000  0.6508444  3
    603    601    604    610     1  0.0000000  0.6508444  3
    603    601    604    605     1  0.0000000  0.6508444  3
    603    601    604    606     1  0.0000000  0.6508444  3
    604    610   1264   1265     1  180.0000771  10.4600000  2
    605    604    610    612     1  0.0000000  3.3472000  1
    605    604    610    612     1  0.0000000  0.0000000  2
    605    604    610    612     1  180.0000771  0.3347200  3
    605    604    610   1264     1  180.0000771  0.0000000  2
    606    604    610    612     1  0.0000000  3.3472000  1
    606    604    610    612     1  0.0000000  0.0000000  2
    606    604    610    612     1  180.0000771  0.3347200  3
    606    604    610   1264     1  180.0000771  0.0000000  2
    607    611   1289   1290     1  180.0000771  10.4600000  2
    608    607    611    613     1  0.0000000  3.3472000  1
    608    607    611    613     1  0.0000000  0.0000000  2
    608    607    611    613     1  180.0000771  0.3347200  3
    608    607    611   1289     1  180.0000771  0.0000000  2
    609    607    611    613     1  0.0000000  3.3472000  1
    609    607    611    613     1  0.0000000  0.0000000  2
    609    607    611    613     1  180.0000771  0.3347200  3
    609    607    611   1289     1  180.0000771  0.0000000  2
    610   1264   1244   1245     1  0.0000000  0.0000000  2
    610   1264   1244   1246     1  0.0000000  0.0000000  2
    611   1289   1269   1270     1  0.0000000  0.0000000  2
    611   1289   1269   1271     1  0.0000000  0.0000000  2
    612    610   1264   1265     1  0.0000000  8.3680000  1
    612    610   1264   1265     1  180.0000771  10.4600000  2
    613    611   1289   1290     1  0.0000000  8.3680000  1
    613    611   1289   1290     1  180.0000771  10.4600000  2
    616    619    639    640     1  0.0000000  0.0000000  2
    616    622    623    624     1  0.0000000  1.2552000  3
    616    622    623    625     1  0.0000000  1.2552000  3
    616    622    626    627     1  0.0000000  1.2552000  3
    616    622    626    628     1  0.0000000  1.2552000  3
    617    616    619    639     1  0.0000000  0.6508444  3
    617    616    619    620     1  0.0000000  0.6508444  3
    617    616    619    621     1  0.0000000  0.6508444  3
    617    616    622    623     1  0.0000000  1.2552000  3
    617    616    622    626     1  0.0000000  1.2552000  3
    618    616    619    639     1  0.0000000  0.6508444  3
    618    616    619    620     1  0.0000000  0.6508444  3
    618    616    619    621     1  0.0000000  0.6508444  3
    618    616    622    623     1  0.0000000  1.2552000  3
    618    616    622    626     1  0.0000000  1.2552000  3
    620    619    616    622     1  0.0000000  0.6508444  3
    620    619    639    640     1  0.0000000  0.0000000  2
    621    619    616    622     1  0.0000000  0.6508444  3
    621    619    639    640     1  0.0000000  0.0000000  2
    622    623    632    633     1  0.0000000  0.6508444  3
    622    623    632    634     1  0.0000000  0.6508444  3
    622    626    629    630     1  0.0000000  0.6508444  3
    622    626    629    631     1  0.0000000  0.6508444  3
    623    622    626    627     1  0.0000000  1.2552000  3
    623    622    626    628     1  0.0000000  1.2552000  3
    624    623    622    626     1  0.0000000  1.2552000  3
    624    623    632    636     1  0.0000000  0.6508444  3
    624    623    632    633     1  0.0000000  0.6508444  3
    624    623    632    634     1  0.0000000  0.6508444  3
    625    623    622    626     1  0.0000000  1.2552000  3
    625    623    632    636     1  0.0000000  0.6508444  3
    625    623    632    633     1  0.0000000  0.6508444  3
    625    623    632    634     1  0.0000000  0.6508444  3
    627    626    629    635     1  0.0000000  0.6508444  3
    627    626    629    630     1  0.0000000  0.6508444  3
    627    626    629    631     1  0.0000000  0.6508444  3
    628    626    629    635     1  0.0000000  0.6508444  3
    628    626    629    630     1  0.0000000  0.6508444  3
    628    626    629    631     1  0.0000000  0.6508444  3
    629    635   1314   1315     1  180.0000771  10.4600000  2
    630    629    635    637     1  0.0000000  3.3472000  1
    630    629    635    637     1  0.0000000  0.0000000  2
    630    629    635    637     1  180.0000771  0.3347200  3
    630    629    635   1314     1  180.0000771  0.0000000  2
    631    629    635    637     1  0.0000000  3.3472000  1
    631    629    635    637     1  0.0000000  0.0000000  2
    631    629    635    637     1  180.0000771  0.3347200  3
    631    629    635   1314     1  180.0000771  0.0000000  2
    632    636   1339   1340     1  180.0000771  10.4600000  2
    633    632    636    638     1  0.0000000  3.3472000  1
    633    632    636    638     1  0.0000000  0.0000000  2
    633    632    636    638     1  180.0000771  0.3347200  3
    633    632    636   1339     1  180.0000771  0.0000000  2
    634    632    636    638     1  0.0000000  3.3472000  1
    634    632    636    638     1  0.0000000  0.0000000  2
    634    632    636    638     1  180.0000771  0.3347200  3
    634    632    636   1339     1  180.0000771  0.0000000  2
    635   1314   1294   1295     1  0.0000000  0.0000000  2
    635   1314   1294   1296     1  0.0000000  0.0000000  2
    636   1339   1319   1320     1  0.0000000  0.0000000  2
    636   1339   1319   1321     1  0.0000000  0.0000000  2
    637    635   1314   1315     1  0.0000000  8.3680000  1
    637    635   1314   1315     1  180.0000771  10.4600000  2
    638    636   1339   1340     1  0.0000000  8.3680000  1
    638    636   1339   1340     1  180.0000771  10.4600000  2
    641    644    664    665     1  0.0000000  0.0000000  2
    641    647    648    649     1  0.0000000  1.2552000  3
    641    647    648    650     1  0.0000000  1.2552000  3
    641    647    651    652     1  0.0000000  1.2552000  3
    641    647    651    653     1  0.0000000  1.2552000  3
    642    641    644    664     1  0.0000000  0.6508444  3
    642    641    644    645     1  0.0000000  0.6508444  3
    642    641    644    646     1  0.0000000  0.6508444  3
    642    641    647    648     1  0.0000000  1.2552000  3
    642    641    647    651     1  0.0000000  1.2552000  3
    643    641    644    664     1  0.0000000  0.6508444  3
    643    641    644    645     1  0.0000000  0.6508444  3
    643    641    644    646     1  0.0000000  0.6508444  3
    643    641    647    648     1  0.0000000  1.2552000  3
    643    641    647    651     1  0.0000000  1.2552000  3
    645    644    641    647     1  0.0000000  0.6508444  3
    645    644    664    665     1  0.0000000  0.0000000  2
    646    644    641    647     1  0.0000000  0.6508444  3
    646    644    664    665     1  0.0000000  0.0000000  2
    647    648    657    658     1  0.0000000  0.6508444  3
    647    648    657    659     1  0.0000000  0.6508444  3
    647    651    654    655     1  0.0000000  0.6508444  3
    647    651    654    656     1  0.0000000  0.6508444  3
    648    647    651    652     1  0.0000000  1.2552000  3
    648    647    651    653     1  0.0000000  1.2552000  3
    649    648    647    651     1  0.0000000  1.2552000  3
    649    648    657    661     1  0.0000000  0.6508444  3
    649    648    657    658     1  0.0000000  0.6508444  3
    649    648    657    659     1  0.0000000  0.6508444  3
    650    648    647    651     1  0.0000000  1.2552000  3
    650    648    657    661     1  0.0000000  0.6508444  3
    650    648    657    658     1  0.0000000  0.6508444  3
    650    648    657    659     1  0.0000000  0.6508444  3
    652    651    654    660     1  0.0000000  0.6508444  3
    652    651    654    655     1  0.0000000  0.6508444  3
    652    651    654    656     1  0.0000000  0.6508444  3
    653    651    654    660     1  0.0000000  0.6508444  3
    653    651    654    655     1  0.0000000  0.6508444  3
    653    651    654    656     1  0.0000000  0.6508444  3
    654    660   1364   1365     1  180.0000771  10.4600000  2
    655    654    660    662     1  0.0000000  3.3472000  1
    655    654    660    662     1  0.0000000  0.0000000  2
    655    654    660    662     1  180.0000771  0.3347200  3
    655    654    660   1364     1  180.0000771  0.0000000  2
    656    654    660    662     1  0.0000000  3.3472000  1
    656    654    660    662     1  0.0000000  0.0000000  2
    656    654    660    662     1  180.0000771  0.3347200  3
    656    654    660   1364     1  180.0000771  0.0000000  2
    657    661   1389   1390     1  180.0000771  10.4600000  2
    658    657    661    663     1  0.0000000  3.3472000  1
    658    657    661    663     1  0.0000000  0.0000000  2
    658    657    661    663     1  180.0000771  0.3347200  3
    658    657    661   1389     1  180.0000771  0.0000000  2
    659    657    661    663     1  0.0000000  3.3472000  1
    659    657    661    663     1  0.0000000  0.0000000  2
    659    657    661    663     1  180.0000771  0.3347200  3
    659    657    661   1389     1  180.0000771  0.0000000  2
    660   1364   1344   1345     1  0.0000000  0.0000000  2
    660   1364   1344   1346     1  0.0000000  0.0000000  2
    661   1389   1369   1370     1  0.0000000  0.0000000  2
    661   1389   1369   1371     1  0.0000000  0.0000000  2
    662    660   1364   1365     1  0.0000000  8.3680000  1
    662    660   1364   1365     1  180.0000771  10.4600000  2
    663    661   1389   1390     1  0.0000000  8.3680000  1
    663    661   1389   1390     1  180.0000771  10.4600000  2
    666    669    689    690     1  0.0000000  0.0000000  2
    666    672    673    674     1  0.0000000  1.2552000  3
    666    672    673    675     1  0.0000000  1.2552000  3
    666    672    676    677     1  0.0000000  1.2552000  3
    666    672    676    678     1  0.0000000  1.2552000  3
    667    666    669    689     1  0.0000000  0.6508444  3
    667    666    669    670     1  0.0000000  0.6508444  3
    667    666    669    671     1  0.0000000  0.6508444  3
    667    666    672    673     1  0.0000000  1.2552000  3
    667    666    672    676     1  0.0000000  1.2552000  3
    668    666    669    689     1  0.0000000  0.6508444  3
    668    666    669    670     1  0.0000000  0.6508444  3
    668    666    669    671     1  0.0000000  0.6508444  3
    668    666    672    673     1  0.0000000  1.2552000  3
    668    666    672    676     1  0.0000000  1.2552000  3
    670    669    666    672     1  0.0000000  0.6508444  3
    670    669    689    690     1  0.0000000  0.0000000  2
    671    669    666    672     1  0.0000000  0.6508444  3
    671    669    689    690     1  0.0000000  0.0000000  2
    672    673    682    683     1  0.0000000  0.6508444  3
    672    673    682    684     1  0.0000000  0.6508444  3
    672    676    679    680     1  0.0000000  0.6508444  3
    672    676    679    681     1  0.0000000  0.6508444  3
    673    672    676    677     1  0.0000000  1.2552000  3
    673    672    676    678     1  0.0000000  1.2552000  3
    674    673    672    676     1  0.0000000  1.2552000  3
    674    673    682    686     1  0.0000000  0.6508444  3
    674    673    682    683     1  0.0000000  0.6508444  3
    674    673    682    684     1  0.0000000  0.6508444  3
    675    673    672    676     1  0.0000000  1.2552000  3
    675    673    682    686     1  0.0000000  0.6508444  3
    675    673    682    683     1  0.0000000  0.6508444  3
    675    673    682    684     1  0.0000000  0.6508444  3
    677    676    679    685     1  0.0000000  0.6508444  3
    677    676    679    680     1  0.0000000  0.6508444  3
    677    676    679    681     1  0.0000000  0.6508444  3
    678    676    679    685     1  0.0000000  0.6508444  3
    678    676    679    680     1  0.0000000  0.6508444  3
    678    676    679    681     1  0.0000000  0.6508444  3
    679    685   1414   1415     1  180.0000771  10.4600000  2
    680    679    685    687     1  0.0000000  3.3472000  1
    680    679    685    687     1  0.0000000  0.0000000  2
    680    679    685    687     1  180.0000771  0.3347200  3
    680    679    685   1414     1  180.0000771  0.0000000  2
    681    679    685    687     1  0.0000000  3.3472000  1
    681    679    685    687     1  0.0000000  0.0000000  2
    681    679    685    687     1  180.0000771  0.3347200  3
    681    679    685   1414     1  180.0000771  0.0000000  2
    682    686   1439   1440     1  180.0000771  10.4600000  2
    683    682    686    688     1  0.0000000  3.3472000  1
    683    682    686    688     1  0.0000000  0.0000000  2
    683    682    686    688     1  180.0000771  0.3347200  3
    683    682    686   1439     1  180.0000771  0.0000000  2
    684    682    686    688     1  0.0000000  3.3472000  1
    684    682    686    688     1  0.0000000  0.0000000  2
    684    682    686    688     1  180.0000771  0.3347200  3
    684    682    686   1439     1  180.0000771  0.0000000  2
    685   1414   1394   1395     1  0.0000000  0.0000000  2
    685   1414   1394   1396     1  0.0000000  0.0000000  2
    686   1439   1419   1420     1  0.0000000  0.0000000  2
    686   1439   1419   1421     1  0.0000000  0.0000000  2
    687    685   1414   1415     1  0.0000000  8.3680000  1
    687    685   1414   1415     1  180.0000771  10.4600000  2
    688    686   1439   1440     1  0.0000000  8.3680000  1
    688    686   1439   1440     1  180.0000771  10.4600000  2
    691    694    714    715     1  0.0000000  0.0000000  2
    691    697    698    699     1  0.0000000  1.2552000  3
    691    697    698    700     1  0.0000000  1.2552000  3
    691    697    701    702     1  0.0000000  1.2552000  3
    691    697    701    703     1  0.0000000  1.2552000  3
    692    691    694    714     1  0.0000000  0.6508444  3
    692    691    694    695     1  0.0000000  0.6508444  3
    692    691    694    696     1  0.0000000  0.6508444  3
    692    691    697    698     1  0.0000000  1.2552000  3
    692    691    697    701     1  0.0000000  1.2552000  3
    693    691    694    714     1  0.0000000  0.6508444  3
    693    691    694    695     1  0.0000000  0.6508444  3
    693    691    694    696     1  0.0000000  0.6508444  3
    693    691    697    698     1  0.0000000  1.2552000  3
    693    691    697    701     1  0.0000000  1.2552000  3
    695    694    691    697     1  0.0000000  0.6508444  3
    695    694    714    715     1  0.0000000  0.0000000  2
    696    694    691    697     1  0.0000000  0.6508444  3
    696    694    714    715     1  0.0000000  0.0000000  2
    697    698    707    708     1  0.0000000  0.6508444  3
    697    698    707    709     1  0.0000000  0.6508444  3
    697    701    704    705     1  0.0000000  0.6508444  3
    697    701    704    706     1  0.0000000  0.6508444  3
    698    697    701    702     1  0.0000000  1.2552000  3
    698    697    701    703     1  0.0000000  1.2552000  3
    699    698    697    701     1  0.0000000  1.2552000  3
    699    698    707    711     1  0.0000000  0.6508444  3
    699    698    707    708     1  0.0000000  0.6508444  3
    699    698    707    709     1  0.0000000  0.6508444  3
    700    698    697    701     1  0.0000000  1.2552000  3
    700    698    707    711     1  0.0000000  0.6508444  3
    700    698    707    708     1  0.0000000  0.6508444  3
    700    698    707    709     1  0.0000000  0.6508444  3
    702    701    704    710     1  0.0000000  0.6508444  3
    702    701    704    705     1  0.0000000  0.6508444  3
    702    701    704    706     1  0.0000000  0.6508444  3
    703    701    704    710     1  0.0000000  0.6508444  3
    703    701    704    705     1  0.0000000  0.6508444  3
    703    701    704    706     1  0.0000000  0.6508444  3
    704    710   1464   1465     1  180.0000771  10.4600000  2
    705    704    710    712     1  0.0000000  3.3472000  1
    705    704    710    712     1  0.0000000  0.0000000  2
    705    704    710    712     1  180.0000771  0.3347200  3
    705    704    710   1464     1  180.0000771  0.0000000  2
    706    704    710    712     1  0.0000000  3.3472000  1
    706    704    710    712     1  0.0000000  0.0000000  2
    706    704    710    712     1  180.0000771  0.3347200  3
    706    704    710   1464     1  180.0000771  0.0000000  2
    707    711   1489   1490     1  180.0000771  10.4600000  2
    708    707    711    713     1  0.0000000  3.3472000  1
    708    707    711    713     1  0.0000000  0.0000000  2
    708    707    711    713     1  180.0000771  0.3347200  3
    708    707    711   1489     1  180.0000771  0.0000000  2
    709    707    711    713     1  0.0000000  3.3472000  1
    709    707    711    713     1  0.0000000  0.0000000  2
    709    707    711    713     1  180.0000771  0.3347200  3
    709    707    711   1489     1  180.0000771  0.0000000  2
    710   1464   1444   1445     1  0.0000000  0.0000000  2
    710   1464   1444   1446     1  0.0000000  0.0000000  2
    711   1489   1469   1470     1  0.0000000  0.0000000  2
    711   1489   1469   1471     1  0.0000000  0.0000000  2
    712    710   1464   1465     1  0.0000000  8.3680000  1
    712    710   1464   1465     1  180.0000771  10.4600000  2
    713    711   1489   1490     1  0.0000000  8.3680000  1
    713    711   1489   1490     1  180.0000771  10.4600000  2
    716    719    739    740     1  0.0000000  0.0000000  2
    716    722    723    724     1  0.0000000  1.2552000  3
    716    722    723    725     1  0.0000000  1.2552000  3
    716    722    726    727     1  0.0000000  1.2552000  3
    716    722    726    728     1  0.0000000  1.2552000  3
    717    716    719    739     1  0.0000000  0.6508444  3
    717    716    719    720     1  0.0000000  0.6508444  3
    717    716    719    721     1  0.0000000  0.6508444  3
    717    716    722    723     1  0.0000000  1.2552000  3
    717    716    722    726     1  0.0000000  1.2552000  3
    718    716    719    739     1  0.0000000  0.6508444  3
    718    716    719    720     1  0.0000000  0.6508444  3
    718    716    719    721     1  0.0000000  0.6508444  3
    718    716    722    723     1  0.0000000  1.2552000  3
    718    716    722    726     1  0.0000000  1.2552000  3
    720    719    716    722     1  0.0000000  0.6508444  3
    720    719    739    740     1  0.0000000  0.0000000  2
    721    719    716    722     1  0.0000000  0.6508444  3
    721    719    739    740     1  0.0000000  0.0000000  2
    722    723    732    733     1  0.0000000  0.6508444  3
    722    723    732    734     1  0.0000000  0.6508444  3
    722    726    729    730     1  0.0000000  0.6508444  3
    722    726    729    731     1  0.0000000  0.6508444  3
    723    722    726    727     1  0.0000000  1.2552000  3
    723    722    726    728     1  0.0000000  1.2552000  3
    724    723    722    726     1  0.0000000  1.2552000  3
    724    723    732    736     1  0.0000000  0.6508444  3
    724    723    732    733     1  0.0000000  0.6508444  3
    724    723    732    734     1  0.0000000  0.6508444  3
    725    723    722    726     1  0.0000000  1.2552000  3
    725    723    732    736     1  0.0000000  0.6508444  3
    725    723    732    733     1  0.0000000  0.6508444  3
    725    723    732    734     1  0.0000000  0.6508444  3
    727    726    729    735     1  0.0000000  0.6508444  3
    727    726    729    730     1  0.0000000  0.6508444  3
    727    726    729    731     1  0.0000000  0.6508444  3
    728    726    729    735     1  0.0000000  0.6508444  3
    728    726    729    730     1  0.0000000  0.6508444  3
    728    726    729    731     1  0.0000000  0.6508444  3
    729    735   1514   1515     1  180.0000771  10.4600000  2
    730    729    735    737     1  0.0000000  3.3472000  1
    730    729    735    737     1  0.0000000  0.0000000  2
    730    729    735    737     1  180.0000771  0.3347200  3
    730    729    735   1514     1  180.0000771  0.0000000  2
    731    729    735    737     1  0.0000000  3.3472000  1
    731    729    735    737     1  0.0000000  0.0000000  2
    731    729    735    737     1  180.0000771  0.3347200  3
    731    729    735   1514     1  180.0000771  0.0000000  2
    732    736   1539   1540     1  180.0000771  10.4600000  2
    733    732    736    738     1  0.0000000  3.3472000  1
    733    732    736    738     1  0.0000000  0.0000000  2
    733    732    736    738     1  180.0000771  0.3347200  3
    733    732    736   1539     1  180.0000771  0.0000000  2
    734    732    736    738     1  0.0000000  3.3472000  1
    734    732    736    738     1  0.0000000  0.0000000  2
    734    732    736    738     1  180.0000771  0.3347200  3
    734    732    736   1539     1  180.0000771  0.0000000  2
    735   1514   1494   1495     1  0.0000000  0.0000000  2
    735   1514   1494   1496     1  0.0000000  0.0000000  2
    736   1539   1519   1520     1  0.0000000  0.0000000  2
    736   1539   1519   1521     1  0.0000000  0.0000000  2
    737    735   1514   1515     1  0.0000000  8.3680000  1
    737    735   1514   1515     1  180.0000771  10.4600000  2
    738    736   1539   1540     1  0.0000000  8.3680000  1
    738    736   1539   1540     1  180.0000771  10.4600000  2
    741    744    764    765     1  0.0000000  0.0000000  2
    741    747    748    749     1  0.0000000  1.2552000  3
    741    747    748    750     1  0.0000000  1.2552000  3
    741    747    751    752     1  0.0000000  1.2552000  3
    741    747    751    753     1  0.0000000  1.2552000  3
    742    741    744    764     1  0.0000000  0.6508444  3
    742    741    744    745     1  0.0000000  0.6508444  3
    742    741    744    746     1  0.0000000  0.6508444  3
    742    741    747    748     1  0.0000000  1.2552000  3
    742    741    747    751     1  0.0000000  1.2552000  3
    743    741    744    764     1  0.0000000  0.6508444  3
    743    741    744    745     1  0.0000000  0.6508444  3
    743    741    744    746     1  0.0000000  0.6508444  3
    743    741    747    748     1  0.0000000  1.2552000  3
    743    741    747    751     1  0.0000000  1.2552000  3
    745    744    741    747     1  0.0000000  0.6508444  3
    745    744    764    765     1  0.0000000  0.0000000  2
    746    744    741    747     1  0.0000000  0.6508444  3
    746    744    764    765     1  0.0000000  0.0000000  2
    747    748    757    758     1  0.0000000  0.6508444  3
    747    748    757    759     1  0.0000000  0.6508444  3
    747    751    754    755     1  0.0000000  0.6508444  3
    747    751    754    756     1  0.0000000  0.6508444  3
    748    747    751    752     1  0.0000000  1.2552000  3
    748    747    751    753     1  0.0000000  1.2552000  3
    749    748    747    751     1  0.0000000  1.2552000  3
    749    748    757    761     1  0.0000000  0.6508444  3
    749    748    757    758     1  0.0000000  0.6508444  3
    749    748    757    759     1  0.0000000  0.6508444  3
    750    748    747    751     1  0.0000000  1.2552000  3
    750    748    757    761     1  0.0000000  0.6508444  3
    750    748    757    758     1  0.0000000  0.6508444  3
    750    748    757    759     1  0.0000000  0.6508444  3
    752    751    754    760     1  0.0000000  0.6508444  3
    752    751    754    755     1  0.0000000  0.6508444  3
    752    751    754    756     1  0.0000000  0.6508444  3
    753    751    754    760     1  0.0000000  0.6508444  3
    753    751    754    755     1  0.0000000  0.6508444  3
    753    751    754    756     1  0.0000000  0.6508444  3
    754    760   1541   1542     1  180.0000771  10.4600000  2
    755    754    760   1541     1  180.0000771  0.0000000  2
    755    754    760    762     1  0.0000000  3.3472000  1
    755    754    760    762     1  0.0000000  0.0000000  2
    755    754    760    762     1  180.0000771  0.3347200  3
    756    754    760   1541     1  180.0000771  0.0000000  2
    756    754    760    762     1  0.0000000  3.3472000  1
    756    754    760    762     1  0.0000000  0.0000000  2
    756    754    760    762     1  180.0000771  0.3347200  3
    757    761   1614   1615     1  180.0000771  10.4600000  2
    758    757    761    763     1  0.0000000  3.3472000  1
    758    757    761    763     1  0.0000000  0.0000000  2
    758    757    761    763     1  180.0000771  0.3347200  3
    758    757    761   1614     1  180.0000771  0.0000000  2
    759    757    761    763     1  0.0000000  3.3472000  1
    759    757    761    763     1  0.0000000  0.0000000  2
    759    757    761    763     1  180.0000771  0.3347200  3
    759    757    761   1614     1  180.0000771  0.0000000  2
    760   1541   1543   1544     1  0.0000000  0.0000000  2
    760   1541   1543   1546     1  0.0000000  0.0000000  2
    761   1614   1616   1617     1  0.0000000  0.0000000  2
    761   1614   1616   1619     1  0.0000000  0.0000000  2
    762    760   1541   1542     1  0.0000000  8.3680000  1
    762    760   1541   1542     1  180.0000771  10.4600000  2
    763    761   1614   1615     1  0.0000000  8.3680000  1
    763    761   1614   1615     1  180.0000771  10.4600000  2
    766    769    789    790     1  0.0000000  0.0000000  2
    766    772    773    774     1  0.0000000  1.2552000  3
    766    772    773    775     1  0.0000000  1.2552000  3
    766    772    776    777     1  0.0000000  1.2552000  3
    766    772    776    778     1  0.0000000  1.2552000  3
    767    766    769    789     1  0.0000000  0.6508444  3
    767    766    769    770     1  0.0000000  0.6508444  3
    767    766    769    771     1  0.0000000  0.6508444  3
    767    766    772    773     1  0.0000000  1.2552000  3
    767    766    772    776     1  0.0000000  1.2552000  3
    768    766    769    789     1  0.0000000  0.6508444  3
    768    766    769    770     1  0.0000000  0.6508444  3
    768    766    769    771     1  0.0000000  0.6508444  3
    768    766    772    773     1  0.0000000  1.2552000  3
    768    766    772    776     1  0.0000000  1.2552000  3
    770    769    766    772     1  0.0000000  0.6508444  3
    770    769    789    790     1  0.0000000  0.0000000  2
    771    769    766    772     1  0.0000000  0.6508444  3
    771    769    789    790     1  0.0000000  0.0000000  2
    772    773    782    783     1  0.0000000  0.6508444  3
    772    773    782    784     1  0.0000000  0.6508444  3
    772    776    779    780     1  0.0000000  0.6508444  3
    772    776    779    781     1  0.0000000  0.6508444  3
    773    772    776    777     1  0.0000000  1.2552000  3
    773    772    776    778     1  0.0000000  1.2552000  3
    774    773    772    776     1  0.0000000  1.2552000  3
    774    773    782    786     1  0.0000000  0.6508444  3
    774    773    782    783     1  0.0000000  0.6508444  3
    774    773    782    784     1  0.0000000  0.6508444  3
    775    773    772    776     1  0.0000000  1.2552000  3
    775    773    782    786     1  0.0000000  0.6508444  3
    775    773    782    783     1  0.0000000  0.6508444  3
    775    773    782    784     1  0.0000000  0.6508444  3
    777    776    779    785     1  0.0000000  0.6508444  3
    777    776    779    780     1  0.0000000  0.6508444  3
    777    776    779    781     1  0.0000000  0.6508444  3
    778    776    779    785     1  0.0000000  0.6508444  3
    778    776    779    780     1  0.0000000  0.6508444  3
    778    776    779    781     1  0.0000000  0.6508444  3
    779    785   1687   1688     1  180.0000771  10.4600000  2
    780    779    785   1687     1  180.0000771  0.0000000  2
    780    779    785    787     1  0.0000000  3.3472000  1
    780    779    785    787     1  0.0000000  0.0000000  2
    780    779    785    787     1  180.0000771  0.3347200  3
    781    779    785   1687     1  180.0000771  0.0000000  2
    781    779    785    787     1  0.0000000  3.3472000  1
    781    779    785    787     1  0.0000000  0.0000000  2
    781    779    785    787     1  180.0000771  0.3347200  3
    782    786   1760   1761     1  180.0000771  10.4600000  2
    783    782    786    788     1  0.0000000  3.3472000  1
    783    782    786    788     1  0.0000000  0.0000000  2
    783    782    786    788     1  180.0000771  0.3347200  3
    783    782    786   1760     1  180.0000771  0.0000000  2
    784    782    786    788     1  0.0000000  3.3472000  1
    784    782    786    788     1  0.0000000  0.0000000  2
    784    782    786    788     1  180.0000771  0.3347200  3
    784    782    786   1760     1  180.0000771  0.0000000  2
    785   1687   1689   1690     1  0.0000000  0.0000000  2
    785   1687   1689   1692     1  0.0000000  0.0000000  2
    786   1760   1762   1763     1  0.0000000  0.0000000  2
    786   1760   1762   1765     1  0.0000000  0.0000000  2
    787    785   1687   1688     1  0.0000000  8.3680000  1
    787    785   1687   1688     1  180.0000771  10.4600000  2
    788    786   1760   1761     1  0.0000000  8.3680000  1
    788    786   1760   1761     1  180.0000771  10.4600000  2
    791    794    814    815     1  0.0000000  0.0000000  2
    791    797    798    799     1  0.0000000  1.2552000  3
    791    797    798    800     1  0.0000000  1.2552000  3
    791    797    801    802     1  0.0000000  1.2552000  3
    791    797    801    803     1  0.0000000  1.2552000  3
    792    791    794    814     1  0.0000000  0.6508444  3
    792    791    794    795     1  0.0000000  0.6508444  3
    792    791    794    796     1  0.0000000  0.6508444  3
    792    791    797    798     1  0.0000000  1.2552000  3
    792    791    797    801     1  0.0000000  1.2552000  3
    793    791    794    814     1  0.0000000  0.6508444  3
    793    791    794    795     1  0.0000000  0.6508444  3
    793    791    794    796     1  0.0000000  0.6508444  3
    793    791    797    798     1  0.0000000  1.2552000  3
    793    791    797    801     1  0.0000000  1.2552000  3
    795    794    791    797     1  0.0000000  0.6508444  3
    795    794    814    815     1  0.0000000  0.0000000  2
    796    794    791    797     1  0.0000000  0.6508444  3
    796    794    814    815     1  0.0000000  0.0000000  2
    797    798    807    808     1  0.0000000  0.6508444  3
    797    798    807    809     1  0.0000000  0.6508444  3
    797    801    804    805     1  0.0000000  0.6508444  3
    797    801    804    806     1  0.0000000  0.6508444  3
    798    797    801    802     1  0.0000000  1.2552000  3
    798    797    801    803     1  0.0000000  1.2552000  3
    799    798    797    801     1  0.0000000  1.2552000  3
    799    798    807    811     1  0.0000000  0.6508444  3
    799    798    807    808     1  0.0000000  0.6508444  3
    799    798    807    809     1  0.0000000  0.6508444  3
    800    798    797    801     1  0.0000000  1.2552000  3
    800    798    807    811     1  0.0000000  0.6508444  3
    800    798    807    808     1  0.0000000  0.6508444  3
    800    798    807    809     1  0.0000000  0.6508444  3
    802    801    804    810     1  0.0000000  0.6508444  3
    802    801    804    805     1  0.0000000  0.6508444  3
    802    801    804    806     1  0.0000000  0.6508444  3
    803    801    804    810     1  0.0000000  0.6508444  3
    803    801    804    805     1  0.0000000  0.6508444  3
    803    801    804    806     1  0.0000000  0.6508444  3
    804    810   1833   1834     1  180.0000771  10.4600000  2
    805    804    810   1833     1  180.0000771  0.0000000  2
    805    804    810    812     1  0.0000000  3.3472000  1
    805    804    810    812     1  0.0000000  0.0000000  2
    805    804    810    812     1  180.0000771  0.3347200  3
    806    804    810   1833     1  180.0000771  0.0000000  2
    806    804    810    812     1  0.0000000  3.3472000  1
    806    804    810    812     1  0.0000000  0.0000000  2
    806    804    810    812     1  180.0000771  0.3347200  3
    807    811   1906   1907     1  180.0000771  10.4600000  2
    808    807    811    813     1  0.0000000  3.3472000  1
    808    807    811    813     1  0.0000000  0.0000000  2
    808    807    811    813     1  180.0000771  0.3347200  3
    808    807    811   1906     1  180.0000771  0.0000000  2
    809    807    811    813     1  0.0000000  3.3472000  1
    809    807    811    813     1  0.0000000  0.0000000  2
    809    807    811    813     1  180.0000771  0.3347200  3
    809    807    811   1906     1  180.0000771  0.0000000  2
    810   1833   1835   1836     1  0.0000000  0.0000000  2
    810   1833   1835   1838     1  0.0000000  0.0000000  2
    811   1906   1908   1909     1  0.0000000  0.0000000  2
    811   1906   1908   1911     1  0.0000000  0.0000000  2
    812    810   1833   1834     1  0.0000000  8.3680000  1
    812    810   1833   1834     1  180.0000771  10.4600000  2
    813    811   1906   1907     1  0.0000000  8.3680000  1
    813    811   1906   1907     1  180.0000771  10.4600000  2
    816    819    839    840     1  0.0000000  0.0000000  2
    816    822    823    824     1  0.0000000  1.2552000  3
    816    822    823    825     1  0.0000000  1.2552000  3
    816    822    826    827     1  0.0000000  1.2552000  3
    816    822    826    828     1  0.0000000  1.2552000  3
    817    816    819    839     1  0.0000000  0.6508444  3
    817    816    819    820     1  0.0000000  0.6508444  3
    817    816    819    821     1  0.0000000  0.6508444  3
    817    816    822    823     1  0.0000000  1.2552000  3
    817    816    822    826     1  0.0000000  1.2552000  3
    818    816    819    839     1  0.0000000  0.6508444  3
    818    816    819    820     1  0.0000000  0.6508444  3
    818    816    819    821     1  0.0000000  0.6508444  3
    818    816    822    823     1  0.0000000  1.2552000  3
    818    816    822    826     1  0.0000000  1.2552000  3
    820    819    816    822     1  0.0000000  0.6508444  3
    820    819    839    840     1  0.0000000  0.0000000  2
    821    819    816    822     1  0.0000000  0.6508444  3
    821    819    839    840     1  0.0000000  0.0000000  2
    822    823    832    833     1  0.0000000  0.6508444  3
    822    823    832    834     1  0.0000000  0.6508444  3
    822    826    829    830     1  0.0000000  0.6508444  3
    822    826    829    831     1  0.0000000  0.6508444  3
    823    822    826    827     1  0.0000000  1.2552000  3
    823    822    826    828     1  0.0000000  1.2552000  3
    824    823    822    826     1  0.0000000  1.2552000  3
    824    823    832    836     1  0.0000000  0.6508444  3
    824    823    832    833     1  0.0000000  0.6508444  3
    824    823    832    834     1  0.0000000  0.6508444  3
    825    823    822    826     1  0.0000000  1.2552000  3
    825    823    832    836     1  0.0000000  0.6508444  3
    825    823    832    833     1  0.0000000  0.6508444  3
    825    823    832    834     1  0.0000000  0.6508444  3
    827    826    829    835     1  0.0000000  0.6508444  3
    827    826    829    830     1  0.0000000  0.6508444  3
    827    826    829    831     1  0.0000000  0.6508444  3
    828    826    829    835     1  0.0000000  0.6508444  3
    828    826    829    830     1  0.0000000  0.6508444  3
    828    826    829    831     1  0.0000000  0.6508444  3
    829    835   1979   1980     1  180.0000771  10.4600000  2
    830    829    835   1979     1  180.0000771  0.0000000  2
    830    829    835    837     1  0.0000000  3.3472000  1
    830    829    835    837     1  0.0000000  0.0000000  2
    830    829    835    837     1  180.0000771  0.3347200  3
    831    829    835   1979     1  180.0000771  0.0000000  2
    831    829    835    837     1  0.0000000  3.3472000  1
    831    829    835    837     1  0.0000000  0.0000000  2
    831    829    835    837     1  180.0000771  0.3347200  3
    832    836   2052   2053     1  180.0000771  10.4600000  2
    833    832    836    838     1  0.0000000  3.3472000  1
    833    832    836    838     1  0.0000000  0.0000000  2
    833    832    836    838     1  180.0000771  0.3347200  3
    833    832    836   2052     1  180.0000771  0.0000000  2
    834    832    836    838     1  0.0000000  3.3472000  1
    834    832    836    838     1  0.0000000  0.0000000  2
    834    832    836    838     1  180.0000771  0.3347200  3
    834    832    836   2052     1  180.0000771  0.0000000  2
    835   1979   1981   1982     1  0.0000000  0.0000000  2
    835   1979   1981   1984     1  0.0000000  0.0000000  2
    836   2052   2054   2055     1  0.0000000  0.0000000  2
    836   2052   2054   2057     1  0.0000000  0.0000000  2
    837    835   1979   1980     1  0.0000000  8.3680000  1
    837    835   1979   1980     1  180.0000771  10.4600000  2
    838    836   2052   2053     1  0.0000000  8.3680000  1
    838    836   2052   2053     1  180.0000771  10.4600000  2
    841    844    864    865     1  0.0000000  0.0000000  2
    841    847    848    849     1  0.0000000  1.2552000  3
    841    847    848    850     1  0.0000000  1.2552000  3
    841    847    851    852     1  0.0000000  1.2552000  3
    841    847    851    853     1  0.0000000  1.2552000  3
    842    841    844    864     1  0.0000000  0.6508444  3
    842    841    844    845     1  0.0000000  0.6508444  3
    842    841    844    846     1  0.0000000  0.6508444  3
    842    841    847    848     1  0.0000000  1.2552000  3
    842    841    847    851     1  0.0000000  1.2552000  3
    843    841    844    864     1  0.0000000  0.6508444  3
    843    841    844    845     1  0.0000000  0.6508444  3
    843    841    844    846     1  0.0000000  0.6508444  3
    843    841    847    848     1  0.0000000  1.2552000  3
    843    841    847    851     1  0.0000000  1.2552000  3
    845    844    841    847     1  0.0000000  0.6508444  3
    845    844    864    865     1  0.0000000  0.0000000  2
    846    844    841    847     1  0.0000000  0.6508444  3
    846    844    864    865     1  0.0000000  0.0000000  2
    847    848    857    858     1  0.0000000  0.6508444  3
    847    848    857    859     1  0.0000000  0.6508444  3
    847    851    854    855     1  0.0000000  0.6508444  3
    847    851    854    856     1  0.0000000  0.6508444  3
    848    847    851    852     1  0.0000000  1.2552000  3
    848    847    851    853     1  0.0000000  1.2552000  3
    849    848    847    851     1  0.0000000  1.2552000  3
    849    848    857    861     1  0.0000000  0.6508444  3
    849    848    857    858     1  0.0000000  0.6508444  3
    849    848    857    859     1  0.0000000  0.6508444  3
    850    848    847    851     1  0.0000000  1.2552000  3
    850    848    857    861     1  0.0000000  0.6508444  3
    850    848    857    858     1  0.0000000  0.6508444  3
    850    848    857    859     1  0.0000000  0.6508444  3
    852    851    854    860     1  0.0000000  0.6508444  3
    852    851    854    855     1  0.0000000  0.6508444  3
    852    851    854    856     1  0.0000000  0.6508444  3
    853    851    854    860     1  0.0000000  0.6508444  3
    853    851    854    855     1  0.0000000  0.6508444  3
    853    851    854    856     1  0.0000000  0.6508444  3
    854    860   2125   2126     1  180.0000771  10.4600000  2
    855    854    860   2125     1  180.0000771  0.0000000  2
    855    854    860    862     1  0.0000000  3.3472000  1
    855    854    860    862     1  0.0000000  0.0000000  2
    855    854    860    862     1  180.0000771  0.3347200  3
    856    854    860   2125     1  180.0000771  0.0000000  2
    856    854    860    862     1  0.0000000  3.3472000  1
    856    854    860    862     1  0.0000000  0.0000000  2
    856    854    860    862     1  180.0000771  0.3347200  3
    857    861   2198   2199     1  180.0000771  10.4600000  2
    858    857    861    863     1  0.0000000  3.3472000  1
    858    857    861    863     1  0.0000000  0.0000000  2
    858    857    861    863     1  180.0000771  0.3347200  3
    858    857    861   2198     1  180.0000771  0.0000000  2
    859    857    861    863     1  0.0000000  3.3472000  1
    859    857    861    863     1  0.0000000  0.0000000  2
    859    857    861    863     1  180.0000771  0.3347200  3
    859    857    861   2198     1  180.0000771  0.0000000  2
    860   2125   2127   2128     1  0.0000000  0.0000000  2
    860   2125   2127   2130     1  0.0000000  0.0000000  2
    861   2198   2200   2201     1  0.0000000  0.0000000  2
    861   2198   2200   2203     1  0.0000000  0.0000000  2
    862    860   2125   2126     1  0.0000000  8.3680000  1
    862    860   2125   2126     1  180.0000771  10.4600000  2
    863    861   2198   2199     1  0.0000000  8.3680000  1
    863    861   2198   2199     1  180.0000771  10.4600000  2
    866    869    889    890     1  0.0000000  0.0000000  2
    866    872    873    874     1  0.0000000  1.2552000  3
    866    872    873    875     1  0.0000000  1.2552000  3
    866    872    876    877     1  0.0000000  1.2552000  3
    866    872    876    878     1  0.0000000  1.2552000  3
    867    866    869    889     1  0.0000000  0.6508444  3
    867    866    869    870     1  0.0000000  0.6508444  3
    867    866    869    871     1  0.0000000  0.6508444  3
    867    866    872    873     1  0.0000000  1.2552000  3
    867    866    872    876     1  0.0000000  1.2552000  3
    868    866    869    889     1  0.0000000  0.6508444  3
    868    866    869    870     1  0.0000000  0.6508444  3
    868    866    869    871     1  0.0000000  0.6508444  3
    868    866    872    873     1  0.0000000  1.2552000  3
    868    866    872    876     1  0.0000000  1.2552000  3
    870    869    866    872     1  0.0000000  0.6508444  3
    870    869    889    890     1  0.0000000  0.0000000  2
    871    869    866    872     1  0.0000000  0.6508444  3
    871    869    889    890     1  0.0000000  0.0000000  2
    872    873    882    883     1  0.0000000  0.6508444  3
    872    873    882    884     1  0.0000000  0.6508444  3
    872    876    879    880     1  0.0000000  0.6508444  3
    872    876    879    881     1  0.0000000  0.6508444  3
    873    872    876    877     1  0.0000000  1.2552000  3
    873    872    876    878     1  0.0000000  1.2552000  3
    874    873    872    876     1  0.0000000  1.2552000  3
    874    873    882    886     1  0.0000000  0.6508444  3
    874    873    882    883     1  0.0000000  0.6508444  3
    874    873    882    884     1  0.0000000  0.6508444  3
    875    873    872    876     1  0.0000000  1.2552000  3
    875    873    882    886     1  0.0000000  0.6508444  3
    875    873    882    883     1  0.0000000  0.6508444  3
    875    873    882    884     1  0.0000000  0.6508444  3
    877    876    879    885     1  0.0000000  0.6508444  3
    877    876    879    880     1  0.0000000  0.6508444  3
    877    876    879    881     1  0.0000000  0.6508444  3
    878    876    879    885     1  0.0000000  0.6508444  3
    878    876    879    880     1  0.0000000  0.6508444  3
    878    876    879    881     1  0.0000000  0.6508444  3
    879    885   2271   2272     1  180.0000771  10.4600000  2
    880    879    885   2271     1  180.0000771  0.0000000  2
    880    879    885    887     1  0.0000000  3.3472000  1
    880    879    885    887     1  0.0000000  0.0000000  2
    880    879    885    887     1  180.0000771  0.3347200  3
    881    879    885   2271     1  180.0000771  0.0000000  2
    881    879    885    887     1  0.0000000  3.3472000  1
    881    879    885    887     1  0.0000000  0.0000000  2
    881    879    885    887     1  180.0000771  0.3347200  3
    882    886   2344   2345     1  180.0000771  10.4600000  2
    883    882    886    888     1  0.0000000  3.3472000  1
    883    882    886    888     1  0.0000000  0.0000000  2
    883    882    886    888     1  180.0000771  0.3347200  3
    883    882    886   2344     1  180.0000771  0.0000000  2
    884    882    886    888     1  0.0000000  3.3472000  1
    884    882    886    888     1  0.0000000  0.0000000  2
    884    882    886    888     1  180.0000771  0.3347200  3
    884    882    886   2344     1  180.0000771  0.0000000  2
    885   2271   2273   2274     1  0.0000000  0.0000000  2
    885   2271   2273   2276     1  0.0000000  0.0000000  2
    886   2344   2346   2347     1  0.0000000  0.0000000  2
    886   2344   2346   2349     1  0.0000000  0.0000000  2
    887    885   2271   2272     1  0.0000000  8.3680000  1
    887    885   2271   2272     1  180.0000771  10.4600000  2
    888    886   2344   2345     1  0.0000000  8.3680000  1
    888    886   2344   2345     1  180.0000771  10.4600000  2
    891    894    914    915     1  0.0000000  0.0000000  2
    891    897    898    899     1  0.0000000  1.2552000  3
    891    897    898    900     1  0.0000000  1.2552000  3
    891    897    901    902     1  0.0000000  1.2552000  3
    891    897    901    903     1  0.0000000  1.2552000  3
    892    891    894    914     1  0.0000000  0.6508444  3
    892    891    894    895     1  0.0000000  0.6508444  3
    892    891    894    896     1  0.0000000  0.6508444  3
    892    891    897    898     1  0.0000000  1.2552000  3
    892    891    897    901     1  0.0000000  1.2552000  3
    893    891    894    914     1  0.0000000  0.6508444  3
    893    891    894    895     1  0.0000000  0.6508444  3
    893    891    894    896     1  0.0000000  0.6508444  3
    893    891    897    898     1  0.0000000  1.2552000  3
    893    891    897    901     1  0.0000000  1.2552000  3
    895    894    891    897     1  0.0000000  0.6508444  3
    895    894    914    915     1  0.0000000  0.0000000  2
    896    894    891    897     1  0.0000000  0.6508444  3
    896    894    914    915     1  0.0000000  0.0000000  2
    897    898    907    908     1  0.0000000  0.6508444  3
    897    898    907    909     1  0.0000000  0.6508444  3
    897    901    904    905     1  0.0000000  0.6508444  3
    897    901    904    906     1  0.0000000  0.6508444  3
    898    897    901    902     1  0.0000000  1.2552000  3
    898    897    901    903     1  0.0000000  1.2552000  3
    899    898    897    901     1  0.0000000  1.2552000  3
    899    898    907    911     1  0.0000000  0.6508444  3
    899    898    907    908     1  0.0000000  0.6508444  3
    899    898    907    909     1  0.0000000  0.6508444  3
    900    898    897    901     1  0.0000000  1.2552000  3
    900    898    907    911     1  0.0000000  0.6508444  3
    900    898    907    908     1  0.0000000  0.6508444  3
    900    898    907    909     1  0.0000000  0.6508444  3
    902    901    904    910     1  0.0000000  0.6508444  3
    902    901    904    905     1  0.0000000  0.6508444  3
    902    901    904    906     1  0.0000000  0.6508444  3
    903    901    904    910     1  0.0000000  0.6508444  3
    903    901    904    905     1  0.0000000  0.6508444  3
    903    901    904    906     1  0.0000000  0.6508444  3
    904    910   2417   2418     1  180.0000771  10.4600000  2
    905    904    910   2417     1  180.0000771  0.0000000  2
    905    904    910    912     1  0.0000000  3.3472000  1
    905    904    910    912     1  0.0000000  0.0000000  2
    905    904    910    912     1  180.0000771  0.3347200  3
    906    904    910   2417     1  180.0000771  0.0000000  2
    906    904    910    912     1  0.0000000  3.3472000  1
    906    904    910    912     1  0.0000000  0.0000000  2
    906    904    910    912     1  180.0000771  0.3347200  3
    907    911   2490   2491     1  180.0000771  10.4600000  2
    908    907    911    913     1  0.0000000  3.3472000  1
    908    907    911    913     1  0.0000000  0.0000000  2
    908    907    911    913     1  180.0000771  0.3347200  3
    908    907    911   2490     1  180.0000771  0.0000000  2
    909    907    911    913     1  0.0000000  3.3472000  1
    909    907    911    913     1  0.0000000  0.0000000  2
    909    907    911    913     1  180.0000771  0.3347200  3
    909    907    911   2490     1  180.0000771  0.0000000  2
    910   2417   2419   2420     1  0.0000000  0.0000000  2
    910   2417   2419   2422     1  0.0000000  0.0000000  2
    911   2490   2492   2493     1  0.0000000  0.0000000  2
    911   2490   2492   2495     1  0.0000000  0.0000000  2
    912    910   2417   2418     1  0.0000000  8.3680000  1
    912    910   2417   2418     1  180.0000771  10.4600000  2
    913    911   2490   2491     1  0.0000000  8.3680000  1
    913    911   2490   2491     1  180.0000771  10.4600000  2
    916    919    939    940     1  0.0000000  0.0000000  2
    916    922    923    924     1  0.0000000  1.2552000  3
    916    922    923    925     1  0.0000000  1.2552000  3
    916    922    926    927     1  0.0000000  1.2552000  3
    916    922    926    928     1  0.0000000  1.2552000  3
    917    916    919    939     1  0.0000000  0.6508444  3
    917    916    919    920     1  0.0000000  0.6508444  3
    917    916    919    921     1  0.0000000  0.6508444  3
    917    916    922    923     1  0.0000000  1.2552000  3
    917    916    922    926     1  0.0000000  1.2552000  3
    918    916    919    939     1  0.0000000  0.6508444  3
    918    916    919    920     1  0.0000000  0.6508444  3
    918    916    919    921     1  0.0000000  0.6508444  3
    918    916    922    923     1  0.0000000  1.2552000  3
    918    916    922    926     1  0.0000000  1.2552000  3
    920    919    916    922     1  0.0000000  0.6508444  3
    920    919    939    940     1  0.0000000  0.0000000  2
    921    919    916    922     1  0.0000000  0.6508444  3
    921    919    939    940     1  0.0000000  0.0000000  2
    922    923    932    933     1  0.0000000  0.6508444  3
    922    923    932    934     1  0.0000000  0.6508444  3
    922    926    929    930     1  0.0000000  0.6508444  3
    922    926    929    931     1  0.0000000  0.6508444  3
    923    922    926    927     1  0.0000000  1.2552000  3
    923    922    926    928     1  0.0000000  1.2552000  3
    924    923    922    926     1  0.0000000  1.2552000  3
    924    923    932    936     1  0.0000000  0.6508444  3
    924    923    932    933     1  0.0000000  0.6508444  3
    924    923    932    934     1  0.0000000  0.6508444  3
    925    923    922    926     1  0.0000000  1.2552000  3
    925    923    932    936     1  0.0000000  0.6508444  3
    925    923    932    933     1  0.0000000  0.6508444  3
    925    923    932    934     1  0.0000000  0.6508444  3
    927    926    929    935     1  0.0000000  0.6508444  3
    927    926    929    930     1  0.0000000  0.6508444  3
    927    926    929    931     1  0.0000000  0.6508444  3
    928    926    929    935     1  0.0000000  0.6508444  3
    928    926    929    930     1  0.0000000  0.6508444  3
    928    926    929    931     1  0.0000000  0.6508444  3
    929    935   2563   2564     1  180.0000771  10.4600000  2
    930    929    935   2563     1  180.0000771  0.0000000  2
    930    929    935    937     1  0.0000000  3.3472000  1
    930    929    935    937     1  0.0000000  0.0000000  2
    930    929    935    937     1  180.0000771  0.3347200  3
    931    929    935   2563     1  180.0000771  0.0000000  2
    931    929    935    937     1  0.0000000  3.3472000  1
    931    929    935    937     1  0.0000000  0.0000000  2
    931    929    935    937     1  180.0000771  0.3347200  3
    932    936   2636   2637     1  180.0000771  10.4600000  2
    933    932    936    938     1  0.0000000  3.3472000  1
    933    932    936    938     1  0.0000000  0.0000000  2
    933    932    936    938     1  180.0000771  0.3347200  3
    933    932    936   2636     1  180.0000771  0.0000000  2
    934    932    936    938     1  0.0000000  3.3472000  1
    934    932    936    938     1  0.0000000  0.0000000  2
    934    932    936    938     1  180.0000771  0.3347200  3
    934    932    936   2636     1  180.0000771  0.0000000  2
    935   2563   2565   2566     1  0.0000000  0.0000000  2
    935   2563   2565   2568     1  0.0000000  0.0000000  2
    936   2636   2638   2639     1  0.0000000  0.0000000  2
    936   2636   2638   2641     1  0.0000000  0.0000000  2
    937    935   2563   2564     1  0.0000000  8.3680000  1
    937    935   2563   2564     1  180.0000771  10.4600000  2
    938    936   2636   2637     1  0.0000000  8.3680000  1
    938    936   2636   2637     1  180.0000771  10.4600000  2
    941    944    964    965     1  0.0000000  0.0000000  2
    941    947    948    949     1  0.0000000  1.2552000  3
    941    947    948    950     1  0.0000000  1.2552000  3
    941    947    951    952     1  0.0000000  1.2552000  3
    941    947    951    953     1  0.0000000  1.2552000  3
    942    941    944    964     1  0.0000000  0.6508444  3
    942    941    944    945     1  0.0000000  0.6508444  3
    942    941    944    946     1  0.0000000  0.6508444  3
    942    941    947    948     1  0.0000000  1.2552000  3
    942    941    947    951     1  0.0000000  1.2552000  3
    943    941    944    964     1  0.0000000  0.6508444  3
    943    941    944    945     1  0.0000000  0.6508444  3
    943    941    944    946     1  0.0000000  0.6508444  3
    943    941    947    948     1  0.0000000  1.2552000  3
    943    941    947    951     1  0.0000000  1.2552000  3
    945    944    941    947     1  0.0000000  0.6508444  3
    945    944    964    965     1  0.0000000  0.0000000  2
    946    944    941    947     1  0.0000000  0.6508444  3
    946    944    964    965     1  0.0000000  0.0000000  2
    947    948    957    958     1  0.0000000  0.6508444  3
    947    948    957    959     1  0.0000000  0.6508444  3
    947    951    954    955     1  0.0000000  0.6508444  3
    947    951    954    956     1  0.0000000  0.6508444  3
    948    947    951    952     1  0.0000000  1.2552000  3
    948    947    951    953     1  0.0000000  1.2552000  3
    949    948    947    951     1  0.0000000  1.2552000  3
    949    948    957    961     1  0.0000000  0.6508444  3
    949    948    957    958     1  0.0000000  0.6508444  3
    949    948    957    959     1  0.0000000  0.6508444  3
    950    948    947    951     1  0.0000000  1.2552000  3
    950    948    957    961     1  0.0000000  0.6508444  3
    950    948    957    958     1  0.0000000  0.6508444  3
    950    948    957    959     1  0.0000000  0.6508444  3
    952    951    954    960     1  0.0000000  0.6508444  3
    952    951    954    955     1  0.0000000  0.6508444  3
    952    951    954    956     1  0.0000000  0.6508444  3
    953    951    954    960     1  0.0000000  0.6508444  3
    953    951    954    955     1  0.0000000  0.6508444  3
    953    951    954    956     1  0.0000000  0.6508444  3
    954    960   2709   2710     1  180.0000771  10.4600000  2
    955    954    960   2709     1  180.0000771  0.0000000  2
    955    954    960    962     1  0.0000000  3.3472000  1
    955    954    960    962     1  0.0000000  0.0000000  2
    955    954    960    962     1  180.0000771  0.3347200  3
    956    954    960   2709     1  180.0000771  0.0000000  2
    956    954    960    962     1  0.0000000  3.3472000  1
    956    954    960    962     1  0.0000000  0.0000000  2
    956    954    960    962     1  180.0000771  0.3347200  3
    957    961   2782   2783     1  180.0000771  10.4600000  2
    958    957    961    963     1  0.0000000  3.3472000  1
    958    957    961    963     1  0.0000000  0.0000000  2
    958    957    961    963     1  180.0000771  0.3347200  3
    958    957    961   2782     1  180.0000771  0.0000000  2
    959    957    961    963     1  0.0000000  3.3472000  1
    959    957    961    963     1  0.0000000  0.0000000  2
    959    957    961    963     1  180.0000771  0.3347200  3
    959    957    961   2782     1  180.0000771  0.0000000  2
    960   2709   2711   2712     1  0.0000000  0.0000000  2
    960   2709   2711   2714     1  0.0000000  0.0000000  2
    961   2782   2784   2785     1  0.0000000  0.0000000  2
    961   2782   2784   2787     1  0.0000000  0.0000000  2
    962    960   2709   2710     1  0.0000000  8.3680000  1
    962    960   2709   2710     1  180.0000771  10.4600000  2
    963    961   2782   2783     1  0.0000000  8.3680000  1
    963    961   2782   2783     1  180.0000771  10.4600000  2
    966    969    989    990     1  0.0000000  0.0000000  2
    966    972    973    974     1  0.0000000  1.2552000  3
    966    972    973    975     1  0.0000000  1.2552000  3
    966    972    976    977     1  0.0000000  1.2552000  3
    966    972    976    978     1  0.0000000  1.2552000  3
    967    966    969    989     1  0.0000000  0.6508444  3
    967    966    969    970     1  0.0000000  0.6508444  3
    967    966    969    971     1  0.0000000  0.6508444  3
    967    966    972    973     1  0.0000000  1.2552000  3
    967    966    972    976     1  0.0000000  1.2552000  3
    968    966    969    989     1  0.0000000  0.6508444  3
    968    966    969    970     1  0.0000000  0.6508444  3
    968    966    969    971     1  0.0000000  0.6508444  3
    968    966    972    973     1  0.0000000  1.2552000  3
    968    966    972    976     1  0.0000000  1.2552000  3
    970    969    966    972     1  0.0000000  0.6508444  3
    970    969    989    990     1  0.0000000  0.0000000  2
    971    969    966    972     1  0.0000000  0.6508444  3
    971    969    989    990     1  0.0000000  0.0000000  2
    972    973    982    983     1  0.0000000  0.6508444  3
    972    973    982    984     1  0.0000000  0.6508444  3
    972    976    979    980     1  0.0000000  0.6508444  3
    972    976    979    981     1  0.0000000  0.6508444  3
    973    972    976    977     1  0.0000000  1.2552000  3
    973    972    976    978     1  0.0000000  1.2552000  3
    974    973    972    976     1  0.0000000  1.2552000  3
    974    973    982    986     1  0.0000000  0.6508444  3
    974    973    982    983     1  0.0000000  0.6508444  3
    974    973    982    984     1  0.0000000  0.6508444  3
    975    973    972    976     1  0.0000000  1.2552000  3
    975    973    982    986     1  0.0000000  0.6508444  3
    975    973    982    983     1  0.0000000  0.6508444  3
    975    973    982    984     1  0.0000000  0.6508444  3
    977    976    979    985     1  0.0000000  0.6508444  3
    977    976    979    980     1  0.0000000  0.6508444  3
    977    976    979    981     1  0.0000000  0.6508444  3
    978    976    979    985     1  0.0000000  0.6508444  3
    978    976    979    980     1  0.0000000  0.6508444  3
    978    976    979    981     1  0.0000000  0.6508444  3
    979    985   2855   2856     1  180.0000771  10.4600000  2
    980    979    985   2855     1  180.0000771  0.0000000  2
    980    979    985    987     1  0.0000000  3.3472000  1
    980    979    985    987     1  0.0000000  0.0000000  2
    980    979    985    987     1  180.0000771  0.3347200  3
    981    979    985   2855     1  180.0000771  0.0000000  2
    981    979    985    987     1  0.0000000  3.3472000  1
    981    979    985    987     1  0.0000000  0.0000000  2
    981    979    985    987     1  180.0000771  0.3347200  3
    982    986   2928   2929     1  180.0000771  10.4600000  2
    983    982    986    988     1  0.0000000  3.3472000  1
    983    982    986    988     1  0.0000000  0.0000000  2
    983    982    986    988     1  180.0000771  0.3347200  3
    983    982    986   2928     1  180.0000771  0.0000000  2
    984    982    986    988     1  0.0000000  3.3472000  1
    984    982    986    988     1  0.0000000  0.0000000  2
    984    982    986    988     1  180.0000771  0.3347200  3
    984    982    986   2928     1  180.0000771  0.0000000  2
    985   2855   2857   2858     1  0.0000000  0.0000000  2
    985   2855   2857   2860     1  0.0000000  0.0000000  2
    986   2928   2930   2931     1  0.0000000  0.0000000  2
    986   2928   2930   2933     1  0.0000000  0.0000000  2
    987    985   2855   2856     1  0.0000000  8.3680000  1
    987    985   2855   2856     1  180.0000771  10.4600000  2
    988    986   2928   2929     1  0.0000000  8.3680000  1
    988    986   2928   2929     1  180.0000771  10.4600000  2
    991    994   1014   1015     1  0.0000000  0.0000000  2
    991    997    998    999     1  0.0000000  1.2552000  3
    991    997    998   1000     1  0.0000000  1.2552000  3
    991    997   1001   1002     1  0.0000000  1.2552000  3
    991    997   1001   1003     1  0.0000000  1.2552000  3
    992    991    994   1014     1  0.0000000  0.6508444  3
    992    991    994    995     1  0.0000000  0.6508444  3
    992    991    994    996     1  0.0000000  0.6508444  3
    992    991    997    998     1  0.0000000  1.2552000  3
    992    991    997   1001     1  0.0000000  1.2552000  3
    993    991    994   1014     1  0.0000000  0.6508444  3
    993    991    994    995     1  0.0000000  0.6508444  3
    993    991    994    996     1  0.0000000  0.6508444  3
    993    991    997    998     1  0.0000000  1.2552000  3
    993    991    997   1001     1  0.0000000  1.2552000  3
    995    994    991    997     1  0.0000000  0.6508444  3
    995    994   1014   1015     1  0.0000000  0.0000000  2
    996    994    991    997     1  0.0000000  0.6508444  3
    996    994   1014   1015     1  0.0000000  0.0000000  2
    997    998   1007   1008     1  0.0000000  0.6508444  3
    997    998   1007   1009     1  0.0000000  0.6508444  3
    997   1001   1004   1005     1  0.0000000  0.6508444  3
    997   1001   1004   1006     1  0.0000000  0.6508444  3
    998    997   1001   1002     1  0.0000000  1.2552000  3
    998    997   1001   1003     1  0.0000000  1.2552000  3
    999    998    997   1001     1  0.0000000  1.2552000  3
    999    998   1007   1011     1  0.0000000  0.6508444  3
    999    998   1007   1008     1  0.0000000  0.6508444  3
    999    998   1007   1009     1  0.0000000  0.6508444  3
   1000    998    997   1001     1  0.0000000  1.2552000  3
   1000    998   1007   1011     1  0.0000000  0.6508444  3
   1000    998   1007   1008     1  0.0000000  0.6508444  3
   1000    998   1007   1009     1  0.0000000  0.6508444  3
   1002   1001   1004   1010     1  0.0000000  0.6508444  3
   1002   1001   1004   1005     1  0.0000000  0.6508444  3
   1002   1001   1004   1006     1  0.0000000  0.6508444  3
   1003   1001   1004   1010     1  0.0000000  0.6508444  3
   1003   1001   1004   1005     1  0.0000000  0.6508444  3
   1003   1001   1004   1006     1  0.0000000  0.6508444  3
   1004   1010   3001   3002     1  180.0000771  10.4600000  2
   1005   1004   1010   3001     1  180.0000771  0.0000000  2
   1005   1004   1010   1012     1  0.0000000  3.3472000  1
   1005   1004   1010   1012     1  0.0000000  0.0000000  2
   1005   1004   1010   1012     1  180.0000771  0.3347200  3
   1006   1004   1010   3001     1  180.0000771  0.0000000  2
   1006   1004   1010   1012     1  0.0000000  3.3472000  1
   1006   1004   1010   1012     1  0.0000000  0.0000000  2
   1006   1004   1010   1012     1  180.0000771  0.3347200  3
   1007   1011   3074   3075     1  180.0000771  10.4600000  2
   1008   1007   1011   1013     1  0.0000000  3.3472000  1
   1008   1007   1011   1013     1  0.0000000  0.0000000  2
   1008   1007   1011   1013     1  180.0000771  0.3347200  3
   1008   1007   1011   3074     1  180.0000771  0.0000000  2
   1009   1007   1011   1013     1  0.0000000  3.3472000  1
   1009   1007   1011   1013     1  0.0000000  0.0000000  2
   1009   1007   1011   1013     1  180.0000771  0.3347200  3
   1009   1007   1011   3074     1  180.0000771  0.0000000  2
   1010   3001   3003   3004     1  0.0000000  0.0000000  2
   1010   3001   3003   3006     1  0.0000000  0.0000000  2
   1011   3074   3076   3077     1  0.0000000  0.0000000  2
   1011   3074   3076   3079     1  0.0000000  0.0000000  2
   1012   1010   3001   3002     1  0.0000000  8.3680000  1
   1012   1010   3001   3002     1  180.0000771  10.4600000  2
   1013   1011   3074   3075     1  0.0000000  8.3680000  1
   1013   1011   3074   3075     1  180.0000771  10.4600000  2
   1016   1019   1039   1040     1  0.0000000  0.0000000  2
   1016   1022   1023   1024     1  0.0000000  1.2552000  3
   1016   1022   1023   1025     1  0.0000000  1.2552000  3
   1016   1022   1026   1027     1  0.0000000  1.2552000  3
   1016   1022   1026   1028     1  0.0000000  1.2552000  3
   1017   1016   1019   1039     1  0.0000000  0.6508444  3
   1017   1016   1019   1020     1  0.0000000  0.6508444  3
   1017   1016   1019   1021     1  0.0000000  0.6508444  3
   1017   1016   1022   1023     1  0.0000000  1.2552000  3
   1017   1016   1022   1026     1  0.0000000  1.2552000  3
   1018   1016   1019   1039     1  0.0000000  0.6508444  3
   1018   1016   1019   1020     1  0.0000000  0.6508444  3
   1018   1016   1019   1021     1  0.0000000  0.6508444  3
   1018   1016   1022   1023     1  0.0000000  1.2552000  3
   1018   1016   1022   1026     1  0.0000000  1.2552000  3
   1020   1019   1016   1022     1  0.0000000  0.6508444  3
   1020   1019   1039   1040     1  0.0000000  0.0000000  2
   1021   1019   1016   1022     1  0.0000000  0.6508444  3
   1021   1019   1039   1040     1  0.0000000  0.0000000  2
   1022   1023   1032   1033     1  0.0000000  0.6508444  3
   1022   1023   1032   1034     1  0.0000000  0.6508444  3
   1022   1026   1029   1030     1  0.0000000  0.6508444  3
   1022   1026   1029   1031     1  0.0000000  0.6508444  3
   1023   1022   1026   1027     1  0.0000000  1.2552000  3
   1023   1022   1026   1028     1  0.0000000  1.2552000  3
   1024   1023   1022   1026     1  0.0000000  1.2552000  3
   1024   1023   1032   1036     1  0.0000000  0.6508444  3
   1024   1023   1032   1033     1  0.0000000  0.6508444  3
   1024   1023   1032   1034     1  0.0000000  0.6508444  3
   1025   1023   1022   1026     1  0.0000000  1.2552000  3
   1025   1023   1032   1036     1  0.0000000  0.6508444  3
   1025   1023   1032   1033     1  0.0000000  0.6508444  3
   1025   1023   1032   1034     1  0.0000000  0.6508444  3
   1027   1026   1029   1035     1  0.0000000  0.6508444  3
   1027   1026   1029   1030     1  0.0000000  0.6508444  3
   1027   1026   1029   1031     1  0.0000000  0.6508444  3
   1028   1026   1029   1035     1  0.0000000  0.6508444  3
   1028   1026   1029   1030     1  0.0000000  0.6508444  3
   1028   1026   1029   1031     1  0.0000000  0.6508444  3
   1029   1035   3147   3148     1  180.0000771  10.4600000  2
   1030   1029   1035   3147     1  180.0000771  0.0000000  2
   1030   1029   1035   1037     1  0.0000000  3.3472000  1
   1030   1029   1035   1037     1  0.0000000  0.0000000  2
   1030   1029   1035   1037     1  180.0000771  0.3347200  3
   1031   1029   1035   3147     1  180.0000771  0.0000000  2
   1031   1029   1035   1037     1  0.0000000  3.3472000  1
   1031   1029   1035   1037     1  0.0000000  0.0000000  2
   1031   1029   1035   1037     1  180.0000771  0.3347200  3
   1032   1036   3220   3221     1  180.0000771  10.4600000  2
   1033   1032   1036   1038     1  0.0000000  3.3472000  1
   1033   1032   1036   1038     1  0.0000000  0.0000000  2
   1033   1032   1036   1038     1  180.0000771  0.3347200  3
   1033   1032   1036   3220     1  180.0000771  0.0000000  2
   1034   1032   1036   1038     1  0.0000000  3.3472000  1
   1034   1032   1036   1038     1  0.0000000  0.0000000  2
   1034   1032   1036   1038     1  180.0000771  0.3347200  3
   1034   1032   1036   3220     1  180.0000771  0.0000000  2
   1035   3147   3149   3150     1  0.0000000  0.0000000  2
   1035   3147   3149   3152     1  0.0000000  0.0000000  2
   1036   3220   3222   3223     1  0.0000000  0.0000000  2
   1036   3220   3222   3225     1  0.0000000  0.0000000  2
   1037   1035   3147   3148     1  0.0000000  8.3680000  1
   1037   1035   3147   3148     1  180.0000771  10.4600000  2
   1038   1036   3220   3221     1  0.0000000  8.3680000  1
   1038   1036   3220   3221     1  180.0000771  10.4600000  2
   1041   1044   1064   1065     1  0.0000000  0.0000000  2
   1041   1047   1048   1049     1  0.0000000  1.2552000  3
   1041   1047   1048   1050     1  0.0000000  1.2552000  3
   1041   1047   1051   1052     1  0.0000000  1.2552000  3
   1041   1047   1051   1053     1  0.0000000  1.2552000  3
   1042   1041   1044   1064     1  0.0000000  0.6508444  3
   1042   1041   1044   1045     1  0.0000000  0.6508444  3
   1042   1041   1044   1046     1  0.0000000  0.6508444  3
   1042   1041   1047   1048     1  0.0000000  1.2552000  3
   1042   1041   1047   1051     1  0.0000000  1.2552000  3
   1043   1041   1044   1064     1  0.0000000  0.6508444  3
   1043   1041   1044   1045     1  0.0000000  0.6508444  3
   1043   1041   1044   1046     1  0.0000000  0.6508444  3
   1043   1041   1047   1048     1  0.0000000  1.2552000  3
   1043   1041   1047   1051     1  0.0000000  1.2552000  3
   1045   1044   1041   1047     1  0.0000000  0.6508444  3
   1045   1044   1064   1065     1  0.0000000  0.0000000  2
   1046   1044   1041   1047     1  0.0000000  0.6508444  3
   1046   1044   1064   1065     1  0.0000000  0.0000000  2
   1047   1048   1057   1058     1  0.0000000  0.6508444  3
   1047   1048   1057   1059     1  0.0000000  0.6508444  3
   1047   1051   1054   1055     1  0.0000000  0.6508444  3
   1047   1051   1054   1056     1  0.0000000  0.6508444  3
   1048   1047   1051   1052     1  0.0000000  1.2552000  3
   1048   1047   1051   1053     1  0.0000000  1.2552000  3
   1049   1048   1047   1051     1  0.0000000  1.2552000  3
   1049   1048   1057   1061     1  0.0000000  0.6508444  3
   1049   1048   1057   1058     1  0.0000000  0.6508444  3
   1049   1048   1057   1059     1  0.0000000  0.6508444  3
   1050   1048   1047   1051     1  0.0000000  1.2552000  3
   1050   1048   1057   1061     1  0.0000000  0.6508444  3
   1050   1048   1057   1058     1  0.0000000  0.6508444  3
   1050   1048   1057   1059     1  0.0000000  0.6508444  3
   1052   1051   1054   1060     1  0.0000000  0.6508444  3
   1052   1051   1054   1055     1  0.0000000  0.6508444  3
   1052   1051   1054   1056     1  0.0000000  0.6508444  3
   1053   1051   1054   1060     1  0.0000000  0.6508444  3
   1053   1051   1054   1055     1  0.0000000  0.6508444  3
   1053   1051   1054   1056     1  0.0000000  0.6508444  3
   1054   1060   3293   3294     1  180.0000771  10.4600000  2
   1055   1054   1060   3293     1  180.0000771  0.0000000  2
   1055   1054   1060   1062     1  0.0000000  3.3472000  1
   1055   1054   1060   1062     1  0.0000000  0.0000000  2
   1055   1054   1060   1062     1  180.0000771  0.3347200  3
   1056   1054   1060   3293     1  180.0000771  0.0000000  2
   1056   1054   1060   1062     1  0.0000000  3.3472000  1
   1056   1054   1060   1062     1  0.0000000  0.0000000  2
   1056   1054   1060   1062     1  180.0000771  0.3347200  3
   1057   1061   3366   3367     1  180.0000771  10.4600000  2
   1058   1057   1061   1063     1  0.0000000  3.3472000  1
   1058   1057   1061   1063     1  0.0000000  0.0000000  2
   1058   1057   1061   1063     1  180.0000771  0.3347200  3
   1058   1057   1061   3366     1  180.0000771  0.0000000  2
   1059   1057   1061   1063     1  0.0000000  3.3472000  1
   1059   1057   1061   1063     1  0.0000000  0.0000000  2
   1059   1057   1061   1063     1  180.0000771  0.3347200  3
   1059   1057   1061   3366     1  180.0000771  0.0000000  2
   1060   3293   3295   3296     1  0.0000000  0.0000000  2
   1060   3293   3295   3298     1  0.0000000  0.0000000  2
   1061   3366   3368   3369     1  0.0000000  0.0000000  2
   1061   3366   3368   3371     1  0.0000000  0.0000000  2
   1062   1060   3293   3294     1  0.0000000  8.3680000  1
   1062   1060   3293   3294     1  180.0000771  10.4600000  2
   1063   1061   3366   3367     1  0.0000000  8.3680000  1
   1063   1061   3366   3367     1  180.0000771  10.4600000  2
   1066   1069   1089   1090     1  0.0000000  0.0000000  2
   1066   1072   1073   1074     1  0.0000000  1.2552000  3
   1066   1072   1073   1075     1  0.0000000  1.2552000  3
   1066   1072   1076   1077     1  0.0000000  1.2552000  3
   1066   1072   1076   1078     1  0.0000000  1.2552000  3
   1067   1066   1069   1089     1  0.0000000  0.6508444  3
   1067   1066   1069   1070     1  0.0000000  0.6508444  3
   1067   1066   1069   1071     1  0.0000000  0.6508444  3
   1067   1066   1072   1073     1  0.0000000  1.2552000  3
   1067   1066   1072   1076     1  0.0000000  1.2552000  3
   1068   1066   1069   1089     1  0.0000000  0.6508444  3
   1068   1066   1069   1070     1  0.0000000  0.6508444  3
   1068   1066   1069   1071     1  0.0000000  0.6508444  3
   1068   1066   1072   1073     1  0.0000000  1.2552000  3
   1068   1066   1072   1076     1  0.0000000  1.2552000  3
   1070   1069   1066   1072     1  0.0000000  0.6508444  3
   1070   1069   1089   1090     1  0.0000000  0.0000000  2
   1071   1069   1066   1072     1  0.0000000  0.6508444  3
   1071   1069   1089   1090     1  0.0000000  0.0000000  2
   1072   1073   1082   1083     1  0.0000000  0.6508444  3
   1072   1073   1082   1084     1  0.0000000  0.6508444  3
   1072   1076   1079   1080     1  0.0000000  0.6508444  3
   1072   1076   1079   1081     1  0.0000000  0.6508444  3
   1073   1072   1076   1077     1  0.0000000  1.2552000  3
   1073   1072   1076   1078     1  0.0000000  1.2552000  3
   1074   1073   1072   1076     1  0.0000000  1.2552000  3
   1074   1073   1082   1086     1  0.0000000  0.6508444  3
   1074   1073   1082   1083     1  0.0000000  0.6508444  3
   1074   1073   1082   1084     1  0.0000000  0.6508444  3
   1075   1073   1072   1076     1  0.0000000  1.2552000  3
   1075   1073   1082   1086     1  0.0000000  0.6508444  3
   1075   1073   1082   1083     1  0.0000000  0.6508444  3
   1075   1073   1082   1084     1  0.0000000  0.6508444  3
   1077   1076   1079   1085     1  0.0000000  0.6508444  3
   1077   1076   1079   1080     1  0.0000000  0.6508444  3
   1077   1076   1079   1081     1  0.0000000  0.6508444  3
   1078   1076   1079   1085     1  0.0000000  0.6508444  3
   1078   1076   1079   1080     1  0.0000000  0.6508444  3
   1078   1076   1079   1081     1  0.0000000  0.6508444  3
   1079   1085   3439   3440     1  180.0000771  10.4600000  2
   1080   1079   1085   3439     1  180.0000771  0.0000000  2
   1080   1079   1085   1087     1  0.0000000  3.3472000  1
   1080   1079   1085   1087     1  0.0000000  0.0000000  2
   1080   1079   1085   1087     1  180.0000771  0.3347200  3
   1081   1079   1085   3439     1  180.0000771  0.0000000  2
   1081   1079   1085   1087     1  0.0000000  3.3472000  1
   1081   1079   1085   1087     1  0.0000000  0.0000000  2
   1081   1079   1085   1087     1  180.0000771  0.3347200  3
   1082   1086   3512   3513     1  180.0000771  10.4600000  2
   1083   1082   1086   1088     1  0.0000000  3.3472000  1
   1083   1082   1086   1088     1  0.0000000  0.0000000  2
   1083   1082   1086   1088     1  180.0000771  0.3347200  3
   1083   1082   1086   3512     1  180.0000771  0.0000000  2
   1084   1082   1086   1088     1  0.0000000  3.3472000  1
   1084   1082   1086   1088     1  0.0000000  0.0000000  2
   1084   1082   1086   1088     1  180.0000771  0.3347200  3
   1084   1082   1086   3512     1  180.0000771  0.0000000  2
   1085   3439   3441   3442     1  0.0000000  0.0000000  2
   1085   3439   3441   3444     1  0.0000000  0.0000000  2
   1086   3512   3514   3515     1  0.0000000  0.0000000  2
   1086   3512   3514   3517     1  0.0000000  0.0000000  2
   1087   1085   3439   3440     1  0.0000000  8.3680000  1
   1087   1085   3439   3440     1  180.0000771  10.4600000  2
   1088   1086   3512   3513     1  0.0000000  8.3680000  1
   1088   1086   3512   3513     1  180.0000771  10.4600000  2
   1091   1094   1114   1115     1  0.0000000  0.0000000  2
   1091   1097   1098   1099     1  0.0000000  1.2552000  3
   1091   1097   1098   1100     1  0.0000000  1.2552000  3
   1091   1097   1101   1102     1  0.0000000  1.2552000  3
   1091   1097   1101   1103     1  0.0000000  1.2552000  3
   1092   1091   1094   1114     1  0.0000000  0.6508444  3
   1092   1091   1094   1095     1  0.0000000  0.6508444  3
   1092   1091   1094   1096     1  0.0000000  0.6508444  3
   1092   1091   1097   1098     1  0.0000000  1.2552000  3
   1092   1091   1097   1101     1  0.0000000  1.2552000  3
   1093   1091   1094   1114     1  0.0000000  0.6508444  3
   1093   1091   1094   1095     1  0.0000000  0.6508444  3
   1093   1091   1094   1096     1  0.0000000  0.6508444  3
   1093   1091   1097   1098     1  0.0000000  1.2552000  3
   1093   1091   1097   1101     1  0.0000000  1.2552000  3
   1095   1094   1091   1097     1  0.0000000  0.6508444  3
   1095   1094   1114   1115     1  0.0000000  0.0000000  2
   1096   1094   1091   1097     1  0.0000000  0.6508444  3
   1096   1094   1114   1115     1  0.0000000  0.0000000  2
   1097   1098   1107   1108     1  0.0000000  0.6508444  3
   1097   1098   1107   1109     1  0.0000000  0.6508444  3
   1097   1101   1104   1105     1  0.0000000  0.6508444  3
   1097   1101   1104   1106     1  0.0000000  0.6508444  3
   1098   1097   1101   1102     1  0.0000000  1.2552000  3
   1098   1097   1101   1103     1  0.0000000  1.2552000  3
   1099   1098   1097   1101     1  0.0000000  1.2552000  3
   1099   1098   1107   1111     1  0.0000000  0.6508444  3
   1099   1098   1107   1108     1  0.0000000  0.6508444  3
   1099   1098   1107   1109     1  0.0000000  0.6508444  3
   1100   1098   1097   1101     1  0.0000000  1.2552000  3
   1100   1098   1107   1111     1  0.0000000  0.6508444  3
   1100   1098   1107   1108     1  0.0000000  0.6508444  3
   1100   1098   1107   1109     1  0.0000000  0.6508444  3
   1102   1101   1104   1110     1  0.0000000  0.6508444  3
   1102   1101   1104   1105     1  0.0000000  0.6508444  3
   1102   1101   1104   1106     1  0.0000000  0.6508444  3
   1103   1101   1104   1110     1  0.0000000  0.6508444  3
   1103   1101   1104   1105     1  0.0000000  0.6508444  3
   1103   1101   1104   1106     1  0.0000000  0.6508444  3
   1104   1110   3585   3586     1  180.0000771  10.4600000  2
   1105   1104   1110   3585     1  180.0000771  0.0000000  2
   1105   1104   1110   1112     1  0.0000000  3.3472000  1
   1105   1104   1110   1112     1  0.0000000  0.0000000  2
   1105   1104   1110   1112     1  180.0000771  0.3347200  3
   1106   1104   1110   3585     1  180.0000771  0.0000000  2
   1106   1104   1110   1112     1  0.0000000  3.3472000  1
   1106   1104   1110   1112     1  0.0000000  0.0000000  2
   1106   1104   1110   1112     1  180.0000771  0.3347200  3
   1107   1111   3658   3659     1  180.0000771  10.4600000  2
   1108   1107   1111   1113     1  0.0000000  3.3472000  1
   1108   1107   1111   1113     1  0.0000000  0.0000000  2
   1108   1107   1111   1113     1  180.0000771  0.3347200  3
   1108   1107   1111   3658     1  180.0000771  0.0000000  2
   1109   1107   1111   1113     1  0.0000000  3.3472000  1
   1109   1107   1111   1113     1  0.0000000  0.0000000  2
   1109   1107   1111   1113     1  180.0000771  0.3347200  3
   1109   1107   1111   3658     1  180.0000771  0.0000000  2
   1110   3585   3587   3588     1  0.0000000  0.0000000  2
   1110   3585   3587   3590     1  0.0000000  0.0000000  2
   1111   3658   3660   3661     1  0.0000000  0.0000000  2
   1111   3658   3660   3663     1  0.0000000  0.0000000  2
   1112   1110   3585   3586     1  0.0000000  8.3680000  1
   1112   1110   3585   3586     1  180.0000771  10.4600000  2
   1113   1111   3658   3659     1  0.0000000  8.3680000  1
   1113   1111   3658   3659     1  180.0000771  10.4600000  2
   1116   1119   1139   1140     1  0.0000000  0.0000000  2
   1116   1122   1123   1124     1  0.0000000  1.2552000  3
   1116   1122   1123   1125     1  0.0000000  1.2552000  3
   1116   1122   1126   1127     1  0.0000000  1.2552000  3
   1116   1122   1126   1128     1  0.0000000  1.2552000  3
   1117   1116   1119   1139     1  0.0000000  0.6508444  3
   1117   1116   1119   1120     1  0.0000000  0.6508444  3
   1117   1116   1119   1121     1  0.0000000  0.6508444  3
   1117   1116   1122   1123     1  0.0000000  1.2552000  3
   1117   1116   1122   1126     1  0.0000000  1.2552000  3
   1118   1116   1119   1139     1  0.0000000  0.6508444  3
   1118   1116   1119   1120     1  0.0000000  0.6508444  3
   1118   1116   1119   1121     1  0.0000000  0.6508444  3
   1118   1116   1122   1123     1  0.0000000  1.2552000  3
   1118   1116   1122   1126     1  0.0000000  1.2552000  3
   1120   1119   1116   1122     1  0.0000000  0.6508444  3
   1120   1119   1139   1140     1  0.0000000  0.0000000  2
   1121   1119   1116   1122     1  0.0000000  0.6508444  3
   1121   1119   1139   1140     1  0.0000000  0.0000000  2
   1122   1123   1132   1133     1  0.0000000  0.6508444  3
   1122   1123   1132   1134     1  0.0000000  0.6508444  3
   1122   1126   1129   1130     1  0.0000000  0.6508444  3
   1122   1126   1129   1131     1  0.0000000  0.6508444  3
   1123   1122   1126   1127     1  0.0000000  1.2552000  3
   1123   1122   1126   1128     1  0.0000000  1.2552000  3
   1124   1123   1122   1126     1  0.0000000  1.2552000  3
   1124   1123   1132   1136     1  0.0000000  0.6508444  3
   1124   1123   1132   1133     1  0.0000000  0.6508444  3
   1124   1123   1132   1134     1  0.0000000  0.6508444  3
   1125   1123   1122   1126     1  0.0000000  1.2552000  3
   1125   1123   1132   1136     1  0.0000000  0.6508444  3
   1125   1123   1132   1133     1  0.0000000  0.6508444  3
   1125   1123   1132   1134     1  0.0000000  0.6508444  3
   1127   1126   1129   1135     1  0.0000000  0.6508444  3
   1127   1126   1129   1130     1  0.0000000  0.6508444  3
   1127   1126   1129   1131     1  0.0000000  0.6508444  3
   1128   1126   1129   1135     1  0.0000000  0.6508444  3
   1128   1126   1129   1130     1  0.0000000  0.6508444  3
   1128   1126   1129   1131     1  0.0000000  0.6508444  3
   1129   1135   3731   3732     1  180.0000771  10.4600000  2
   1130   1129   1135   3731     1  180.0000771  0.0000000  2
   1130   1129   1135   1137     1  0.0000000  3.3472000  1
   1130   1129   1135   1137     1  0.0000000  0.0000000  2
   1130   1129   1135   1137     1  180.0000771  0.3347200  3
   1131   1129   1135   3731     1  180.0000771  0.0000000  2
   1131   1129   1135   1137     1  0.0000000  3.3472000  1
   1131   1129   1135   1137     1  0.0000000  0.0000000  2
   1131   1129   1135   1137     1  180.0000771  0.3347200  3
   1132   1136   3804   3805     1  180.0000771  10.4600000  2
   1133   1132   1136   1138     1  0.0000000  3.3472000  1
   1133   1132   1136   1138     1  0.0000000  0.0000000  2
   1133   1132   1136   1138     1  180.0000771  0.3347200  3
   1133   1132   1136   3804     1  180.0000771  0.0000000  2
   1134   1132   1136   1138     1  0.0000000  3.3472000  1
   1134   1132   1136   1138     1  0.0000000  0.0000000  2
   1134   1132   1136   1138     1  180.0000771  0.3347200  3
   1134   1132   1136   3804     1  180.0000771  0.0000000  2
   1135   3731   3733   3734     1  0.0000000  0.0000000  2
   1135   3731   3733   3736     1  0.0000000  0.0000000  2
   1136   3804   3806   3807     1  0.0000000  0.0000000  2
   1136   3804   3806   3809     1  0.0000000  0.0000000  2
   1137   1135   3731   3732     1  0.0000000  8.3680000  1
   1137   1135   3731   3732     1  180.0000771  10.4600000  2
   1138   1136   3804   3805     1  0.0000000  8.3680000  1
   1138   1136   3804   3805     1  180.0000771  10.4600000  2
   1141   1144   1164   1165     1  0.0000000  0.0000000  2
   1141   1147   1148   1149     1  0.0000000  1.2552000  3
   1141   1147   1148   1150     1  0.0000000  1.2552000  3
   1141   1147   1151   1152     1  0.0000000  1.2552000  3
   1141   1147   1151   1153     1  0.0000000  1.2552000  3
   1142   1141   1144   1164     1  0.0000000  0.6508444  3
   1142   1141   1144   1145     1  0.0000000  0.6508444  3
   1142   1141   1144   1146     1  0.0000000  0.6508444  3
   1142   1141   1147   1148     1  0.0000000  1.2552000  3
   1142   1141   1147   1151     1  0.0000000  1.2552000  3
   1143   1141   1144   1164     1  0.0000000  0.6508444  3
   1143   1141   1144   1145     1  0.0000000  0.6508444  3
   1143   1141   1144   1146     1  0.0000000  0.6508444  3
   1143   1141   1147   1148     1  0.0000000  1.2552000  3
   1143   1141   1147   1151     1  0.0000000  1.2552000  3
   1145   1144   1141   1147     1  0.0000000  0.6508444  3
   1145   1144   1164   1165     1  0.0000000  0.0000000  2
   1146   1144   1141   1147     1  0.0000000  0.6508444  3
   1146   1144   1164   1165     1  0.0000000  0.0000000  2
   1147   1148   1157   1158     1  0.0000000  0.6508444  3
   1147   1148   1157   1159     1  0.0000000  0.6508444  3
   1147   1151   1154   1155     1  0.0000000  0.6508444  3
   1147   1151   1154   1156     1  0.0000000  0.6508444  3
   1148   1147   1151   1152     1  0.0000000  1.2552000  3
   1148   1147   1151   1153     1  0.0000000  1.2552000  3
   1149   1148   1147   1151     1  0.0000000  1.2552000  3
   1149   1148   1157   1161     1  0.0000000  0.6508444  3
   1149   1148   1157   1158     1  0.0000000  0.6508444  3
   1149   1148   1157   1159     1  0.0000000  0.6508444  3
   1150   1148   1147   1151     1  0.0000000  1.2552000  3
   1150   1148   1157   1161     1  0.0000000  0.6508444  3
   1150   1148   1157   1158     1  0.0000000  0.6508444  3
   1150   1148   1157   1159     1  0.0000000  0.6508444  3
   1152   1151   1154   1160     1  0.0000000  0.6508444  3
   1152   1151   1154   1155     1  0.0000000  0.6508444  3
   1152   1151   1154   1156     1  0.0000000  0.6508444  3
   1153   1151   1154   1160     1  0.0000000  0.6508444  3
   1153   1151   1154   1155     1  0.0000000  0.6508444  3
   1153   1151   1154   1156     1  0.0000000  0.6508444  3
   1154   1160   3877   3878     1  180.0000771  10.4600000  2
   1155   1154   1160   3877     1  180.0000771  0.0000000  2
   1155   1154   1160   1162     1  0.0000000  3.3472000  1
   1155   1154   1160   1162     1  0.0000000  0.0000000  2
   1155   1154   1160   1162     1  180.0000771  0.3347200  3
   1156   1154   1160   3877     1  180.0000771  0.0000000  2
   1156   1154   1160   1162     1  0.0000000  3.3472000  1
   1156   1154   1160   1162     1  0.0000000  0.0000000  2
   1156   1154   1160   1162     1  180.0000771  0.3347200  3
   1157   1161   3950   3951     1  180.0000771  10.4600000  2
   1158   1157   1161   1163     1  0.0000000  3.3472000  1
   1158   1157   1161   1163     1  0.0000000  0.0000000  2
   1158   1157   1161   1163     1  180.0000771  0.3347200  3
   1158   1157   1161   3950     1  180.0000771  0.0000000  2
   1159   1157   1161   1163     1  0.0000000  3.3472000  1
   1159   1157   1161   1163     1  0.0000000  0.0000000  2
   1159   1157   1161   1163     1  180.0000771  0.3347200  3
   1159   1157   1161   3950     1  180.0000771  0.0000000  2
   1160   3877   3879   3880     1  0.0000000  0.0000000  2
   1160   3877   3879   3882     1  0.0000000  0.0000000  2
   1161   3950   3952   3953     1  0.0000000  0.0000000  2
   1161   3950   3952   3955     1  0.0000000  0.0000000  2
   1162   1160   3877   3878     1  0.0000000  8.3680000  1
   1162   1160   3877   3878     1  180.0000771  10.4600000  2
   1163   1161   3950   3951     1  0.0000000  8.3680000  1
   1163   1161   3950   3951     1  180.0000771  10.4600000  2
   1166   1169   1189   1190     1  0.0000000  0.0000000  2
   1166   1172   1173   1174     1  0.0000000  1.2552000  3
   1166   1172   1173   1175     1  0.0000000  1.2552000  3
   1166   1172   1176   1177     1  0.0000000  1.2552000  3
   1166   1172   1176   1178     1  0.0000000  1.2552000  3
   1167   1166   1169   1189     1  0.0000000  0.6508444  3
   1167   1166   1169   1170     1  0.0000000  0.6508444  3
   1167   1166   1169   1171     1  0.0000000  0.6508444  3
   1167   1166   1172   1173     1  0.0000000  1.2552000  3
   1167   1166   1172   1176     1  0.0000000  1.2552000  3
   1168   1166   1169   1189     1  0.0000000  0.6508444  3
   1168   1166   1169   1170     1  0.0000000  0.6508444  3
   1168   1166   1169   1171     1  0.0000000  0.6508444  3
   1168   1166   1172   1173     1  0.0000000  1.2552000  3
   1168   1166   1172   1176     1  0.0000000  1.2552000  3
   1170   1169   1166   1172     1  0.0000000  0.6508444  3
   1170   1169   1189   1190     1  0.0000000  0.0000000  2
   1171   1169   1166   1172     1  0.0000000  0.6508444  3
   1171   1169   1189   1190     1  0.0000000  0.0000000  2
   1172   1173   1182   1183     1  0.0000000  0.6508444  3
   1172   1173   1182   1184     1  0.0000000  0.6508444  3
   1172   1176   1179   1180     1  0.0000000  0.6508444  3
   1172   1176   1179   1181     1  0.0000000  0.6508444  3
   1173   1172   1176   1177     1  0.0000000  1.2552000  3
   1173   1172   1176   1178     1  0.0000000  1.2552000  3
   1174   1173   1172   1176     1  0.0000000  1.2552000  3
   1174   1173   1182   1186     1  0.0000000  0.6508444  3
   1174   1173   1182   1183     1  0.0000000  0.6508444  3
   1174   1173   1182   1184     1  0.0000000  0.6508444  3
   1175   1173   1172   1176     1  0.0000000  1.2552000  3
   1175   1173   1182   1186     1  0.0000000  0.6508444  3
   1175   1173   1182   1183     1  0.0000000  0.6508444  3
   1175   1173   1182   1184     1  0.0000000  0.6508444  3
   1177   1176   1179   1185     1  0.0000000  0.6508444  3
   1177   1176   1179   1180     1  0.0000000  0.6508444  3
   1177   1176   1179   1181     1  0.0000000  0.6508444  3
   1178   1176   1179   1185     1  0.0000000  0.6508444  3
   1178   1176   1179   1180     1  0.0000000  0.6508444  3
   1178   1176   1179   1181     1  0.0000000  0.6508444  3
   1179   1185   4023   4024     1  180.0000771  10.4600000  2
   1180   1179   1185   4023     1  180.0000771  0.0000000  2
   1180   1179   1185   1187     1  0.0000000  3.3472000  1
   1180   1179   1185   1187     1  0.0000000  0.0000000  2
   1180   1179   1185   1187     1  180.0000771  0.3347200  3
   1181   1179   1185   4023     1  180.0000771  0.0000000  2
   1181   1179   1185   1187     1  0.0000000  3.3472000  1
   1181   1179   1185   1187     1  0.0000000  0.0000000  2
   1181   1179   1185   1187     1  180.0000771  0.3347200  3
   1182   1186   4096   4097     1  180.0000771  10.4600000  2
   1183   1182   1186   1188     1  0.0000000  3.3472000  1
   1183   1182   1186   1188     1  0.0000000  0.0000000  2
   1183   1182   1186   1188     1  180.0000771  0.3347200  3
   1183   1182   1186   4096     1  180.0000771  0.0000000  2
   1184   1182   1186   1188     1  0.0000000  3.3472000  1
   1184   1182   1186   1188     1  0.0000000  0.0000000  2
   1184   1182   1186   1188     1  180.0000771  0.3347200  3
   1184   1182   1186   4096     1  180.0000771  0.0000000  2
   1185   4023   4025   4026     1  0.0000000  0.0000000  2
   1185   4023   4025   4028     1  0.0000000  0.0000000  2
   1186   4096   4098   4099     1  0.0000000  0.0000000  2
   1186   4096   4098   4101     1  0.0000000  0.0000000  2
   1187   1185   4023   4024     1  0.0000000  8.3680000  1
   1187   1185   4023   4024     1  180.0000771  10.4600000  2
   1188   1186   4096   4097     1  0.0000000  8.3680000  1
   1188   1186   4096   4097     1  180.0000771  10.4600000  2
   1191   1194   1214   1215     1  0.0000000  0.0000000  2
   1191   1197   1198   1199     1  0.0000000  1.2552000  3
   1191   1197   1198   1200     1  0.0000000  1.2552000  3
   1191   1197   1201   1202     1  0.0000000  1.2552000  3
   1191   1197   1201   1203     1  0.0000000  1.2552000  3
   1192   1191   1194   1214     1  0.0000000  0.6508444  3
   1192   1191   1194   1195     1  0.0000000  0.6508444  3
   1192   1191   1194   1196     1  0.0000000  0.6508444  3
   1192   1191   1197   1198     1  0.0000000  1.2552000  3
   1192   1191   1197   1201     1  0.0000000  1.2552000  3
   1193   1191   1194   1214     1  0.0000000  0.6508444  3
   1193   1191   1194   1195     1  0.0000000  0.6508444  3
   1193   1191   1194   1196     1  0.0000000  0.6508444  3
   1193   1191   1197   1198     1  0.0000000  1.2552000  3
   1193   1191   1197   1201     1  0.0000000  1.2552000  3
   1195   1194   1191   1197     1  0.0000000  0.6508444  3
   1195   1194   1214   1215     1  0.0000000  0.0000000  2
   1196   1194   1191   1197     1  0.0000000  0.6508444  3
   1196   1194   1214   1215     1  0.0000000  0.0000000  2
   1197   1198   1207   1208     1  0.0000000  0.6508444  3
   1197   1198   1207   1209     1  0.0000000  0.6508444  3
   1197   1201   1204   1205     1  0.0000000  0.6508444  3
   1197   1201   1204   1206     1  0.0000000  0.6508444  3
   1198   1197   1201   1202     1  0.0000000  1.2552000  3
   1198   1197   1201   1203     1  0.0000000  1.2552000  3
   1199   1198   1197   1201     1  0.0000000  1.2552000  3
   1199   1198   1207   1211     1  0.0000000  0.6508444  3
   1199   1198   1207   1208     1  0.0000000  0.6508444  3
   1199   1198   1207   1209     1  0.0000000  0.6508444  3
   1200   1198   1197   1201     1  0.0000000  1.2552000  3
   1200   1198   1207   1211     1  0.0000000  0.6508444  3
   1200   1198   1207   1208     1  0.0000000  0.6508444  3
   1200   1198   1207   1209     1  0.0000000  0.6508444  3
   1202   1201   1204   1210     1  0.0000000  0.6508444  3
   1202   1201   1204   1205     1  0.0000000  0.6508444  3
   1202   1201   1204   1206     1  0.0000000  0.6508444  3
   1203   1201   1204   1210     1  0.0000000  0.6508444  3
   1203   1201   1204   1205     1  0.0000000  0.6508444  3
   1203   1201   1204   1206     1  0.0000000  0.6508444  3
   1204   1210   4169   4170     1  180.0000771  10.4600000  2
   1205   1204   1210   4169     1  180.0000771  0.0000000  2
   1205   1204   1210   1212     1  0.0000000  3.3472000  1
   1205   1204   1210   1212     1  0.0000000  0.0000000  2
   1205   1204   1210   1212     1  180.0000771  0.3347200  3
   1206   1204   1210   4169     1  180.0000771  0.0000000  2
   1206   1204   1210   1212     1  0.0000000  3.3472000  1
   1206   1204   1210   1212     1  0.0000000  0.0000000  2
   1206   1204   1210   1212     1  180.0000771  0.3347200  3
   1207   1211   4242   4243     1  180.0000771  10.4600000  2
   1208   1207   1211   1213     1  0.0000000  3.3472000  1
   1208   1207   1211   1213     1  0.0000000  0.0000000  2
   1208   1207   1211   1213     1  180.0000771  0.3347200  3
   1208   1207   1211   4242     1  180.0000771  0.0000000  2
   1209   1207   1211   1213     1  0.0000000  3.3472000  1
   1209   1207   1211   1213     1  0.0000000  0.0000000  2
   1209   1207   1211   1213     1  180.0000771  0.3347200  3
   1209   1207   1211   4242     1  180.0000771  0.0000000  2
   1210   4169   4171   4172     1  0.0000000  0.0000000  2
   1210   4169   4171   4174     1  0.0000000  0.0000000  2
   1211   4242   4244   4245     1  0.0000000  0.0000000  2
   1211   4242   4244   4247     1  0.0000000  0.0000000  2
   1212   1210   4169   4170     1  0.0000000  8.3680000  1
   1212   1210   4169   4170     1  180.0000771  10.4600000  2
   1213   1211   4242   4243     1  0.0000000  8.3680000  1
   1213   1211   4242   4243     1  180.0000771  10.4600000  2
   1216   1219   1239   1240     1  0.0000000  0.0000000  2
   1216   1222   1223   1224     1  0.0000000  1.2552000  3
   1216   1222   1223   1225     1  0.0000000  1.2552000  3
   1216   1222   1226   1227     1  0.0000000  1.2552000  3
   1216   1222   1226   1228     1  0.0000000  1.2552000  3
   1217   1216   1219   1239     1  0.0000000  0.6508444  3
   1217   1216   1219   1220     1  0.0000000  0.6508444  3
   1217   1216   1219   1221     1  0.0000000  0.6508444  3
   1217   1216   1222   1223     1  0.0000000  1.2552000  3
   1217   1216   1222   1226     1  0.0000000  1.2552000  3
   1218   1216   1219   1239     1  0.0000000  0.6508444  3
   1218   1216   1219   1220     1  0.0000000  0.6508444  3
   1218   1216   1219   1221     1  0.0000000  0.6508444  3
   1218   1216   1222   1223     1  0.0000000  1.2552000  3
   1218   1216   1222   1226     1  0.0000000  1.2552000  3
   1220   1219   1216   1222     1  0.0000000  0.6508444  3
   1220   1219   1239   1240     1  0.0000000  0.0000000  2
   1221   1219   1216   1222     1  0.0000000  0.6508444  3
   1221   1219   1239   1240     1  0.0000000  0.0000000  2
   1222   1223   1232   1233     1  0.0000000  0.6508444  3
   1222   1223   1232   1234     1  0.0000000  0.6508444  3
   1222   1226   1229   1230     1  0.0000000  0.6508444  3
   1222   1226   1229   1231     1  0.0000000  0.6508444  3
   1223   1222   1226   1227     1  0.0000000  1.2552000  3
   1223   1222   1226   1228     1  0.0000000  1.2552000  3
   1224   1223   1222   1226     1  0.0000000  1.2552000  3
   1224   1223   1232   1236     1  0.0000000  0.6508444  3
   1224   1223   1232   1233     1  0.0000000  0.6508444  3
   1224   1223   1232   1234     1  0.0000000  0.6508444  3
   1225   1223   1222   1226     1  0.0000000  1.2552000  3
   1225   1223   1232   1236     1  0.0000000  0.6508444  3
   1225   1223   1232   1233     1  0.0000000  0.6508444  3
   1225   1223   1232   1234     1  0.0000000  0.6508444  3
   1227   1226   1229   1235     1  0.0000000  0.6508444  3
   1227   1226   1229   1230     1  0.0000000  0.6508444  3
   1227   1226   1229   1231     1  0.0000000  0.6508444  3
   1228   1226   1229   1235     1  0.0000000  0.6508444  3
   1228   1226   1229   1230     1  0.0000000  0.6508444  3
   1228   1226   1229   1231     1  0.0000000  0.6508444  3
   1229   1235   4315   4316     1  180.0000771  10.4600000  2
   1230   1229   1235   4315     1  180.0000771  0.0000000  2
   1230   1229   1235   1237     1  0.0000000  3.3472000  1
   1230   1229   1235   1237     1  0.0000000  0.0000000  2
   1230   1229   1235   1237     1  180.0000771  0.3347200  3
   1231   1229   1235   4315     1  180.0000771  0.0000000  2
   1231   1229   1235   1237     1  0.0000000  3.3472000  1
   1231   1229   1235   1237     1  0.0000000  0.0000000  2
   1231   1229   1235   1237     1  180.0000771  0.3347200  3
   1232   1236   4388   4389     1  180.0000771  10.4600000  2
   1233   1232   1236   1238     1  0.0000000  3.3472000  1
   1233   1232   1236   1238     1  0.0000000  0.0000000  2
   1233   1232   1236   1238     1  180.0000771  0.3347200  3
   1233   1232   1236   4388     1  180.0000771  0.0000000  2
   1234   1232   1236   1238     1  0.0000000  3.3472000  1
   1234   1232   1236   1238     1  0.0000000  0.0000000  2
   1234   1232   1236   1238     1  180.0000771  0.3347200  3
   1234   1232   1236   4388     1  180.0000771  0.0000000  2
   1235   4315   4317   4318     1  0.0000000  0.0000000  2
   1235   4315   4317   4320     1  0.0000000  0.0000000  2
   1236   4388   4390   4391     1  0.0000000  0.0000000  2
   1236   4388   4390   4393     1  0.0000000  0.0000000  2
   1237   1235   4315   4316     1  0.0000000  8.3680000  1
   1237   1235   4315   4316     1  180.0000771  10.4600000  2
   1238   1236   4388   4389     1  0.0000000  8.3680000  1
   1238   1236   4388   4389     1  180.0000771  10.4600000  2
   1241   1244   1264   1265     1  0.0000000  0.0000000  2
   1241   1247   1248   1249     1  0.0000000  1.2552000  3
   1241   1247   1248   1250     1  0.0000000  1.2552000  3
   1241   1247   1251   1252     1  0.0000000  1.2552000  3
   1241   1247   1251   1253     1  0.0000000  1.2552000  3
   1242   1241   1244   1264     1  0.0000000  0.6508444  3
   1242   1241   1244   1245     1  0.0000000  0.6508444  3
   1242   1241   1244   1246     1  0.0000000  0.6508444  3
   1242   1241   1247   1248     1  0.0000000  1.2552000  3
   1242   1241   1247   1251     1  0.0000000  1.2552000  3
   1243   1241   1244   1264     1  0.0000000  0.6508444  3
   1243   1241   1244   1245     1  0.0000000  0.6508444  3
   1243   1241   1244   1246     1  0.0000000  0.6508444  3
   1243   1241   1247   1248     1  0.0000000  1.2552000  3
   1243   1241   1247   1251     1  0.0000000  1.2552000  3
   1245   1244   1241   1247     1  0.0000000  0.6508444  3
   1245   1244   1264   1265     1  0.0000000  0.0000000  2
   1246   1244   1241   1247     1  0.0000000  0.6508444  3
   1246   1244   1264   1265     1  0.0000000  0.0000000  2
   1247   1248   1257   1258     1  0.0000000  0.6508444  3
   1247   1248   1257   1259     1  0.0000000  0.6508444  3
   1247   1251   1254   1255     1  0.0000000  0.6508444  3
   1247   1251   1254   1256     1  0.0000000  0.6508444  3
   1248   1247   1251   1252     1  0.0000000  1.2552000  3
   1248   1247   1251   1253     1  0.0000000  1.2552000  3
   1249   1248   1247   1251     1  0.0000000  1.2552000  3
   1249   1248   1257   1261     1  0.0000000  0.6508444  3
   1249   1248   1257   1258     1  0.0000000  0.6508444  3
   1249   1248   1257   1259     1  0.0000000  0.6508444  3
   1250   1248   1247   1251     1  0.0000000  1.2552000  3
   1250   1248   1257   1261     1  0.0000000  0.6508444  3
   1250   1248   1257   1258     1  0.0000000  0.6508444  3
   1250   1248   1257   1259     1  0.0000000  0.6508444  3
   1252   1251   1254   1260     1  0.0000000  0.6508444  3
   1252   1251   1254   1255     1  0.0000000  0.6508444  3
   1252   1251   1254   1256     1  0.0000000  0.6508444  3
   1253   1251   1254   1260     1  0.0000000  0.6508444  3
   1253   1251   1254   1255     1  0.0000000  0.6508444  3
   1253   1251   1254   1256     1  0.0000000  0.6508444  3
   1254   1260   4461   4462     1  180.0000771  10.4600000  2
   1255   1254   1260   4461     1  180.0000771  0.0000000  2
   1255   1254   1260   1262     1  0.0000000  3.3472000  1
   1255   1254   1260   1262     1  0.0000000  0.0000000  2
   1255   1254   1260   1262     1  180.0000771  0.3347200  3
   1256   1254   1260   4461     1  180.0000771  0.0000000  2
   1256   1254   1260   1262     1  0.0000000  3.3472000  1
   1256   1254   1260   1262     1  0.0000000  0.0000000  2
   1256   1254   1260   1262     1  180.0000771  0.3347200  3
   1257   1261   4534   4535     1  180.0000771  10.4600000  2
   1258   1257   1261   1263     1  0.0000000  3.3472000  1
   1258   1257   1261   1263     1  0.0000000  0.0000000  2
   1258   1257   1261   1263     1  180.0000771  0.3347200  3
   1258   1257   1261   4534     1  180.0000771  0.0000000  2
   1259   1257   1261   1263     1  0.0000000  3.3472000  1
   1259   1257   1261   1263     1  0.0000000  0.0000000  2
   1259   1257   1261   1263     1  180.0000771  0.3347200  3
   1259   1257   1261   4534     1  180.0000771  0.0000000  2
   1260   4461   4463   4464     1  0.0000000  0.0000000  2
   1260   4461   4463   4466     1  0.0000000  0.0000000  2
   1261   4534   4536   4537     1  0.0000000  0.0000000  2
   1261   4534   4536   4539     1  0.0000000  0.0000000  2
   1262   1260   4461   4462     1  0.0000000  8.3680000  1
   1262   1260   4461   4462     1  180.0000771  10.4600000  2
   1263   1261   4534   4535     1  0.0000000  8.3680000  1
   1263   1261   4534   4535     1  180.0000771  10.4600000  2
   1266   1269   1289   1290     1  0.0000000  0.0000000  2
   1266   1272   1273   1274     1  0.0000000  1.2552000  3
   1266   1272   1273   1275     1  0.0000000  1.2552000  3
   1266   1272   1276   1277     1  0.0000000  1.2552000  3
   1266   1272   1276   1278     1  0.0000000  1.2552000  3
   1267   1266   1269   1289     1  0.0000000  0.6508444  3
   1267   1266   1269   1270     1  0.0000000  0.6508444  3
   1267   1266   1269   1271     1  0.0000000  0.6508444  3
   1267   1266   1272   1273     1  0.0000000  1.2552000  3
   1267   1266   1272   1276     1  0.0000000  1.2552000  3
   1268   1266   1269   1289     1  0.0000000  0.6508444  3
   1268   1266   1269   1270     1  0.0000000  0.6508444  3
   1268   1266   1269   1271     1  0.0000000  0.6508444  3
   1268   1266   1272   1273     1  0.0000000  1.2552000  3
   1268   1266   1272   1276     1  0.0000000  1.2552000  3
   1270   1269   1266   1272     1  0.0000000  0.6508444  3
   1270   1269   1289   1290     1  0.0000000  0.0000000  2
   1271   1269   1266   1272     1  0.0000000  0.6508444  3
   1271   1269   1289   1290     1  0.0000000  0.0000000  2
   1272   1273   1282   1283     1  0.0000000  0.6508444  3
   1272   1273   1282   1284     1  0.0000000  0.6508444  3
   1272   1276   1279   1280     1  0.0000000  0.6508444  3
   1272   1276   1279   1281     1  0.0000000  0.6508444  3
   1273   1272   1276   1277     1  0.0000000  1.2552000  3
   1273   1272   1276   1278     1  0.0000000  1.2552000  3
   1274   1273   1272   1276     1  0.0000000  1.2552000  3
   1274   1273   1282   1286     1  0.0000000  0.6508444  3
   1274   1273   1282   1283     1  0.0000000  0.6508444  3
   1274   1273   1282   1284     1  0.0000000  0.6508444  3
   1275   1273   1272   1276     1  0.0000000  1.2552000  3
   1275   1273   1282   1286     1  0.0000000  0.6508444  3
   1275   1273   1282   1283     1  0.0000000  0.6508444  3
   1275   1273   1282   1284     1  0.0000000  0.6508444  3
   1277   1276   1279   1285     1  0.0000000  0.6508444  3
   1277   1276   1279   1280     1  0.0000000  0.6508444  3
   1277   1276   1279   1281     1  0.0000000  0.6508444  3
   1278   1276   1279   1285     1  0.0000000  0.6508444  3
   1278   1276   1279   1280     1  0.0000000  0.6508444  3
   1278   1276   1279   1281     1  0.0000000  0.6508444  3
   1279   1285   4607   4608     1  180.0000771  10.4600000  2
   1280   1279   1285   4607     1  180.0000771  0.0000000  2
   1280   1279   1285   1287     1  0.0000000  3.3472000  1
   1280   1279   1285   1287     1  0.0000000  0.0000000  2
   1280   1279   1285   1287     1  180.0000771  0.3347200  3
   1281   1279   1285   4607     1  180.0000771  0.0000000  2
   1281   1279   1285   1287     1  0.0000000  3.3472000  1
   1281   1279   1285   1287     1  0.0000000  0.0000000  2
   1281   1279   1285   1287     1  180.0000771  0.3347200  3
   1282   1286   4680   4681     1  180.0000771  10.4600000  2
   1283   1282   1286   1288     1  0.0000000  3.3472000  1
   1283   1282   1286   1288     1  0.0000000  0.0000000  2
   1283   1282   1286   1288     1  180.0000771  0.3347200  3
   1283   1282   1286   4680     1  180.0000771  0.0000000  2
   1284   1282   1286   1288     1  0.0000000  3.3472000  1
   1284   1282   1286   1288     1  0.0000000  0.0000000  2
   1284   1282   1286   1288     1  180.0000771  0.3347200  3
   1284   1282   1286   4680     1  180.0000771  0.0000000  2
   1285   4607   4609   4610     1  0.0000000  0.0000000  2
   1285   4607   4609   4612     1  0.0000000  0.0000000  2
   1286   4680   4682   4683     1  0.0000000  0.0000000  2
   1286   4680   4682   4685     1  0.0000000  0.0000000  2
   1287   1285   4607   4608     1  0.0000000  8.3680000  1
   1287   1285   4607   4608     1  180.0000771  10.4600000  2
   1288   1286   4680   4681     1  0.0000000  8.3680000  1
   1288   1286   4680   4681     1  180.0000771  10.4600000  2
   1291   1294   1314   1315     1  0.0000000  0.0000000  2
   1291   1297   1298   1299     1  0.0000000  1.2552000  3
   1291   1297   1298   1300     1  0.0000000  1.2552000  3
   1291   1297   1301   1302     1  0.0000000  1.2552000  3
   1291   1297   1301   1303     1  0.0000000  1.2552000  3
   1292   1291   1294   1314     1  0.0000000  0.6508444  3
   1292   1291   1294   1295     1  0.0000000  0.6508444  3
   1292   1291   1294   1296     1  0.0000000  0.6508444  3
   1292   1291   1297   1298     1  0.0000000  1.2552000  3
   1292   1291   1297   1301     1  0.0000000  1.2552000  3
   1293   1291   1294   1314     1  0.0000000  0.6508444  3
   1293   1291   1294   1295     1  0.0000000  0.6508444  3
   1293   1291   1294   1296     1  0.0000000  0.6508444  3
   1293   1291   1297   1298     1  0.0000000  1.2552000  3
   1293   1291   1297   1301     1  0.0000000  1.2552000  3
   1295   1294   1291   1297     1  0.0000000  0.6508444  3
   1295   1294   1314   1315     1  0.0000000  0.0000000  2
   1296   1294   1291   1297     1  0.0000000  0.6508444  3
   1296   1294   1314   1315     1  0.0000000  0.0000000  2
   1297   1298   1307   1308     1  0.0000000  0.6508444  3
   1297   1298   1307   1309     1  0.0000000  0.6508444  3
   1297   1301   1304   1305     1  0.0000000  0.6508444  3
   1297   1301   1304   1306     1  0.0000000  0.6508444  3
   1298   1297   1301   1302     1  0.0000000  1.2552000  3
   1298   1297   1301   1303     1  0.0000000  1.2552000  3
   1299   1298   1297   1301     1  0.0000000  1.2552000  3
   1299   1298   1307   1311     1  0.0000000  0.6508444  3
   1299   1298   1307   1308     1  0.0000000  0.6508444  3
   1299   1298   1307   1309     1  0.0000000  0.6508444  3
   1300   1298   1297   1301     1  0.0000000  1.2552000  3
   1300   1298   1307   1311     1  0.0000000  0.6508444  3
   1300   1298   1307   1308     1  0.0000000  0.6508444  3
   1300   1298   1307   1309     1  0.0000000  0.6508444  3
   1302   1301   1304   1310     1  0.0000000  0.6508444  3
   1302   1301   1304   1305     1  0.0000000  0.6508444  3
   1302   1301   1304   1306     1  0.0000000  0.6508444  3
   1303   1301   1304   1310     1  0.0000000  0.6508444  3
   1303   1301   1304   1305     1  0.0000000  0.6508444  3
   1303   1301   1304   1306     1  0.0000000  0.6508444  3
   1304   1310   4753   4754     1  180.0000771  10.4600000  2
   1305   1304   1310   4753     1  180.0000771  0.0000000  2
   1305   1304   1310   1312     1  0.0000000  3.3472000  1
   1305   1304   1310   1312     1  0.0000000  0.0000000  2
   1305   1304   1310   1312     1  180.0000771  0.3347200  3
   1306   1304   1310   4753     1  180.0000771  0.0000000  2
   1306   1304   1310   1312     1  0.0000000  3.3472000  1
   1306   1304   1310   1312     1  0.0000000  0.0000000  2
   1306   1304   1310   1312     1  180.0000771  0.3347200  3
   1307   1311   4826   4827     1  180.0000771  10.4600000  2
   1308   1307   1311   1313     1  0.0000000  3.3472000  1
   1308   1307   1311   1313     1  0.0000000  0.0000000  2
   1308   1307   1311   1313     1  180.0000771  0.3347200  3
   1308   1307   1311   4826     1  180.0000771  0.0000000  2
   1309   1307   1311   1313     1  0.0000000  3.3472000  1
   1309   1307   1311   1313     1  0.0000000  0.0000000  2
   1309   1307   1311   1313     1  180.0000771  0.3347200  3
   1309   1307   1311   4826     1  180.0000771  0.0000000  2
   1310   4753   4755   4756     1  0.0000000  0.0000000  2
   1310   4753   4755   4758     1  0.0000000  0.0000000  2
   1311   4826   4828   4829     1  0.0000000  0.0000000  2
   1311   4826   4828   4831     1  0.0000000  0.0000000  2
   1312   1310   4753   4754     1  0.0000000  8.3680000  1
   1312   1310   4753   4754     1  180.0000771  10.4600000  2
   1313   1311   4826   4827     1  0.0000000  8.3680000  1
   1313   1311   4826   4827     1  180.0000771  10.4600000  2
   1316   1319   1339   1340     1  0.0000000  0.0000000  2
   1316   1322   1323   1324     1  0.0000000  1.2552000  3
   1316   1322   1323   1325     1  0.0000000  1.2552000  3
   1316   1322   1326   1327     1  0.0000000  1.2552000  3
   1316   1322   1326   1328     1  0.0000000  1.2552000  3
   1317   1316   1319   1339     1  0.0000000  0.6508444  3
   1317   1316   1319   1320     1  0.0000000  0.6508444  3
   1317   1316   1319   1321     1  0.0000000  0.6508444  3
   1317   1316   1322   1323     1  0.0000000  1.2552000  3
   1317   1316   1322   1326     1  0.0000000  1.2552000  3
   1318   1316   1319   1339     1  0.0000000  0.6508444  3
   1318   1316   1319   1320     1  0.0000000  0.6508444  3
   1318   1316   1319   1321     1  0.0000000  0.6508444  3
   1318   1316   1322   1323     1  0.0000000  1.2552000  3
   1318   1316   1322   1326     1  0.0000000  1.2552000  3
   1320   1319   1316   1322     1  0.0000000  0.6508444  3
   1320   1319   1339   1340     1  0.0000000  0.0000000  2
   1321   1319   1316   1322     1  0.0000000  0.6508444  3
   1321   1319   1339   1340     1  0.0000000  0.0000000  2
   1322   1323   1332   1333     1  0.0000000  0.6508444  3
   1322   1323   1332   1334     1  0.0000000  0.6508444  3
   1322   1326   1329   1330     1  0.0000000  0.6508444  3
   1322   1326   1329   1331     1  0.0000000  0.6508444  3
   1323   1322   1326   1327     1  0.0000000  1.2552000  3
   1323   1322   1326   1328     1  0.0000000  1.2552000  3
   1324   1323   1322   1326     1  0.0000000  1.2552000  3
   1324   1323   1332   1336     1  0.0000000  0.6508444  3
   1324   1323   1332   1333     1  0.0000000  0.6508444  3
   1324   1323   1332   1334     1  0.0000000  0.6508444  3
   1325   1323   1322   1326     1  0.0000000  1.2552000  3
   1325   1323   1332   1336     1  0.0000000  0.6508444  3
   1325   1323   1332   1333     1  0.0000000  0.6508444  3
   1325   1323   1332   1334     1  0.0000000  0.6508444  3
   1327   1326   1329   1335     1  0.0000000  0.6508444  3
   1327   1326   1329   1330     1  0.0000000  0.6508444  3
   1327   1326   1329   1331     1  0.0000000  0.6508444  3
   1328   1326   1329   1335     1  0.0000000  0.6508444  3
   1328   1326   1329   1330     1  0.0000000  0.6508444  3
   1328   1326   1329   1331     1  0.0000000  0.6508444  3
   1329   1335   4899   4900     1  180.0000771  10.4600000  2
   1330   1329   1335   4899     1  180.0000771  0.0000000  2
   1330   1329   1335   1337     1  0.0000000  3.3472000  1
   1330   1329   1335   1337     1  0.0000000  0.0000000  2
   1330   1329   1335   1337     1  180.0000771  0.3347200  3
   1331   1329   1335   4899     1  180.0000771  0.0000000  2
   1331   1329   1335   1337     1  0.0000000  3.3472000  1
   1331   1329   1335   1337     1  0.0000000  0.0000000  2
   1331   1329   1335   1337     1  180.0000771  0.3347200  3
   1332   1336   4972   4973     1  180.0000771  10.4600000  2
   1333   1332   1336   1338     1  0.0000000  3.3472000  1
   1333   1332   1336   1338     1  0.0000000  0.0000000  2
   1333   1332   1336   1338     1  180.0000771  0.3347200  3
   1333   1332   1336   4972     1  180.0000771  0.0000000  2
   1334   1332   1336   1338     1  0.0000000  3.3472000  1
   1334   1332   1336   1338     1  0.0000000  0.0000000  2
   1334   1332   1336   1338     1  180.0000771  0.3347200  3
   1334   1332   1336   4972     1  180.0000771  0.0000000  2
   1335   4899   4901   4902     1  0.0000000  0.0000000  2
   1335   4899   4901   4904     1  0.0000000  0.0000000  2
   1336   4972   4974   4975     1  0.0000000  0.0000000  2
   1336   4972   4974   4977     1  0.0000000  0.0000000  2
   1337   1335   4899   4900     1  0.0000000  8.3680000  1
   1337   1335   4899   4900     1  180.0000771  10.4600000  2
   1338   1336   4972   4973     1  0.0000000  8.3680000  1
   1338   1336   4972   4973     1  180.0000771  10.4600000  2
   1341   1344   1364   1365     1  0.0000000  0.0000000  2
   1341   1347   1348   1349     1  0.0000000  1.2552000  3
   1341   1347   1348   1350     1  0.0000000  1.2552000  3
   1341   1347   1351   1352     1  0.0000000  1.2552000  3
   1341   1347   1351   1353     1  0.0000000  1.2552000  3
   1342   1341   1344   1364     1  0.0000000  0.6508444  3
   1342   1341   1344   1345     1  0.0000000  0.6508444  3
   1342   1341   1344   1346     1  0.0000000  0.6508444  3
   1342   1341   1347   1348     1  0.0000000  1.2552000  3
   1342   1341   1347   1351     1  0.0000000  1.2552000  3
   1343   1341   1344   1364     1  0.0000000  0.6508444  3
   1343   1341   1344   1345     1  0.0000000  0.6508444  3
   1343   1341   1344   1346     1  0.0000000  0.6508444  3
   1343   1341   1347   1348     1  0.0000000  1.2552000  3
   1343   1341   1347   1351     1  0.0000000  1.2552000  3
   1345   1344   1341   1347     1  0.0000000  0.6508444  3
   1345   1344   1364   1365     1  0.0000000  0.0000000  2
   1346   1344   1341   1347     1  0.0000000  0.6508444  3
   1346   1344   1364   1365     1  0.0000000  0.0000000  2
   1347   1348   1357   1358     1  0.0000000  0.6508444  3
   1347   1348   1357   1359     1  0.0000000  0.6508444  3
   1347   1351   1354   1355     1  0.0000000  0.6508444  3
   1347   1351   1354   1356     1  0.0000000  0.6508444  3
   1348   1347   1351   1352     1  0.0000000  1.2552000  3
   1348   1347   1351   1353     1  0.0000000  1.2552000  3
   1349   1348   1347   1351     1  0.0000000  1.2552000  3
   1349   1348   1357   1361     1  0.0000000  0.6508444  3
   1349   1348   1357   1358     1  0.0000000  0.6508444  3
   1349   1348   1357   1359     1  0.0000000  0.6508444  3
   1350   1348   1347   1351     1  0.0000000  1.2552000  3
   1350   1348   1357   1361     1  0.0000000  0.6508444  3
   1350   1348   1357   1358     1  0.0000000  0.6508444  3
   1350   1348   1357   1359     1  0.0000000  0.6508444  3
   1352   1351   1354   1360     1  0.0000000  0.6508444  3
   1352   1351   1354   1355     1  0.0000000  0.6508444  3
   1352   1351   1354   1356     1  0.0000000  0.6508444  3
   1353   1351   1354   1360     1  0.0000000  0.6508444  3
   1353   1351   1354   1355     1  0.0000000  0.6508444  3
   1353   1351   1354   1356     1  0.0000000  0.6508444  3
   1354   1360   5045   5046     1  180.0000771  10.4600000  2
   1355   1354   1360   5045     1  180.0000771  0.0000000  2
   1355   1354   1360   1362     1  0.0000000  3.3472000  1
   1355   1354   1360   1362     1  0.0000000  0.0000000  2
   1355   1354   1360   1362     1  180.0000771  0.3347200  3
   1356   1354   1360   5045     1  180.0000771  0.0000000  2
   1356   1354   1360   1362     1  0.0000000  3.3472000  1
   1356   1354   1360   1362     1  0.0000000  0.0000000  2
   1356   1354   1360   1362     1  180.0000771  0.3347200  3
   1357   1361   5118   5119     1  180.0000771  10.4600000  2
   1358   1357   1361   1363     1  0.0000000  3.3472000  1
   1358   1357   1361   1363     1  0.0000000  0.0000000  2
   1358   1357   1361   1363     1  180.0000771  0.3347200  3
   1358   1357   1361   5118     1  180.0000771  0.0000000  2
   1359   1357   1361   1363     1  0.0000000  3.3472000  1
   1359   1357   1361   1363     1  0.0000000  0.0000000  2
   1359   1357   1361   1363     1  180.0000771  0.3347200  3
   1359   1357   1361   5118     1  180.0000771  0.0000000  2
   1360   5045   5047   5048     1  0.0000000  0.0000000  2
   1360   5045   5047   5050     1  0.0000000  0.0000000  2
   1361   5118   5120   5121     1  0.0000000  0.0000000  2
   1361   5118   5120   5123     1  0.0000000  0.0000000  2
   1362   1360   5045   5046     1  0.0000000  8.3680000  1
   1362   1360   5045   5046     1  180.0000771  10.4600000  2
   1363   1361   5118   5119     1  0.0000000  8.3680000  1
   1363   1361   5118   5119     1  180.0000771  10.4600000  2
   1366   1369   1389   1390     1  0.0000000  0.0000000  2
   1366   1372   1373   1374     1  0.0000000  1.2552000  3
   1366   1372   1373   1375     1  0.0000000  1.2552000  3
   1366   1372   1376   1377     1  0.0000000  1.2552000  3
   1366   1372   1376   1378     1  0.0000000  1.2552000  3
   1367   1366   1369   1389     1  0.0000000  0.6508444  3
   1367   1366   1369   1370     1  0.0000000  0.6508444  3
   1367   1366   1369   1371     1  0.0000000  0.6508444  3
   1367   1366   1372   1373     1  0.0000000  1.2552000  3
   1367   1366   1372   1376     1  0.0000000  1.2552000  3
   1368   1366   1369   1389     1  0.0000000  0.6508444  3
   1368   1366   1369   1370     1  0.0000000  0.6508444  3
   1368   1366   1369   1371     1  0.0000000  0.6508444  3
   1368   1366   1372   1373     1  0.0000000  1.2552000  3
   1368   1366   1372   1376     1  0.0000000  1.2552000  3
   1370   1369   1366   1372     1  0.0000000  0.6508444  3
   1370   1369   1389   1390     1  0.0000000  0.0000000  2
   1371   1369   1366   1372     1  0.0000000  0.6508444  3
   1371   1369   1389   1390     1  0.0000000  0.0000000  2
   1372   1373   1382   1383     1  0.0000000  0.6508444  3
   1372   1373   1382   1384     1  0.0000000  0.6508444  3
   1372   1376   1379   1380     1  0.0000000  0.6508444  3
   1372   1376   1379   1381     1  0.0000000  0.6508444  3
   1373   1372   1376   1377     1  0.0000000  1.2552000  3
   1373   1372   1376   1378     1  0.0000000  1.2552000  3
   1374   1373   1372   1376     1  0.0000000  1.2552000  3
   1374   1373   1382   1386     1  0.0000000  0.6508444  3
   1374   1373   1382   1383     1  0.0000000  0.6508444  3
   1374   1373   1382   1384     1  0.0000000  0.6508444  3
   1375   1373   1372   1376     1  0.0000000  1.2552000  3
   1375   1373   1382   1386     1  0.0000000  0.6508444  3
   1375   1373   1382   1383     1  0.0000000  0.6508444  3
   1375   1373   1382   1384     1  0.0000000  0.6508444  3
   1377   1376   1379   1385     1  0.0000000  0.6508444  3
   1377   1376   1379   1380     1  0.0000000  0.6508444  3
   1377   1376   1379   1381     1  0.0000000  0.6508444  3
   1378   1376   1379   1385     1  0.0000000  0.6508444  3
   1378   1376   1379   1380     1  0.0000000  0.6508444  3
   1378   1376   1379   1381     1  0.0000000  0.6508444  3
   1379   1385   5191   5192     1  180.0000771  10.4600000  2
   1380   1379   1385   5191     1  180.0000771  0.0000000  2
   1380   1379   1385   1387     1  0.0000000  3.3472000  1
   1380   1379   1385   1387     1  0.0000000  0.0000000  2
   1380   1379   1385   1387     1  180.0000771  0.3347200  3
   1381   1379   1385   5191     1  180.0000771  0.0000000  2
   1381   1379   1385   1387     1  0.0000000  3.3472000  1
   1381   1379   1385   1387     1  0.0000000  0.0000000  2
   1381   1379   1385   1387     1  180.0000771  0.3347200  3
   1382   1386   5264   5265     1  180.0000771  10.4600000  2
   1383   1382   1386   1388     1  0.0000000  3.3472000  1
   1383   1382   1386   1388     1  0.0000000  0.0000000  2
   1383   1382   1386   1388     1  180.0000771  0.3347200  3
   1383   1382   1386   5264     1  180.0000771  0.0000000  2
   1384   1382   1386   1388     1  0.0000000  3.3472000  1
   1384   1382   1386   1388     1  0.0000000  0.0000000  2
   1384   1382   1386   1388     1  180.0000771  0.3347200  3
   1384   1382   1386   5264     1  180.0000771  0.0000000  2
   1385   5191   5193   5194     1  0.0000000  0.0000000  2
   1385   5191   5193   5196     1  0.0000000  0.0000000  2
   1386   5264   5266   5267     1  0.0000000  0.0000000  2
   1386   5264   5266   5269     1  0.0000000  0.0000000  2
   1387   1385   5191   5192     1  0.0000000  8.3680000  1
   1387   1385   5191   5192     1  180.0000771  10.4600000  2
   1388   1386   5264   5265     1  0.0000000  8.3680000  1
   1388   1386   5264   5265     1  180.0000771  10.4600000  2
   1391   1394   1414   1415     1  0.0000000  0.0000000  2
   1391   1397   1398   1399     1  0.0000000  1.2552000  3
   1391   1397   1398   1400     1  0.0000000  1.2552000  3
   1391   1397   1401   1402     1  0.0000000  1.2552000  3
   1391   1397   1401   1403     1  0.0000000  1.2552000  3
   1392   1391   1394   1414     1  0.0000000  0.6508444  3
   1392   1391   1394   1395     1  0.0000000  0.6508444  3
   1392   1391   1394   1396     1  0.0000000  0.6508444  3
   1392   1391   1397   1398     1  0.0000000  1.2552000  3
   1392   1391   1397   1401     1  0.0000000  1.2552000  3
   1393   1391   1394   1414     1  0.0000000  0.6508444  3
   1393   1391   1394   1395     1  0.0000000  0.6508444  3
   1393   1391   1394   1396     1  0.0000000  0.6508444  3
   1393   1391   1397   1398     1  0.0000000  1.2552000  3
   1393   1391   1397   1401     1  0.0000000  1.2552000  3
   1395   1394   1391   1397     1  0.0000000  0.6508444  3
   1395   1394   1414   1415     1  0.0000000  0.0000000  2
   1396   1394   1391   1397     1  0.0000000  0.6508444  3
   1396   1394   1414   1415     1  0.0000000  0.0000000  2
   1397   1398   1407   1408     1  0.0000000  0.6508444  3
   1397   1398   1407   1409     1  0.0000000  0.6508444  3
   1397   1401   1404   1405     1  0.0000000  0.6508444  3
   1397   1401   1404   1406     1  0.0000000  0.6508444  3
   1398   1397   1401   1402     1  0.0000000  1.2552000  3
   1398   1397   1401   1403     1  0.0000000  1.2552000  3
   1399   1398   1397   1401     1  0.0000000  1.2552000  3
   1399   1398   1407   1411     1  0.0000000  0.6508444  3
   1399   1398   1407   1408     1  0.0000000  0.6508444  3
   1399   1398   1407   1409     1  0.0000000  0.6508444  3
   1400   1398   1397   1401     1  0.0000000  1.2552000  3
   1400   1398   1407   1411     1  0.0000000  0.6508444  3
   1400   1398   1407   1408     1  0.0000000  0.6508444  3
   1400   1398   1407   1409     1  0.0000000  0.6508444  3
   1402   1401   1404   1410     1  0.0000000  0.6508444  3
   1402   1401   1404   1405     1  0.0000000  0.6508444  3
   1402   1401   1404   1406     1  0.0000000  0.6508444  3
   1403   1401   1404   1410     1  0.0000000  0.6508444  3
   1403   1401   1404   1405     1  0.0000000  0.6508444  3
   1403   1401   1404   1406     1  0.0000000  0.6508444  3
   1404   1410   5337   5338     1  180.0000771  10.4600000  2
   1405   1404   1410   5337     1  180.0000771  0.0000000  2
   1405   1404   1410   1412     1  0.0000000  3.3472000  1
   1405   1404   1410   1412     1  0.0000000  0.0000000  2
   1405   1404   1410   1412     1  180.0000771  0.3347200  3
   1406   1404   1410   5337     1  180.0000771  0.0000000  2
   1406   1404   1410   1412     1  0.0000000  3.3472000  1
   1406   1404   1410   1412     1  0.0000000  0.0000000  2
   1406   1404   1410   1412     1  180.0000771  0.3347200  3
   1407   1411   5410   5411     1  180.0000771  10.4600000  2
   1408   1407   1411   1413     1  0.0000000  3.3472000  1
   1408   1407   1411   1413     1  0.0000000  0.0000000  2
   1408   1407   1411   1413     1  180.0000771  0.3347200  3
   1408   1407   1411   5410     1  180.0000771  0.0000000  2
   1409   1407   1411   1413     1  0.0000000  3.3472000  1
   1409   1407   1411   1413     1  0.0000000  0.0000000  2
   1409   1407   1411   1413     1  180.0000771  0.3347200  3
   1409   1407   1411   5410     1  180.0000771  0.0000000  2
   1410   5337   5339   5340     1  0.0000000  0.0000000  2
   1410   5337   5339   5342     1  0.0000000  0.0000000  2
   1411   5410   5412   5413     1  0.0000000  0.0000000  2
   1411   5410   5412   5415     1  0.0000000  0.0000000  2
   1412   1410   5337   5338     1  0.0000000  8.3680000  1
   1412   1410   5337   5338     1  180.0000771  10.4600000  2
   1413   1411   5410   5411     1  0.0000000  8.3680000  1
   1413   1411   5410   5411     1  180.0000771  10.4600000  2
   1416   1419   1439   1440     1  0.0000000  0.0000000  2
   1416   1422   1423   1424     1  0.0000000  1.2552000  3
   1416   1422   1423   1425     1  0.0000000  1.2552000  3
   1416   1422   1426   1427     1  0.0000000  1.2552000  3
   1416   1422   1426   1428     1  0.0000000  1.2552000  3
   1417   1416   1419   1439     1  0.0000000  0.6508444  3
   1417   1416   1419   1420     1  0.0000000  0.6508444  3
   1417   1416   1419   1421     1  0.0000000  0.6508444  3
   1417   1416   1422   1423     1  0.0000000  1.2552000  3
   1417   1416   1422   1426     1  0.0000000  1.2552000  3
   1418   1416   1419   1439     1  0.0000000  0.6508444  3
   1418   1416   1419   1420     1  0.0000000  0.6508444  3
   1418   1416   1419   1421     1  0.0000000  0.6508444  3
   1418   1416   1422   1423     1  0.0000000  1.2552000  3
   1418   1416   1422   1426     1  0.0000000  1.2552000  3
   1420   1419   1416   1422     1  0.0000000  0.6508444  3
   1420   1419   1439   1440     1  0.0000000  0.0000000  2
   1421   1419   1416   1422     1  0.0000000  0.6508444  3
   1421   1419   1439   1440     1  0.0000000  0.0000000  2
   1422   1423   1432   1433     1  0.0000000  0.6508444  3
   1422   1423   1432   1434     1  0.0000000  0.6508444  3
   1422   1426   1429   1430     1  0.0000000  0.6508444  3
   1422   1426   1429   1431     1  0.0000000  0.6508444  3
   1423   1422   1426   1427     1  0.0000000  1.2552000  3
   1423   1422   1426   1428     1  0.0000000  1.2552000  3
   1424   1423   1422   1426     1  0.0000000  1.2552000  3
   1424   1423   1432   1436     1  0.0000000  0.6508444  3
   1424   1423   1432   1433     1  0.0000000  0.6508444  3
   1424   1423   1432   1434     1  0.0000000  0.6508444  3
   1425   1423   1422   1426     1  0.0000000  1.2552000  3
   1425   1423   1432   1436     1  0.0000000  0.6508444  3
   1425   1423   1432   1433     1  0.0000000  0.6508444  3
   1425   1423   1432   1434     1  0.0000000  0.6508444  3
   1427   1426   1429   1435     1  0.0000000  0.6508444  3
   1427   1426   1429   1430     1  0.0000000  0.6508444  3
   1427   1426   1429   1431     1  0.0000000  0.6508444  3
   1428   1426   1429   1435     1  0.0000000  0.6508444  3
   1428   1426   1429   1430     1  0.0000000  0.6508444  3
   1428   1426   1429   1431     1  0.0000000  0.6508444  3
   1429   1435   5483   5484     1  180.0000771  10.4600000  2
   1430   1429   1435   5483     1  180.0000771  0.0000000  2
   1430   1429   1435   1437     1  0.0000000  3.3472000  1
   1430   1429   1435   1437     1  0.0000000  0.0000000  2
   1430   1429   1435   1437     1  180.0000771  0.3347200  3
   1431   1429   1435   5483     1  180.0000771  0.0000000  2
   1431   1429   1435   1437     1  0.0000000  3.3472000  1
   1431   1429   1435   1437     1  0.0000000  0.0000000  2
   1431   1429   1435   1437     1  180.0000771  0.3347200  3
   1432   1436   5556   5557     1  180.0000771  10.4600000  2
   1433   1432   1436   1438     1  0.0000000  3.3472000  1
   1433   1432   1436   1438     1  0.0000000  0.0000000  2
   1433   1432   1436   1438     1  180.0000771  0.3347200  3
   1433   1432   1436   5556     1  180.0000771  0.0000000  2
   1434   1432   1436   1438     1  0.0000000  3.3472000  1
   1434   1432   1436   1438     1  0.0000000  0.0000000  2
   1434   1432   1436   1438     1  180.0000771  0.3347200  3
   1434   1432   1436   5556     1  180.0000771  0.0000000  2
   1435   5483   5485   5486     1  0.0000000  0.0000000  2
   1435   5483   5485   5488     1  0.0000000  0.0000000  2
   1436   5556   5558   5559     1  0.0000000  0.0000000  2
   1436   5556   5558   5561     1  0.0000000  0.0000000  2
   1437   1435   5483   5484     1  0.0000000  8.3680000  1
   1437   1435   5483   5484     1  180.0000771  10.4600000  2
   1438   1436   5556   5557     1  0.0000000  8.3680000  1
   1438   1436   5556   5557     1  180.0000771  10.4600000  2
   1441   1444   1464   1465     1  0.0000000  0.0000000  2
   1441   1447   1448   1449     1  0.0000000  1.2552000  3
   1441   1447   1448   1450     1  0.0000000  1.2552000  3
   1441   1447   1451   1452     1  0.0000000  1.2552000  3
   1441   1447   1451   1453     1  0.0000000  1.2552000  3
   1442   1441   1444   1464     1  0.0000000  0.6508444  3
   1442   1441   1444   1445     1  0.0000000  0.6508444  3
   1442   1441   1444   1446     1  0.0000000  0.6508444  3
   1442   1441   1447   1448     1  0.0000000  1.2552000  3
   1442   1441   1447   1451     1  0.0000000  1.2552000  3
   1443   1441   1444   1464     1  0.0000000  0.6508444  3
   1443   1441   1444   1445     1  0.0000000  0.6508444  3
   1443   1441   1444   1446     1  0.0000000  0.6508444  3
   1443   1441   1447   1448     1  0.0000000  1.2552000  3
   1443   1441   1447   1451     1  0.0000000  1.2552000  3
   1445   1444   1441   1447     1  0.0000000  0.6508444  3
   1445   1444   1464   1465     1  0.0000000  0.0000000  2
   1446   1444   1441   1447     1  0.0000000  0.6508444  3
   1446   1444   1464   1465     1  0.0000000  0.0000000  2
   1447   1448   1457   1458     1  0.0000000  0.6508444  3
   1447   1448   1457   1459     1  0.0000000  0.6508444  3
   1447   1451   1454   1455     1  0.0000000  0.6508444  3
   1447   1451   1454   1456     1  0.0000000  0.6508444  3
   1448   1447   1451   1452     1  0.0000000  1.2552000  3
   1448   1447   1451   1453     1  0.0000000  1.2552000  3
   1449   1448   1447   1451     1  0.0000000  1.2552000  3
   1449   1448   1457   1461     1  0.0000000  0.6508444  3
   1449   1448   1457   1458     1  0.0000000  0.6508444  3
   1449   1448   1457   1459     1  0.0000000  0.6508444  3
   1450   1448   1447   1451     1  0.0000000  1.2552000  3
   1450   1448   1457   1461     1  0.0000000  0.6508444  3
   1450   1448   1457   1458     1  0.0000000  0.6508444  3
   1450   1448   1457   1459     1  0.0000000  0.6508444  3
   1452   1451   1454   1460     1  0.0000000  0.6508444  3
   1452   1451   1454   1455     1  0.0000000  0.6508444  3
   1452   1451   1454   1456     1  0.0000000  0.6508444  3
   1453   1451   1454   1460     1  0.0000000  0.6508444  3
   1453   1451   1454   1455     1  0.0000000  0.6508444  3
   1453   1451   1454   1456     1  0.0000000  0.6508444  3
   1454   1460   5629   5630     1  180.0000771  10.4600000  2
   1455   1454   1460   5629     1  180.0000771  0.0000000  2
   1455   1454   1460   1462     1  0.0000000  3.3472000  1
   1455   1454   1460   1462     1  0.0000000  0.0000000  2
   1455   1454   1460   1462     1  180.0000771  0.3347200  3
   1456   1454   1460   5629     1  180.0000771  0.0000000  2
   1456   1454   1460   1462     1  0.0000000  3.3472000  1
   1456   1454   1460   1462     1  0.0000000  0.0000000  2
   1456   1454   1460   1462     1  180.0000771  0.3347200  3
   1457   1461   5702   5703     1  180.0000771  10.4600000  2
   1458   1457   1461   1463     1  0.0000000  3.3472000  1
   1458   1457   1461   1463     1  0.0000000  0.0000000  2
   1458   1457   1461   1463     1  180.0000771  0.3347200  3
   1458   1457   1461   5702     1  180.0000771  0.0000000  2
   1459   1457   1461   1463     1  0.0000000  3.3472000  1
   1459   1457   1461   1463     1  0.0000000  0.0000000  2
   1459   1457   1461   1463     1  180.0000771  0.3347200  3
   1459   1457   1461   5702     1  180.0000771  0.0000000  2
   1460   5629   5631   5632     1  0.0000000  0.0000000  2
   1460   5629   5631   5634     1  0.0000000  0.0000000  2
   1461   5702   5704   5705     1  0.0000000  0.0000000  2
   1461   5702   5704   5707     1  0.0000000  0.0000000  2
   1462   1460   5629   5630     1  0.0000000  8.3680000  1
   1462   1460   5629   5630     1  180.0000771  10.4600000  2
   1463   1461   5702   5703     1  0.0000000  8.3680000  1
   1463   1461   5702   5703     1  180.0000771  10.4600000  2
   1466   1469   1489   1490     1  0.0000000  0.0000000  2
   1466   1472   1473   1474     1  0.0000000  1.2552000  3
   1466   1472   1473   1475     1  0.0000000  1.2552000  3
   1466   1472   1476   1477     1  0.0000000  1.2552000  3
   1466   1472   1476   1478     1  0.0000000  1.2552000  3
   1467   1466   1469   1489     1  0.0000000  0.6508444  3
   1467   1466   1469   1470     1  0.0000000  0.6508444  3
   1467   1466   1469   1471     1  0.0000000  0.6508444  3
   1467   1466   1472   1473     1  0.0000000  1.2552000  3
   1467   1466   1472   1476     1  0.0000000  1.2552000  3
   1468   1466   1469   1489     1  0.0000000  0.6508444  3
   1468   1466   1469   1470     1  0.0000000  0.6508444  3
   1468   1466   1469   1471     1  0.0000000  0.6508444  3
   1468   1466   1472   1473     1  0.0000000  1.2552000  3
   1468   1466   1472   1476     1  0.0000000  1.2552000  3
   1470   1469   1466   1472     1  0.0000000  0.6508444  3
   1470   1469   1489   1490     1  0.0000000  0.0000000  2
   1471   1469   1466   1472     1  0.0000000  0.6508444  3
   1471   1469   1489   1490     1  0.0000000  0.0000000  2
   1472   1473   1482   1483     1  0.0000000  0.6508444  3
   1472   1473   1482   1484     1  0.0000000  0.6508444  3
   1472   1476   1479   1480     1  0.0000000  0.6508444  3
   1472   1476   1479   1481     1  0.0000000  0.6508444  3
   1473   1472   1476   1477     1  0.0000000  1.2552000  3
   1473   1472   1476   1478     1  0.0000000  1.2552000  3
   1474   1473   1472   1476     1  0.0000000  1.2552000  3
   1474   1473   1482   1486     1  0.0000000  0.6508444  3
   1474   1473   1482   1483     1  0.0000000  0.6508444  3
   1474   1473   1482   1484     1  0.0000000  0.6508444  3
   1475   1473   1472   1476     1  0.0000000  1.2552000  3
   1475   1473   1482   1486     1  0.0000000  0.6508444  3
   1475   1473   1482   1483     1  0.0000000  0.6508444  3
   1475   1473   1482   1484     1  0.0000000  0.6508444  3
   1477   1476   1479   1485     1  0.0000000  0.6508444  3
   1477   1476   1479   1480     1  0.0000000  0.6508444  3
   1477   1476   1479   1481     1  0.0000000  0.6508444  3
   1478   1476   1479   1485     1  0.0000000  0.6508444  3
   1478   1476   1479   1480     1  0.0000000  0.6508444  3
   1478   1476   1479   1481     1  0.0000000  0.6508444  3
   1479   1485   5775   5776     1  180.0000771  10.4600000  2
   1480   1479   1485   5775     1  180.0000771  0.0000000  2
   1480   1479   1485   1487     1  0.0000000  3.3472000  1
   1480   1479   1485   1487     1  0.0000000  0.0000000  2
   1480   1479   1485   1487     1  180.0000771  0.3347200  3
   1481   1479   1485   5775     1  180.0000771  0.0000000  2
   1481   1479   1485   1487     1  0.0000000  3.3472000  1
   1481   1479   1485   1487     1  0.0000000  0.0000000  2
   1481   1479   1485   1487     1  180.0000771  0.3347200  3
   1482   1486   5848   5849     1  180.0000771  10.4600000  2
   1483   1482   1486   1488     1  0.0000000  3.3472000  1
   1483   1482   1486   1488     1  0.0000000  0.0000000  2
   1483   1482   1486   1488     1  180.0000771  0.3347200  3
   1483   1482   1486   5848     1  180.0000771  0.0000000  2
   1484   1482   1486   1488     1  0.0000000  3.3472000  1
   1484   1482   1486   1488     1  0.0000000  0.0000000  2
   1484   1482   1486   1488     1  180.0000771  0.3347200  3
   1484   1482   1486   5848     1  180.0000771  0.0000000  2
   1485   5775   5777   5778     1  0.0000000  0.0000000  2
   1485   5775   5777   5780     1  0.0000000  0.0000000  2
   1486   5848   5850   5851     1  0.0000000  0.0000000  2
   1486   5848   5850   5853     1  0.0000000  0.0000000  2
   1487   1485   5775   5776     1  0.0000000  8.3680000  1
   1487   1485   5775   5776     1  180.0000771  10.4600000  2
   1488   1486   5848   5849     1  0.0000000  8.3680000  1
   1488   1486   5848   5849     1  180.0000771  10.4600000  2
   1491   1494   1514   1515     1  0.0000000  0.0000000  2
   1491   1497   1498   1499     1  0.0000000  1.2552000  3
   1491   1497   1498   1500     1  0.0000000  1.2552000  3
   1491   1497   1501   1502     1  0.0000000  1.2552000  3
   1491   1497   1501   1503     1  0.0000000  1.2552000  3
   1492   1491   1494   1514     1  0.0000000  0.6508444  3
   1492   1491   1494   1495     1  0.0000000  0.6508444  3
   1492   1491   1494   1496     1  0.0000000  0.6508444  3
   1492   1491   1497   1498     1  0.0000000  1.2552000  3
   1492   1491   1497   1501     1  0.0000000  1.2552000  3
   1493   1491   1494   1514     1  0.0000000  0.6508444  3
   1493   1491   1494   1495     1  0.0000000  0.6508444  3
   1493   1491   1494   1496     1  0.0000000  0.6508444  3
   1493   1491   1497   1498     1  0.0000000  1.2552000  3
   1493   1491   1497   1501     1  0.0000000  1.2552000  3
   1495   1494   1491   1497     1  0.0000000  0.6508444  3
   1495   1494   1514   1515     1  0.0000000  0.0000000  2
   1496   1494   1491   1497     1  0.0000000  0.6508444  3
   1496   1494   1514   1515     1  0.0000000  0.0000000  2
   1497   1498   1507   1508     1  0.0000000  0.6508444  3
   1497   1498   1507   1509     1  0.0000000  0.6508444  3
   1497   1501   1504   1505     1  0.0000000  0.6508444  3
   1497   1501   1504   1506     1  0.0000000  0.6508444  3
   1498   1497   1501   1502     1  0.0000000  1.2552000  3
   1498   1497   1501   1503     1  0.0000000  1.2552000  3
   1499   1498   1497   1501     1  0.0000000  1.2552000  3
   1499   1498   1507   1511     1  0.0000000  0.6508444  3
   1499   1498   1507   1508     1  0.0000000  0.6508444  3
   1499   1498   1507   1509     1  0.0000000  0.6508444  3
   1500   1498   1497   1501     1  0.0000000  1.2552000  3
   1500   1498   1507   1511     1  0.0000000  0.6508444  3
   1500   1498   1507   1508     1  0.0000000  0.6508444  3
   1500   1498   1507   1509     1  0.0000000  0.6508444  3
   1502   1501   1504   1510     1  0.0000000  0.6508444  3
   1502   1501   1504   1505     1  0.0000000  0.6508444  3
   1502   1501   1504   1506     1  0.0000000  0.6508444  3
   1503   1501   1504   1510     1  0.0000000  0.6508444  3
   1503   1501   1504   1505     1  0.0000000  0.6508444  3
   1503   1501   1504   1506     1  0.0000000  0.6508444  3
   1504   1510   5921   5922     1  180.0000771  10.4600000  2
   1505   1504   1510   5921     1  180.0000771  0.0000000  2
   1505   1504   1510   1512     1  0.0000000  3.3472000  1
   1505   1504   1510   1512     1  0.0000000  0.0000000  2
   1505   1504   1510   1512     1  180.0000771  0.3347200  3
   1506   1504   1510   5921     1  180.0000771  0.0000000  2
   1506   1504   1510   1512     1  0.0000000  3.3472000  1
   1506   1504   1510   1512     1  0.0000000  0.0000000  2
   1506   1504   1510   1512     1  180.0000771  0.3347200  3
   1507   1511   5994   5995     1  180.0000771  10.4600000  2
   1508   1507   1511   1513     1  0.0000000  3.3472000  1
   1508   1507   1511   1513     1  0.0000000  0.0000000  2
   1508   1507   1511   1513     1  180.0000771  0.3347200  3
   1508   1507   1511   5994     1  180.0000771  0.0000000  2
   1509   1507   1511   1513     1  0.0000000  3.3472000  1
   1509   1507   1511   1513     1  0.0000000  0.0000000  2
   1509   1507   1511   1513     1  180.0000771  0.3347200  3
   1509   1507   1511   5994     1  180.0000771  0.0000000  2
   1510   5921   5923   5924     1  0.0000000  0.0000000  2
   1510   5921   5923   5926     1  0.0000000  0.0000000  2
   1511   5994   5996   5997     1  0.0000000  0.0000000  2
   1511   5994   5996   5999     1  0.0000000  0.0000000  2
   1512   1510   5921   5922     1  0.0000000  8.3680000  1
   1512   1510   5921   5922     1  180.0000771  10.4600000  2
   1513   1511   5994   5995     1  0.0000000  8.3680000  1
   1513   1511   5994   5995     1  180.0000771  10.4600000  2
   1516   1519   1539   1540     1  0.0000000  0.0000000  2
   1516   1522   1523   1524     1  0.0000000  1.2552000  3
   1516   1522   1523   1525     1  0.0000000  1.2552000  3
   1516   1522   1526   1527     1  0.0000000  1.2552000  3
   1516   1522   1526   1528     1  0.0000000  1.2552000  3
   1517   1516   1519   1539     1  0.0000000  0.6508444  3
   1517   1516   1519   1520     1  0.0000000  0.6508444  3
   1517   1516   1519   1521     1  0.0000000  0.6508444  3
   1517   1516   1522   1523     1  0.0000000  1.2552000  3
   1517   1516   1522   1526     1  0.0000000  1.2552000  3
   1518   1516   1519   1539     1  0.0000000  0.6508444  3
   1518   1516   1519   1520     1  0.0000000  0.6508444  3
   1518   1516   1519   1521     1  0.0000000  0.6508444  3
   1518   1516   1522   1523     1  0.0000000  1.2552000  3
   1518   1516   1522   1526     1  0.0000000  1.2552000  3
   1520   1519   1516   1522     1  0.0000000  0.6508444  3
   1520   1519   1539   1540     1  0.0000000  0.0000000  2
   1521   1519   1516   1522     1  0.0000000  0.6508444  3
   1521   1519   1539   1540     1  0.0000000  0.0000000  2
   1522   1523   1532   1533     1  0.0000000  0.6508444  3
   1522   1523   1532   1534     1  0.0000000  0.6508444  3
   1522   1526   1529   1530     1  0.0000000  0.6508444  3
   1522   1526   1529   1531     1  0.0000000  0.6508444  3
   1523   1522   1526   1527     1  0.0000000  1.2552000  3
   1523   1522   1526   1528     1  0.0000000  1.2552000  3
   1524   1523   1522   1526     1  0.0000000  1.2552000  3
   1524   1523   1532   1536     1  0.0000000  0.6508444  3
   1524   1523   1532   1533     1  0.0000000  0.6508444  3
   1524   1523   1532   1534     1  0.0000000  0.6508444  3
   1525   1523   1522   1526     1  0.0000000  1.2552000  3
   1525   1523   1532   1536     1  0.0000000  0.6508444  3
   1525   1523   1532   1533     1  0.0000000  0.6508444  3
   1525   1523   1532   1534     1  0.0000000  0.6508444  3
   1527   1526   1529   1535     1  0.0000000  0.6508444  3
   1527   1526   1529   1530     1  0.0000000  0.6508444  3
   1527   1526   1529   1531     1  0.0000000  0.6508444  3
   1528   1526   1529   1535     1  0.0000000  0.6508444  3
   1528   1526   1529   1530     1  0.0000000  0.6508444  3
   1528   1526   1529   1531     1  0.0000000  0.6508444  3
   1529   1535   6067   6068     1  180.0000771  10.4600000  2
   1530   1529   1535   6067     1  180.0000771  0.0000000  2
   1530   1529   1535   1537     1  0.0000000  3.3472000  1
   1530   1529   1535   1537     1  0.0000000  0.0000000  2
   1530   1529   1535   1537     1  180.0000771  0.3347200  3
   1531   1529   1535   6067     1  180.0000771  0.0000000  2
   1531   1529   1535   1537     1  0.0000000  3.3472000  1
   1531   1529   1535   1537     1  0.0000000  0.0000000  2
   1531   1529   1535   1537     1  180.0000771  0.3347200  3
   1532   1536   6140   6141     1  180.0000771  10.4600000  2
   1533   1532   1536   6140     1  180.0000771  0.0000000  2
   1533   1532   1536   1538     1  0.0000000  3.3472000  1
   1533   1532   1536   1538     1  0.0000000  0.0000000  2
   1533   1532   1536   1538     1  180.0000771  0.3347200  3
   1534   1532   1536   6140     1  180.0000771  0.0000000  2
   1534   1532   1536   1538     1  0.0000000  3.3472000  1
   1534   1532   1536   1538     1  0.0000000  0.0000000  2
   1534   1532   1536   1538     1  180.0000771  0.3347200  3
   1535   6067   6069   6070     1  0.0000000  0.0000000  2
   1535   6067   6069   6072     1  0.0000000  0.0000000  2
   1536   6140   6142   6143     1  0.0000000  0.0000000  2
   1536   6140   6142   6145     1  0.0000000  0.0000000  2
   1537   1535   6067   6068     1  0.0000000  8.3680000  1
   1537   1535   6067   6068     1  180.0000771  10.4600000  2
   1538   1536   6140   6141     1  0.0000000  8.3680000  1
   1538   1536   6140   6141     1  180.0000771  10.4600000  2
   1541   1543   1545   1547     1  0.0000000  0.6508444  3
   1541   1543   1545   1548     1  0.0000000  0.6508444  3
   1542   1541   1543   1545     1  0.0000000  0.0000000  2
   1542   1541   1543   1544     1  0.0000000  0.0000000  2
   1542   1541   1543   1546     1  0.0000000  0.0000000  2
   1544   1543   1545   1549     1  0.0000000  0.6508444  3
   1544   1543   1545   1547     1  0.0000000  0.6508444  3
   1544   1543   1545   1548     1  0.0000000  0.6508444  3
   1545   1549   1550   1559     1  0.0000000  1.2552000  3
   1545   1549   1550   1560     1  0.0000000  1.2552000  3
   1545   1549   1551   1552     1  0.0000000  1.2552000  3
   1545   1549   1551   1554     1  0.0000000  1.2552000  3
   1546   1543   1545   1549     1  0.0000000  0.6508444  3
   1546   1543   1545   1547     1  0.0000000  0.6508444  3
   1546   1543   1545   1548     1  0.0000000  0.6508444  3
   1547   1545   1549   1550     1  0.0000000  1.2552000  3
   1547   1545   1549   1551     1  0.0000000  1.2552000  3
   1548   1545   1549   1550     1  0.0000000  1.2552000  3
   1548   1545   1549   1551     1  0.0000000  1.2552000  3
   1549   1550   1561   1562     1  0.0000000  0.6508444  3
   1549   1550   1561   1563     1  0.0000000  0.6508444  3
   1549   1551   1553   1555     1  0.0000000  0.6508444  3
   1549   1551   1553   1556     1  0.0000000  0.6508444  3
   1550   1549   1551   1552     1  0.0000000  1.2552000  3
   1550   1549   1551   1554     1  0.0000000  1.2552000  3
   1551   1549   1550   1559     1  0.0000000  1.2552000  3
   1551   1549   1550   1560     1  0.0000000  1.2552000  3
   1552   1551   1553   1557     1  0.0000000  0.6508444  3
   1552   1551   1553   1555     1  0.0000000  0.6508444  3
   1552   1551   1553   1556     1  0.0000000  0.6508444  3
   1553   1557   1589   1579     1  180.0000771  6.0668000  2
   1553   1557   1589   1579     1  180.0000771  1.4644000  4
   1554   1551   1553   1557     1  0.0000000  0.6508444  3
   1554   1551   1553   1555     1  0.0000000  0.6508444  3
   1554   1551   1553   1556     1  0.0000000  0.6508444  3
   1555   1553   1557   1558     1  0.0000000  3.3472000  1
   1555   1553   1557   1558     1  0.0000000  0.0000000  2
   1555   1553   1557   1558     1  180.0000771  0.3347200  3
   1555   1553   1557   1589     1  180.0000771  0.0000000  2
   1556   1553   1557   1558     1  0.0000000  3.3472000  1
   1556   1553   1557   1558     1  0.0000000  0.0000000  2
   1556   1553   1557   1558     1  180.0000771  0.3347200  3
   1556   1553   1557   1589     1  180.0000771  0.0000000  2
   1557   1589   1570   1572     1  0.0000000  1.2552000  3
   1558   1557   1589   1579     1  180.0000771  6.0668000  2
   1558   1557   1589   1579     1  180.0000771  1.4644000  4
   1559   1550   1561   1564     1  0.0000000  0.6508444  3
   1559   1550   1561   1562     1  0.0000000  0.6508444  3
   1559   1550   1561   1563     1  0.0000000  0.6508444  3
   1560   1550   1561   1564     1  0.0000000  0.6508444  3
   1560   1550   1561   1562     1  0.0000000  0.6508444  3
   1560   1550   1561   1563     1  0.0000000  0.6508444  3
   1561   1564   1613   1603     1  180.0000771  6.0668000  2
   1561   1564   1613   1603     1  180.0000771  1.4644000  4
   1562   1561   1564   1565     1  0.0000000  3.3472000  1
   1562   1561   1564   1565     1  0.0000000  0.0000000  2
   1562   1561   1564   1565     1  180.0000771  0.3347200  3
   1562   1561   1564   1613     1  180.0000771  0.0000000  2
   1563   1561   1564   1565     1  0.0000000  3.3472000  1
   1563   1561   1564   1565     1  0.0000000  0.0000000  2
   1563   1561   1564   1565     1  180.0000771  0.3347200  3
   1563   1561   1564   1613     1  180.0000771  0.0000000  2
   1564   1613   1594   1596     1  0.0000000  1.2552000  3
   1565   1564   1613   1603     1  180.0000771  6.0668000  2
   1565   1564   1613   1603     1  180.0000771  1.4644000  4
   1566   1567   1569   1573     1  0.0000000  0.6508444  3
   1566   1567   1587   1588     1  0.0000000  1.0460000  1
   1566   1567   1587   1588     1  0.0000000  0.6694400  3
   1566   1577   1582   1583     1  0.0000000  1.0460000  1
   1566   1577   1582   1583     1  0.0000000  0.6694400  3
   1566   1584   1571   1574     1  0.0000000  1.6038667  3
   1567   1566   1577   1580     1  0.0000000  0.6508444  3
   1567   1566   1577   1581     1  0.0000000  0.6508444  3
   1567   1569   1570   1572     1  0.0000000  0.6508444  3
   1567   1569   1576   1578     1  0.0000000  1.0460000  1
   1567   1569   1576   1578     1  0.0000000  0.6694400  3
   1568   1566   1567   1569     1  0.0000000  0.6508444  3
   1568   1566   1567   1587     1  0.0000000  1.0460000  1
   1568   1566   1567   1587     1  0.0000000  0.0000000  3
   1568   1566   1567   1586     1  0.0000000  0.6508444  3
   1568   1566   1577   1582     1  0.0000000  1.0460000  1
   1568   1566   1577   1582     1  0.0000000  0.0000000  3
   1568   1566   1577   1580     1  0.0000000  0.6508444  3
   1568   1566   1577   1581     1  0.0000000  0.6508444  3
   1568   1566   1584   1571     1  0.0000000  1.6038667  3
   1569   1567   1587   1588     1  0.0000000  1.0460000  1
   1569   1567   1587   1588     1  0.0000000  0.6694400  3
   1569   1570   1571   1574     1  0.0000000  0.6508444  3
   1569   1570   1589   1579     1  0.0000000  1.2552000  3
   1570   1569   1567   1586     1  0.0000000  0.6508444  3
   1570   1569   1576   1578     1  0.0000000  1.0460000  1
   1570   1569   1576   1578     1  0.0000000  0.6694400  3
   1570   1571   1575   1585     1  0.0000000  1.0460000  1
   1570   1571   1575   1585     1  0.0000000  0.6694400  3
   1571   1570   1569   1573     1  0.0000000  0.6508444  3
   1571   1570   1589   1579     1  0.0000000  1.2552000  3
   1572   1570   1569   1576     1  0.0000000  1.0460000  1
   1572   1570   1569   1576     1  0.0000000  0.0000000  3
   1572   1570   1569   1573     1  0.0000000  0.6508444  3
   1572   1570   1571   1575     1  0.0000000  1.0460000  1
   1572   1570   1571   1575     1  0.0000000  0.0000000  3
   1572   1570   1571   1584     1  0.0000000  1.0460000  1
   1572   1570   1571   1584     1  0.0000000  0.0000000  3
   1572   1570   1571   1574     1  0.0000000  0.6508444  3
   1572   1570   1589   1579     1  0.0000000  1.2552000  3
   1573   1569   1567   1587     1  0.0000000  1.0460000  1
   1573   1569   1567   1587     1  0.0000000  0.0000000  3
   1573   1569   1567   1586     1  0.0000000  0.6508444  3
   1573   1569   1570   1589     1  0.0000000  0.6508444  3
   1573   1569   1576   1578     1  0.0000000  0.6973333  3
   1574   1571   1570   1589     1  0.0000000  0.6508444  3
   1574   1571   1575   1585     1  0.0000000  0.6973333  3
   1576   1569   1567   1586     1  0.0000000  1.0460000  1
   1576   1569   1567   1586     1  0.0000000  0.0000000  3
   1577   1566   1567   1586     1  0.0000000  0.6508444  3
   1580   1577   1566   1584     1  0.0000000  1.0460000  1
   1580   1577   1566   1584     1  0.0000000  0.0000000  3
   1580   1577   1582   1583     1  0.0000000  0.6973333  3
   1581   1577   1566   1584     1  0.0000000  1.0460000  1
   1581   1577   1566   1584     1  0.0000000  0.0000000  3
   1581   1577   1582   1583     1  0.0000000  0.6973333  3
   1584   1566   1567   1586     1  0.0000000  1.0460000  1
   1584   1566   1567   1586     1  0.0000000  0.0000000  3
   1584   1571   1575   1585     1  0.0000000  0.6973333  3
   1586   1567   1587   1588     1  0.0000000  0.6973333  3
   1590   1591   1593   1597     1  0.0000000  0.6508444  3
   1590   1591   1611   1612     1  0.0000000  1.0460000  1
   1590   1591   1611   1612     1  0.0000000  0.6694400  3
   1590   1601   1606   1607     1  0.0000000  1.0460000  1
   1590   1601   1606   1607     1  0.0000000  0.6694400  3
   1590   1608   1595   1598     1  0.0000000  1.6038667  3
   1591   1590   1601   1604     1  0.0000000  0.6508444  3
   1591   1590   1601   1605     1  0.0000000  0.6508444  3
   1591   1593   1594   1596     1  0.0000000  0.6508444  3
   1591   1593   1600   1602     1  0.0000000  1.0460000  1
   1591   1593   1600   1602     1  0.0000000  0.6694400  3
   1592   1590   1591   1593     1  0.0000000  0.6508444  3
   1592   1590   1591   1611     1  0.0000000  1.0460000  1
   1592   1590   1591   1611     1  0.0000000  0.0000000  3
   1592   1590   1591   1610     1  0.0000000  0.6508444  3
   1592   1590   1601   1606     1  0.0000000  1.0460000  1
   1592   1590   1601   1606     1  0.0000000  0.0000000  3
   1592   1590   1601   1604     1  0.0000000  0.6508444  3
   1592   1590   1601   1605     1  0.0000000  0.6508444  3
   1592   1590   1608   1595     1  0.0000000  1.6038667  3
   1593   1591   1611   1612     1  0.0000000  1.0460000  1
   1593   1591   1611   1612     1  0.0000000  0.6694400  3
   1593   1594   1595   1598     1  0.0000000  0.6508444  3
   1593   1594   1613   1603     1  0.0000000  1.2552000  3
   1594   1593   1591   1610     1  0.0000000  0.6508444  3
   1594   1593   1600   1602     1  0.0000000  1.0460000  1
   1594   1593   1600   1602     1  0.0000000  0.6694400  3
   1594   1595   1599   1609     1  0.0000000  1.0460000  1
   1594   1595   1599   1609     1  0.0000000  0.6694400  3
   1595   1594   1593   1597     1  0.0000000  0.6508444  3
   1595   1594   1613   1603     1  0.0000000  1.2552000  3
   1596   1594   1593   1600     1  0.0000000  1.0460000  1
   1596   1594   1593   1600     1  0.0000000  0.0000000  3
   1596   1594   1593   1597     1  0.0000000  0.6508444  3
   1596   1594   1595   1599     1  0.0000000  1.0460000  1
   1596   1594   1595   1599     1  0.0000000  0.0000000  3
   1596   1594   1595   1608     1  0.0000000  1.0460000  1
   1596   1594   1595   1608     1  0.0000000  0.0000000  3
   1596   1594   1595   1598     1  0.0000000  0.6508444  3
   1596   1594   1613   1603     1  0.0000000  1.2552000  3
   1597   1593   1591   1611     1  0.0000000  1.0460000  1
   1597   1593   1591   1611     1  0.0000000  0.0000000  3
   1597   1593   1591   1610     1  0.0000000  0.6508444  3
   1597   1593   1594   1613     1  0.0000000  0.6508444  3
   1597   1593   1600   1602     1  0.0000000  0.6973333  3
   1598   1595   1594   1613     1  0.0000000  0.6508444  3
   1598   1595   1599   1609     1  0.0000000  0.6973333  3
   1600   1593   1591   1610     1  0.0000000  1.0460000  1
   1600   1593   1591   1610     1  0.0000000  0.0000000  3
   1601   1590   1591   1610     1  0.0000000  0.6508444  3
   1604   1601   1590   1608     1  0.0000000  1.0460000  1
   1604   1601   1590   1608     1  0.0000000  0.0000000  3
   1604   1601   1606   1607     1  0.0000000  0.6973333  3
   1605   1601   1590   1608     1  0.0000000  1.0460000  1
   1605   1601   1590   1608     1  0.0000000  0.0000000  3
   1605   1601   1606   1607     1  0.0000000  0.6973333  3
   1608   1590   1591   1610     1  0.0000000  1.0460000  1
   1608   1590   1591   1610     1  0.0000000  0.0000000  3
   1608   1595   1599   1609     1  0.0000000  0.6973333  3
   1610   1591   1611   1612     1  0.0000000  0.6973333  3
   1614   1616   1618   1620     1  0.0000000  0.6508444  3
   1614   1616   1618   1621     1  0.0000000  0.6508444  3
   1615   1614   1616   1618     1  0.0000000  0.0000000  2
   1615   1614   1616   1617     1  0.0000000  0.0000000  2
   1615   1614   1616   1619     1  0.0000000  0.0000000  2
   1617   1616   1618   1622     1  0.0000000  0.6508444  3
   1617   1616   1618   1620     1  0.0000000  0.6508444  3
   1617   1616   1618   1621     1  0.0000000  0.6508444  3
   1618   1622   1623   1632     1  0.0000000  1.2552000  3
   1618   1622   1623   1633     1  0.0000000  1.2552000  3
   1618   1622   1624   1625     1  0.0000000  1.2552000  3
   1618   1622   1624   1627     1  0.0000000  1.2552000  3
   1619   1616   1618   1622     1  0.0000000  0.6508444  3
   1619   1616   1618   1620     1  0.0000000  0.6508444  3
   1619   1616   1618   1621     1  0.0000000  0.6508444  3
   1620   1618   1622   1623     1  0.0000000  1.2552000  3
   1620   1618   1622   1624     1  0.0000000  1.2552000  3
   1621   1618   1622   1623     1  0.0000000  1.2552000  3
   1621   1618   1622   1624     1  0.0000000  1.2552000  3
   1622   1623   1634   1635     1  0.0000000  0.6508444  3
   1622   1623   1634   1636     1  0.0000000  0.6508444  3
   1622   1624   1626   1628     1  0.0000000  0.6508444  3
   1622   1624   1626   1629     1  0.0000000  0.6508444  3
   1623   1622   1624   1625     1  0.0000000  1.2552000  3
   1623   1622   1624   1627     1  0.0000000  1.2552000  3
   1624   1622   1623   1632     1  0.0000000  1.2552000  3
   1624   1622   1623   1633     1  0.0000000  1.2552000  3
   1625   1624   1626   1630     1  0.0000000  0.6508444  3
   1625   1624   1626   1628     1  0.0000000  0.6508444  3
   1625   1624   1626   1629     1  0.0000000  0.6508444  3
   1626   1630   1662   1652     1  180.0000771  6.0668000  2
   1626   1630   1662   1652     1  180.0000771  1.4644000  4
   1627   1624   1626   1630     1  0.0000000  0.6508444  3
   1627   1624   1626   1628     1  0.0000000  0.6508444  3
   1627   1624   1626   1629     1  0.0000000  0.6508444  3
   1628   1626   1630   1631     1  0.0000000  3.3472000  1
   1628   1626   1630   1631     1  0.0000000  0.0000000  2
   1628   1626   1630   1631     1  180.0000771  0.3347200  3
   1628   1626   1630   1662     1  180.0000771  0.0000000  2
   1629   1626   1630   1631     1  0.0000000  3.3472000  1
   1629   1626   1630   1631     1  0.0000000  0.0000000  2
   1629   1626   1630   1631     1  180.0000771  0.3347200  3
   1629   1626   1630   1662     1  180.0000771  0.0000000  2
   1630   1662   1643   1645     1  0.0000000  1.2552000  3
   1631   1630   1662   1652     1  180.0000771  6.0668000  2
   1631   1630   1662   1652     1  180.0000771  1.4644000  4
   1632   1623   1634   1637     1  0.0000000  0.6508444  3
   1632   1623   1634   1635     1  0.0000000  0.6508444  3
   1632   1623   1634   1636     1  0.0000000  0.6508444  3
   1633   1623   1634   1637     1  0.0000000  0.6508444  3
   1633   1623   1634   1635     1  0.0000000  0.6508444  3
   1633   1623   1634   1636     1  0.0000000  0.6508444  3
   1634   1637   1686   1676     1  180.0000771  6.0668000  2
   1634   1637   1686   1676     1  180.0000771  1.4644000  4
   1635   1634   1637   1638     1  0.0000000  3.3472000  1
   1635   1634   1637   1638     1  0.0000000  0.0000000  2
   1635   1634   1637   1638     1  180.0000771  0.3347200  3
   1635   1634   1637   1686     1  180.0000771  0.0000000  2
   1636   1634   1637   1638     1  0.0000000  3.3472000  1
   1636   1634   1637   1638     1  0.0000000  0.0000000  2
   1636   1634   1637   1638     1  180.0000771  0.3347200  3
   1636   1634   1637   1686     1  180.0000771  0.0000000  2
   1637   1686   1667   1669     1  0.0000000  1.2552000  3
   1638   1637   1686   1676     1  180.0000771  6.0668000  2
   1638   1637   1686   1676     1  180.0000771  1.4644000  4
   1639   1640   1642   1646     1  0.0000000  0.6508444  3
   1639   1640   1660   1661     1  0.0000000  1.0460000  1
   1639   1640   1660   1661     1  0.0000000  0.6694400  3
   1639   1650   1655   1656     1  0.0000000  1.0460000  1
   1639   1650   1655   1656     1  0.0000000  0.6694400  3
   1639   1657   1644   1647     1  0.0000000  1.6038667  3
   1640   1642   1643   1645     1  0.0000000  0.6508444  3
   1640   1642   1649   1651     1  0.0000000  1.0460000  1
   1640   1642   1649   1651     1  0.0000000  0.6694400  3
   1640   1639   1650   1653     1  0.0000000  0.6508444  3
   1640   1639   1650   1654     1  0.0000000  0.6508444  3
   1641   1639   1640   1642     1  0.0000000  0.6508444  3
   1641   1639   1640   1660     1  0.0000000  1.0460000  1
   1641   1639   1640   1660     1  0.0000000  0.0000000  3
   1641   1639   1640   1659     1  0.0000000  0.6508444  3
   1641   1639   1650   1655     1  0.0000000  1.0460000  1
   1641   1639   1650   1655     1  0.0000000  0.0000000  3
   1641   1639   1650   1653     1  0.0000000  0.6508444  3
   1641   1639   1650   1654     1  0.0000000  0.6508444  3
   1641   1639   1657   1644     1  0.0000000  1.6038667  3
   1642   1643   1644   1647     1  0.0000000  0.6508444  3
   1642   1643   1662   1652     1  0.0000000  1.2552000  3
   1642   1640   1660   1661     1  0.0000000  1.0460000  1
   1642   1640   1660   1661     1  0.0000000  0.6694400  3
   1643   1644   1648   1658     1  0.0000000  1.0460000  1
   1643   1644   1648   1658     1  0.0000000  0.6694400  3
   1643   1642   1649   1651     1  0.0000000  1.0460000  1
   1643   1642   1649   1651     1  0.0000000  0.6694400  3
   1643   1642   1640   1659     1  0.0000000  0.6508444  3
   1644   1643   1662   1652     1  0.0000000  1.2552000  3
   1644   1643   1642   1646     1  0.0000000  0.6508444  3
   1645   1643   1644   1648     1  0.0000000  1.0460000  1
   1645   1643   1644   1648     1  0.0000000  0.0000000  3
   1645   1643   1644   1657     1  0.0000000  1.0460000  1
   1645   1643   1644   1657     1  0.0000000  0.0000000  3
   1645   1643   1644   1647     1  0.0000000  0.6508444  3
   1645   1643   1662   1652     1  0.0000000  1.2552000  3
   1645   1643   1642   1649     1  0.0000000  1.0460000  1
   1645   1643   1642   1649     1  0.0000000  0.0000000  3
   1645   1643   1642   1646     1  0.0000000  0.6508444  3
   1646   1642   1643   1662     1  0.0000000  0.6508444  3
   1646   1642   1649   1651     1  0.0000000  0.6973333  3
   1646   1642   1640   1660     1  0.0000000  1.0460000  1
   1646   1642   1640   1660     1  0.0000000  0.0000000  3
   1646   1642   1640   1659     1  0.0000000  0.6508444  3
   1647   1644   1648   1658     1  0.0000000  0.6973333  3
   1647   1644   1643   1662     1  0.0000000  0.6508444  3
   1649   1642   1640   1659     1  0.0000000  1.0460000  1
   1649   1642   1640   1659     1  0.0000000  0.0000000  3
   1650   1639   1640   1659     1  0.0000000  0.6508444  3
   1653   1650   1655   1656     1  0.0000000  0.6973333  3
   1653   1650   1639   1657     1  0.0000000  1.0460000  1
   1653   1650   1639   1657     1  0.0000000  0.0000000  3
   1654   1650   1655   1656     1  0.0000000  0.6973333  3
   1654   1650   1639   1657     1  0.0000000  1.0460000  1
   1654   1650   1639   1657     1  0.0000000  0.0000000  3
   1657   1644   1648   1658     1  0.0000000  0.6973333  3
   1657   1639   1640   1659     1  0.0000000  1.0460000  1
   1657   1639   1640   1659     1  0.0000000  0.0000000  3
   1659   1640   1660   1661     1  0.0000000  0.6973333  3
   1663   1664   1666   1670     1  0.0000000  0.6508444  3
   1663   1664   1684   1685     1  0.0000000  1.0460000  1
   1663   1664   1684   1685     1  0.0000000  0.6694400  3
   1663   1674   1679   1680     1  0.0000000  1.0460000  1
   1663   1674   1679   1680     1  0.0000000  0.6694400  3
   1663   1681   1668   1671     1  0.0000000  1.6038667  3
   1664   1666   1667   1669     1  0.0000000  0.6508444  3
   1664   1666   1673   1675     1  0.0000000  1.0460000  1
   1664   1666   1673   1675     1  0.0000000  0.6694400  3
   1664   1663   1674   1677     1  0.0000000  0.6508444  3
   1664   1663   1674   1678     1  0.0000000  0.6508444  3
   1665   1663   1664   1666     1  0.0000000  0.6508444  3
   1665   1663   1664   1684     1  0.0000000  1.0460000  1
   1665   1663   1664   1684     1  0.0000000  0.0000000  3
   1665   1663   1664   1683     1  0.0000000  0.6508444  3
   1665   1663   1674   1679     1  0.0000000  1.0460000  1
   1665   1663   1674   1679     1  0.0000000  0.0000000  3
   1665   1663   1674   1677     1  0.0000000  0.6508444  3
   1665   1663   1674   1678     1  0.0000000  0.6508444  3
   1665   1663   1681   1668     1  0.0000000  1.6038667  3
   1666   1667   1668   1671     1  0.0000000  0.6508444  3
   1666   1667   1686   1676     1  0.0000000  1.2552000  3
   1666   1664   1684   1685     1  0.0000000  1.0460000  1
   1666   1664   1684   1685     1  0.0000000  0.6694400  3
   1667   1668   1672   1682     1  0.0000000  1.0460000  1
   1667   1668   1672   1682     1  0.0000000  0.6694400  3
   1667   1666   1673   1675     1  0.0000000  1.0460000  1
   1667   1666   1673   1675     1  0.0000000  0.6694400  3
   1667   1666   1664   1683     1  0.0000000  0.6508444  3
   1668   1667   1686   1676     1  0.0000000  1.2552000  3
   1668   1667   1666   1670     1  0.0000000  0.6508444  3
   1669   1667   1668   1672     1  0.0000000  1.0460000  1
   1669   1667   1668   1672     1  0.0000000  0.0000000  3
   1669   1667   1668   1681     1  0.0000000  1.0460000  1
   1669   1667   1668   1681     1  0.0000000  0.0000000  3
   1669   1667   1668   1671     1  0.0000000  0.6508444  3
   1669   1667   1686   1676     1  0.0000000  1.2552000  3
   1669   1667   1666   1673     1  0.0000000  1.0460000  1
   1669   1667   1666   1673     1  0.0000000  0.0000000  3
   1669   1667   1666   1670     1  0.0000000  0.6508444  3
   1670   1666   1667   1686     1  0.0000000  0.6508444  3
   1670   1666   1673   1675     1  0.0000000  0.6973333  3
   1670   1666   1664   1684     1  0.0000000  1.0460000  1
   1670   1666   1664   1684     1  0.0000000  0.0000000  3
   1670   1666   1664   1683     1  0.0000000  0.6508444  3
   1671   1668   1672   1682     1  0.0000000  0.6973333  3
   1671   1668   1667   1686     1  0.0000000  0.6508444  3
   1673   1666   1664   1683     1  0.0000000  1.0460000  1
   1673   1666   1664   1683     1  0.0000000  0.0000000  3
   1674   1663   1664   1683     1  0.0000000  0.6508444  3
   1677   1674   1679   1680     1  0.0000000  0.6973333  3
   1677   1674   1663   1681     1  0.0000000  1.0460000  1
   1677   1674   1663   1681     1  0.0000000  0.0000000  3
   1678   1674   1679   1680     1  0.0000000  0.6973333  3
   1678   1674   1663   1681     1  0.0000000  1.0460000  1
   1678   1674   1663   1681     1  0.0000000  0.0000000  3
   1681   1668   1672   1682     1  0.0000000  0.6973333  3
   1681   1663   1664   1683     1  0.0000000  1.0460000  1
   1681   1663   1664   1683     1  0.0000000  0.0000000  3
   1683   1664   1684   1685     1  0.0000000  0.6973333  3
   1687   1689   1691   1693     1  0.0000000  0.6508444  3
   1687   1689   1691   1694     1  0.0000000  0.6508444  3
   1688   1687   1689   1691     1  0.0000000  0.0000000  2
   1688   1687   1689   1690     1  0.0000000  0.0000000  2
   1688   1687   1689   1692     1  0.0000000  0.0000000  2
   1690   1689   1691   1695     1  0.0000000  0.6508444  3
   1690   1689   1691   1693     1  0.0000000  0.6508444  3
   1690   1689   1691   1694     1  0.0000000  0.6508444  3
   1691   1695   1696   1705     1  0.0000000  1.2552000  3
   1691   1695   1696   1706     1  0.0000000  1.2552000  3
   1691   1695   1697   1698     1  0.0000000  1.2552000  3
   1691   1695   1697   1700     1  0.0000000  1.2552000  3
   1692   1689   1691   1695     1  0.0000000  0.6508444  3
   1692   1689   1691   1693     1  0.0000000  0.6508444  3
   1692   1689   1691   1694     1  0.0000000  0.6508444  3
   1693   1691   1695   1696     1  0.0000000  1.2552000  3
   1693   1691   1695   1697     1  0.0000000  1.2552000  3
   1694   1691   1695   1696     1  0.0000000  1.2552000  3
   1694   1691   1695   1697     1  0.0000000  1.2552000  3
   1695   1696   1707   1708     1  0.0000000  0.6508444  3
   1695   1696   1707   1709     1  0.0000000  0.6508444  3
   1695   1697   1699   1701     1  0.0000000  0.6508444  3
   1695   1697   1699   1702     1  0.0000000  0.6508444  3
   1696   1695   1697   1698     1  0.0000000  1.2552000  3
   1696   1695   1697   1700     1  0.0000000  1.2552000  3
   1697   1695   1696   1705     1  0.0000000  1.2552000  3
   1697   1695   1696   1706     1  0.0000000  1.2552000  3
   1698   1697   1699   1703     1  0.0000000  0.6508444  3
   1698   1697   1699   1701     1  0.0000000  0.6508444  3
   1698   1697   1699   1702     1  0.0000000  0.6508444  3
   1699   1703   1735   1725     1  180.0000771  6.0668000  2
   1699   1703   1735   1725     1  180.0000771  1.4644000  4
   1700   1697   1699   1703     1  0.0000000  0.6508444  3
   1700   1697   1699   1701     1  0.0000000  0.6508444  3
   1700   1697   1699   1702     1  0.0000000  0.6508444  3
   1701   1699   1703   1704     1  0.0000000  3.3472000  1
   1701   1699   1703   1704     1  0.0000000  0.0000000  2
   1701   1699   1703   1704     1  180.0000771  0.3347200  3
   1701   1699   1703   1735     1  180.0000771  0.0000000  2
   1702   1699   1703   1704     1  0.0000000  3.3472000  1
   1702   1699   1703   1704     1  0.0000000  0.0000000  2
   1702   1699   1703   1704     1  180.0000771  0.3347200  3
   1702   1699   1703   1735     1  180.0000771  0.0000000  2
   1703   1735   1716   1718     1  0.0000000  1.2552000  3
   1704   1703   1735   1725     1  180.0000771  6.0668000  2
   1704   1703   1735   1725     1  180.0000771  1.4644000  4
   1705   1696   1707   1710     1  0.0000000  0.6508444  3
   1705   1696   1707   1708     1  0.0000000  0.6508444  3
   1705   1696   1707   1709     1  0.0000000  0.6508444  3
   1706   1696   1707   1710     1  0.0000000  0.6508444  3
   1706   1696   1707   1708     1  0.0000000  0.6508444  3
   1706   1696   1707   1709     1  0.0000000  0.6508444  3
   1707   1710   1759   1749     1  180.0000771  6.0668000  2
   1707   1710   1759   1749     1  180.0000771  1.4644000  4
   1708   1707   1710   1711     1  0.0000000  3.3472000  1
   1708   1707   1710   1711     1  0.0000000  0.0000000  2
   1708   1707   1710   1711     1  180.0000771  0.3347200  3
   1708   1707   1710   1759     1  180.0000771  0.0000000  2
   1709   1707   1710   1711     1  0.0000000  3.3472000  1
   1709   1707   1710   1711     1  0.0000000  0.0000000  2
   1709   1707   1710   1711     1  180.0000771  0.3347200  3
   1709   1707   1710   1759     1  180.0000771  0.0000000  2
   1710   1759   1740   1742     1  0.0000000  1.2552000  3
   1711   1710   1759   1749     1  180.0000771  6.0668000  2
   1711   1710   1759   1749     1  180.0000771  1.4644000  4
   1712   1713   1715   1719     1  0.0000000  0.6508444  3
   1712   1713   1733   1734     1  0.0000000  1.0460000  1
   1712   1713   1733   1734     1  0.0000000  0.6694400  3
   1712   1723   1728   1729     1  0.0000000  1.0460000  1
   1712   1723   1728   1729     1  0.0000000  0.6694400  3
   1712   1730   1717   1720     1  0.0000000  1.6038667  3
   1713   1712   1723   1726     1  0.0000000  0.6508444  3
   1713   1712   1723   1727     1  0.0000000  0.6508444  3
   1713   1715   1716   1718     1  0.0000000  0.6508444  3
   1713   1715   1722   1724     1  0.0000000  1.0460000  1
   1713   1715   1722   1724     1  0.0000000  0.6694400  3
   1714   1712   1713   1715     1  0.0000000  0.6508444  3
   1714   1712   1713   1733     1  0.0000000  1.0460000  1
   1714   1712   1713   1733     1  0.0000000  0.0000000  3
   1714   1712   1713   1732     1  0.0000000  0.6508444  3
   1714   1712   1723   1728     1  0.0000000  1.0460000  1
   1714   1712   1723   1728     1  0.0000000  0.0000000  3
   1714   1712   1723   1726     1  0.0000000  0.6508444  3
   1714   1712   1723   1727     1  0.0000000  0.6508444  3
   1714   1712   1730   1717     1  0.0000000  1.6038667  3
   1715   1713   1733   1734     1  0.0000000  1.0460000  1
   1715   1713   1733   1734     1  0.0000000  0.6694400  3
   1715   1716   1717   1720     1  0.0000000  0.6508444  3
   1715   1716   1735   1725     1  0.0000000  1.2552000  3
   1716   1715   1713   1732     1  0.0000000  0.6508444  3
   1716   1715   1722   1724     1  0.0000000  1.0460000  1
   1716   1715   1722   1724     1  0.0000000  0.6694400  3
   1716   1717   1721   1731     1  0.0000000  1.0460000  1
   1716   1717   1721   1731     1  0.0000000  0.6694400  3
   1717   1716   1715   1719     1  0.0000000  0.6508444  3
   1717   1716   1735   1725     1  0.0000000  1.2552000  3
   1718   1716   1715   1722     1  0.0000000  1.0460000  1
   1718   1716   1715   1722     1  0.0000000  0.0000000  3
   1718   1716   1715   1719     1  0.0000000  0.6508444  3
   1718   1716   1717   1721     1  0.0000000  1.0460000  1
   1718   1716   1717   1721     1  0.0000000  0.0000000  3
   1718   1716   1717   1730     1  0.0000000  1.0460000  1
   1718   1716   1717   1730     1  0.0000000  0.0000000  3
   1718   1716   1717   1720     1  0.0000000  0.6508444  3
   1718   1716   1735   1725     1  0.0000000  1.2552000  3
   1719   1715   1713   1733     1  0.0000000  1.0460000  1
   1719   1715   1713   1733     1  0.0000000  0.0000000  3
   1719   1715   1713   1732     1  0.0000000  0.6508444  3
   1719   1715   1716   1735     1  0.0000000  0.6508444  3
   1719   1715   1722   1724     1  0.0000000  0.6973333  3
   1720   1717   1716   1735     1  0.0000000  0.6508444  3
   1720   1717   1721   1731     1  0.0000000  0.6973333  3
   1722   1715   1713   1732     1  0.0000000  1.0460000  1
   1722   1715   1713   1732     1  0.0000000  0.0000000  3
   1723   1712   1713   1732     1  0.0000000  0.6508444  3
   1726   1723   1712   1730     1  0.0000000  1.0460000  1
   1726   1723   1712   1730     1  0.0000000  0.0000000  3
   1726   1723   1728   1729     1  0.0000000  0.6973333  3
   1727   1723   1712   1730     1  0.0000000  1.0460000  1
   1727   1723   1712   1730     1  0.0000000  0.0000000  3
   1727   1723   1728   1729     1  0.0000000  0.6973333  3
   1730   1712   1713   1732     1  0.0000000  1.0460000  1
   1730   1712   1713   1732     1  0.0000000  0.0000000  3
   1730   1717   1721   1731     1  0.0000000  0.6973333  3
   1732   1713   1733   1734     1  0.0000000  0.6973333  3
   1736   1737   1739   1743     1  0.0000000  0.6508444  3
   1736   1737   1757   1758     1  0.0000000  1.0460000  1
   1736   1737   1757   1758     1  0.0000000  0.6694400  3
   1736   1747   1752   1753     1  0.0000000  1.0460000  1
   1736   1747   1752   1753     1  0.0000000  0.6694400  3
   1736   1754   1741   1744     1  0.0000000  1.6038667  3
   1737   1736   1747   1750     1  0.0000000  0.6508444  3
   1737   1736   1747   1751     1  0.0000000  0.6508444  3
   1737   1739   1740   1742     1  0.0000000  0.6508444  3
   1737   1739   1746   1748     1  0.0000000  1.0460000  1
   1737   1739   1746   1748     1  0.0000000  0.6694400  3
   1738   1736   1737   1739     1  0.0000000  0.6508444  3
   1738   1736   1737   1757     1  0.0000000  1.0460000  1
   1738   1736   1737   1757     1  0.0000000  0.0000000  3
   1738   1736   1737   1756     1  0.0000000  0.6508444  3
   1738   1736   1747   1752     1  0.0000000  1.0460000  1
   1738   1736   1747   1752     1  0.0000000  0.0000000  3
   1738   1736   1747   1750     1  0.0000000  0.6508444  3
   1738   1736   1747   1751     1  0.0000000  0.6508444  3
   1738   1736   1754   1741     1  0.0000000  1.6038667  3
   1739   1737   1757   1758     1  0.0000000  1.0460000  1
   1739   1737   1757   1758     1  0.0000000  0.6694400  3
   1739   1740   1741   1744     1  0.0000000  0.6508444  3
   1739   1740   1759   1749     1  0.0000000  1.2552000  3
   1740   1739   1737   1756     1  0.0000000  0.6508444  3
   1740   1739   1746   1748     1  0.0000000  1.0460000  1
   1740   1739   1746   1748     1  0.0000000  0.6694400  3
   1740   1741   1745   1755     1  0.0000000  1.0460000  1
   1740   1741   1745   1755     1  0.0000000  0.6694400  3
   1741   1740   1739   1743     1  0.0000000  0.6508444  3
   1741   1740   1759   1749     1  0.0000000  1.2552000  3
   1742   1740   1739   1746     1  0.0000000  1.0460000  1
   1742   1740   1739   1746     1  0.0000000  0.0000000  3
   1742   1740   1739   1743     1  0.0000000  0.6508444  3
   1742   1740   1741   1745     1  0.0000000  1.0460000  1
   1742   1740   1741   1745     1  0.0000000  0.0000000  3
   1742   1740   1741   1754     1  0.0000000  1.0460000  1
   1742   1740   1741   1754     1  0.0000000  0.0000000  3
   1742   1740   1741   1744     1  0.0000000  0.6508444  3
   1742   1740   1759   1749     1  0.0000000  1.2552000  3
   1743   1739   1737   1757     1  0.0000000  1.0460000  1
   1743   1739   1737   1757     1  0.0000000  0.0000000  3
   1743   1739   1737   1756     1  0.0000000  0.6508444  3
   1743   1739   1740   1759     1  0.0000000  0.6508444  3
   1743   1739   1746   1748     1  0.0000000  0.6973333  3
   1744   1741   1740   1759     1  0.0000000  0.6508444  3
   1744   1741   1745   1755     1  0.0000000  0.6973333  3
   1746   1739   1737   1756     1  0.0000000  1.0460000  1
   1746   1739   1737   1756     1  0.0000000  0.0000000  3
   1747   1736   1737   1756     1  0.0000000  0.6508444  3
   1750   1747   1736   1754     1  0.0000000  1.0460000  1
   1750   1747   1736   1754     1  0.0000000  0.0000000  3
   1750   1747   1752   1753     1  0.0000000  0.6973333  3
   1751   1747   1736   1754     1  0.0000000  1.0460000  1
   1751   1747   1736   1754     1  0.0000000  0.0000000  3
   1751   1747   1752   1753     1  0.0000000  0.6973333  3
   1754   1736   1737   1756     1  0.0000000  1.0460000  1
   1754   1736   1737   1756     1  0.0000000  0.0000000  3
   1754   1741   1745   1755     1  0.0000000  0.6973333  3
   1756   1737   1757   1758     1  0.0000000  0.6973333  3
   1760   1762   1764   1766     1  0.0000000  0.6508444  3
   1760   1762   1764   1767     1  0.0000000  0.6508444  3
   1761   1760   1762   1764     1  0.0000000  0.0000000  2
   1761   1760   1762   1763     1  0.0000000  0.0000000  2
   1761   1760   1762   1765     1  0.0000000  0.0000000  2
   1763   1762   1764   1768     1  0.0000000  0.6508444  3
   1763   1762   1764   1766     1  0.0000000  0.6508444  3
   1763   1762   1764   1767     1  0.0000000  0.6508444  3
   1764   1768   1769   1778     1  0.0000000  1.2552000  3
   1764   1768   1769   1779     1  0.0000000  1.2552000  3
   1764   1768   1770   1771     1  0.0000000  1.2552000  3
   1764   1768   1770   1773     1  0.0000000  1.2552000  3
   1765   1762   1764   1768     1  0.0000000  0.6508444  3
   1765   1762   1764   1766     1  0.0000000  0.6508444  3
   1765   1762   1764   1767     1  0.0000000  0.6508444  3
   1766   1764   1768   1769     1  0.0000000  1.2552000  3
   1766   1764   1768   1770     1  0.0000000  1.2552000  3
   1767   1764   1768   1769     1  0.0000000  1.2552000  3
   1767   1764   1768   1770     1  0.0000000  1.2552000  3
   1768   1769   1780   1781     1  0.0000000  0.6508444  3
   1768   1769   1780   1782     1  0.0000000  0.6508444  3
   1768   1770   1772   1774     1  0.0000000  0.6508444  3
   1768   1770   1772   1775     1  0.0000000  0.6508444  3
   1769   1768   1770   1771     1  0.0000000  1.2552000  3
   1769   1768   1770   1773     1  0.0000000  1.2552000  3
   1770   1768   1769   1778     1  0.0000000  1.2552000  3
   1770   1768   1769   1779     1  0.0000000  1.2552000  3
   1771   1770   1772   1776     1  0.0000000  0.6508444  3
   1771   1770   1772   1774     1  0.0000000  0.6508444  3
   1771   1770   1772   1775     1  0.0000000  0.6508444  3
   1772   1776   1808   1798     1  180.0000771  6.0668000  2
   1772   1776   1808   1798     1  180.0000771  1.4644000  4
   1773   1770   1772   1776     1  0.0000000  0.6508444  3
   1773   1770   1772   1774     1  0.0000000  0.6508444  3
   1773   1770   1772   1775     1  0.0000000  0.6508444  3
   1774   1772   1776   1777     1  0.0000000  3.3472000  1
   1774   1772   1776   1777     1  0.0000000  0.0000000  2
   1774   1772   1776   1777     1  180.0000771  0.3347200  3
   1774   1772   1776   1808     1  180.0000771  0.0000000  2
   1775   1772   1776   1777     1  0.0000000  3.3472000  1
   1775   1772   1776   1777     1  0.0000000  0.0000000  2
   1775   1772   1776   1777     1  180.0000771  0.3347200  3
   1775   1772   1776   1808     1  180.0000771  0.0000000  2
   1776   1808   1789   1791     1  0.0000000  1.2552000  3
   1777   1776   1808   1798     1  180.0000771  6.0668000  2
   1777   1776   1808   1798     1  180.0000771  1.4644000  4
   1778   1769   1780   1783     1  0.0000000  0.6508444  3
   1778   1769   1780   1781     1  0.0000000  0.6508444  3
   1778   1769   1780   1782     1  0.0000000  0.6508444  3
   1779   1769   1780   1783     1  0.0000000  0.6508444  3
   1779   1769   1780   1781     1  0.0000000  0.6508444  3
   1779   1769   1780   1782     1  0.0000000  0.6508444  3
   1780   1783   1832   1822     1  180.0000771  6.0668000  2
   1780   1783   1832   1822     1  180.0000771  1.4644000  4
   1781   1780   1783   1784     1  0.0000000  3.3472000  1
   1781   1780   1783   1784     1  0.0000000  0.0000000  2
   1781   1780   1783   1784     1  180.0000771  0.3347200  3
   1781   1780   1783   1832     1  180.0000771  0.0000000  2
   1782   1780   1783   1784     1  0.0000000  3.3472000  1
   1782   1780   1783   1784     1  0.0000000  0.0000000  2
   1782   1780   1783   1784     1  180.0000771  0.3347200  3
   1782   1780   1783   1832     1  180.0000771  0.0000000  2
   1783   1832   1813   1815     1  0.0000000  1.2552000  3
   1784   1783   1832   1822     1  180.0000771  6.0668000  2
   1784   1783   1832   1822     1  180.0000771  1.4644000  4
   1785   1786   1788   1792     1  0.0000000  0.6508444  3
   1785   1786   1806   1807     1  0.0000000  1.0460000  1
   1785   1786   1806   1807     1  0.0000000  0.6694400  3
   1785   1796   1801   1802     1  0.0000000  1.0460000  1
   1785   1796   1801   1802     1  0.0000000  0.6694400  3
   1785   1803   1790   1793     1  0.0000000  1.6038667  3
   1786   1788   1789   1791     1  0.0000000  0.6508444  3
   1786   1788   1795   1797     1  0.0000000  1.0460000  1
   1786   1788   1795   1797     1  0.0000000  0.6694400  3
   1786   1785   1796   1799     1  0.0000000  0.6508444  3
   1786   1785   1796   1800     1  0.0000000  0.6508444  3
   1787   1785   1786   1788     1  0.0000000  0.6508444  3
   1787   1785   1786   1806     1  0.0000000  1.0460000  1
   1787   1785   1786   1806     1  0.0000000  0.0000000  3
   1787   1785   1786   1805     1  0.0000000  0.6508444  3
   1787   1785   1796   1801     1  0.0000000  1.0460000  1
   1787   1785   1796   1801     1  0.0000000  0.0000000  3
   1787   1785   1796   1799     1  0.0000000  0.6508444  3
   1787   1785   1796   1800     1  0.0000000  0.6508444  3
   1787   1785   1803   1790     1  0.0000000  1.6038667  3
   1788   1789   1790   1793     1  0.0000000  0.6508444  3
   1788   1789   1808   1798     1  0.0000000  1.2552000  3
   1788   1786   1806   1807     1  0.0000000  1.0460000  1
   1788   1786   1806   1807     1  0.0000000  0.6694400  3
   1789   1790   1794   1804     1  0.0000000  1.0460000  1
   1789   1790   1794   1804     1  0.0000000  0.6694400  3
   1789   1788   1795   1797     1  0.0000000  1.0460000  1
   1789   1788   1795   1797     1  0.0000000  0.6694400  3
   1789   1788   1786   1805     1  0.0000000  0.6508444  3
   1790   1789   1808   1798     1  0.0000000  1.2552000  3
   1790   1789   1788   1792     1  0.0000000  0.6508444  3
   1791   1789   1790   1794     1  0.0000000  1.0460000  1
   1791   1789   1790   1794     1  0.0000000  0.0000000  3
   1791   1789   1790   1803     1  0.0000000  1.0460000  1
   1791   1789   1790   1803     1  0.0000000  0.0000000  3
   1791   1789   1790   1793     1  0.0000000  0.6508444  3
   1791   1789   1808   1798     1  0.0000000  1.2552000  3
   1791   1789   1788   1795     1  0.0000000  1.0460000  1
   1791   1789   1788   1795     1  0.0000000  0.0000000  3
   1791   1789   1788   1792     1  0.0000000  0.6508444  3
   1792   1788   1789   1808     1  0.0000000  0.6508444  3
   1792   1788   1795   1797     1  0.0000000  0.6973333  3
   1792   1788   1786   1806     1  0.0000000  1.0460000  1
   1792   1788   1786   1806     1  0.0000000  0.0000000  3
   1792   1788   1786   1805     1  0.0000000  0.6508444  3
   1793   1790   1794   1804     1  0.0000000  0.6973333  3
   1793   1790   1789   1808     1  0.0000000  0.6508444  3
   1795   1788   1786   1805     1  0.0000000  1.0460000  1
   1795   1788   1786   1805     1  0.0000000  0.0000000  3
   1796   1785   1786   1805     1  0.0000000  0.6508444  3
   1799   1796   1801   1802     1  0.0000000  0.6973333  3
   1799   1796   1785   1803     1  0.0000000  1.0460000  1
   1799   1796   1785   1803     1  0.0000000  0.0000000  3
   1800   1796   1801   1802     1  0.0000000  0.6973333  3
   1800   1796   1785   1803     1  0.0000000  1.0460000  1
   1800   1796   1785   1803     1  0.0000000  0.0000000  3
   1803   1790   1794   1804     1  0.0000000  0.6973333  3
   1803   1785   1786   1805     1  0.0000000  1.0460000  1
   1803   1785   1786   1805     1  0.0000000  0.0000000  3
   1805   1786   1806   1807     1  0.0000000  0.6973333  3
   1809   1810   1812   1816     1  0.0000000  0.6508444  3
   1809   1810   1830   1831     1  0.0000000  1.0460000  1
   1809   1810   1830   1831     1  0.0000000  0.6694400  3
   1809   1820   1825   1826     1  0.0000000  1.0460000  1
   1809   1820   1825   1826     1  0.0000000  0.6694400  3
   1809   1827   1814   1817     1  0.0000000  1.6038667  3
   1810   1812   1813   1815     1  0.0000000  0.6508444  3
   1810   1812   1819   1821     1  0.0000000  1.0460000  1
   1810   1812   1819   1821     1  0.0000000  0.6694400  3
   1810   1809   1820   1823     1  0.0000000  0.6508444  3
   1810   1809   1820   1824     1  0.0000000  0.6508444  3
   1811   1809   1810   1812     1  0.0000000  0.6508444  3
   1811   1809   1810   1830     1  0.0000000  1.0460000  1
   1811   1809   1810   1830     1  0.0000000  0.0000000  3
   1811   1809   1810   1829     1  0.0000000  0.6508444  3
   1811   1809   1820   1825     1  0.0000000  1.0460000  1
   1811   1809   1820   1825     1  0.0000000  0.0000000  3
   1811   1809   1820   1823     1  0.0000000  0.6508444  3
   1811   1809   1820   1824     1  0.0000000  0.6508444  3
   1811   1809   1827   1814     1  0.0000000  1.6038667  3
   1812   1813   1814   1817     1  0.0000000  0.6508444  3
   1812   1813   1832   1822     1  0.0000000  1.2552000  3
   1812   1810   1830   1831     1  0.0000000  1.0460000  1
   1812   1810   1830   1831     1  0.0000000  0.6694400  3
   1813   1814   1818   1828     1  0.0000000  1.0460000  1
   1813   1814   1818   1828     1  0.0000000  0.6694400  3
   1813   1812   1819   1821     1  0.0000000  1.0460000  1
   1813   1812   1819   1821     1  0.0000000  0.6694400  3
   1813   1812   1810   1829     1  0.0000000  0.6508444  3
   1814   1813   1832   1822     1  0.0000000  1.2552000  3
   1814   1813   1812   1816     1  0.0000000  0.6508444  3
   1815   1813   1814   1818     1  0.0000000  1.0460000  1
   1815   1813   1814   1818     1  0.0000000  0.0000000  3
   1815   1813   1814   1827     1  0.0000000  1.0460000  1
   1815   1813   1814   1827     1  0.0000000  0.0000000  3
   1815   1813   1814   1817     1  0.0000000  0.6508444  3
   1815   1813   1832   1822     1  0.0000000  1.2552000  3
   1815   1813   1812   1819     1  0.0000000  1.0460000  1
   1815   1813   1812   1819     1  0.0000000  0.0000000  3
   1815   1813   1812   1816     1  0.0000000  0.6508444  3
   1816   1812   1813   1832     1  0.0000000  0.6508444  3
   1816   1812   1819   1821     1  0.0000000  0.6973333  3
   1816   1812   1810   1830     1  0.0000000  1.0460000  1
   1816   1812   1810   1830     1  0.0000000  0.0000000  3
   1816   1812   1810   1829     1  0.0000000  0.6508444  3
   1817   1814   1818   1828     1  0.0000000  0.6973333  3
   1817   1814   1813   1832     1  0.0000000  0.6508444  3
   1819   1812   1810   1829     1  0.0000000  1.0460000  1
   1819   1812   1810   1829     1  0.0000000  0.0000000  3
   1820   1809   1810   1829     1  0.0000000  0.6508444  3
   1823   1820   1825   1826     1  0.0000000  0.6973333  3
   1823   1820   1809   1827     1  0.0000000  1.0460000  1
   1823   1820   1809   1827     1  0.0000000  0.0000000  3
   1824   1820   1825   1826     1  0.0000000  0.6973333  3
   1824   1820   1809   1827     1  0.0000000  1.0460000  1
   1824   1820   1809   1827     1  0.0000000  0.0000000  3
   1827   1814   1818   1828     1  0.0000000  0.6973333  3
   1827   1809   1810   1829     1  0.0000000  1.0460000  1
   1827   1809   1810   1829     1  0.0000000  0.0000000  3
   1829   1810   1830   1831     1  0.0000000  0.6973333  3
   1833   1835   1837   1839     1  0.0000000  0.6508444  3
   1833   1835   1837   1840     1  0.0000000  0.6508444  3
   1834   1833   1835   1837     1  0.0000000  0.0000000  2
   1834   1833   1835   1836     1  0.0000000  0.0000000  2
   1834   1833   1835   1838     1  0.0000000  0.0000000  2
   1836   1835   1837   1841     1  0.0000000  0.6508444  3
   1836   1835   1837   1839     1  0.0000000  0.6508444  3
   1836   1835   1837   1840     1  0.0000000  0.6508444  3
   1837   1841   1842   1851     1  0.0000000  1.2552000  3
   1837   1841   1842   1852     1  0.0000000  1.2552000  3
   1837   1841   1843   1844     1  0.0000000  1.2552000  3
   1837   1841   1843   1846     1  0.0000000  1.2552000  3
   1838   1835   1837   1841     1  0.0000000  0.6508444  3
   1838   1835   1837   1839     1  0.0000000  0.6508444  3
   1838   1835   1837   1840     1  0.0000000  0.6508444  3
   1839   1837   1841   1842     1  0.0000000  1.2552000  3
   1839   1837   1841   1843     1  0.0000000  1.2552000  3
   1840   1837   1841   1842     1  0.0000000  1.2552000  3
   1840   1837   1841   1843     1  0.0000000  1.2552000  3
   1841   1842   1853   1854     1  0.0000000  0.6508444  3
   1841   1842   1853   1855     1  0.0000000  0.6508444  3
   1841   1843   1845   1847     1  0.0000000  0.6508444  3
   1841   1843   1845   1848     1  0.0000000  0.6508444  3
   1842   1841   1843   1844     1  0.0000000  1.2552000  3
   1842   1841   1843   1846     1  0.0000000  1.2552000  3
   1843   1841   1842   1851     1  0.0000000  1.2552000  3
   1843   1841   1842   1852     1  0.0000000  1.2552000  3
   1844   1843   1845   1849     1  0.0000000  0.6508444  3
   1844   1843   1845   1847     1  0.0000000  0.6508444  3
   1844   1843   1845   1848     1  0.0000000  0.6508444  3
   1845   1849   1881   1871     1  180.0000771  6.0668000  2
   1845   1849   1881   1871     1  180.0000771  1.4644000  4
   1846   1843   1845   1849     1  0.0000000  0.6508444  3
   1846   1843   1845   1847     1  0.0000000  0.6508444  3
   1846   1843   1845   1848     1  0.0000000  0.6508444  3
   1847   1845   1849   1850     1  0.0000000  3.3472000  1
   1847   1845   1849   1850     1  0.0000000  0.0000000  2
   1847   1845   1849   1850     1  180.0000771  0.3347200  3
   1847   1845   1849   1881     1  180.0000771  0.0000000  2
   1848   1845   1849   1850     1  0.0000000  3.3472000  1
   1848   1845   1849   1850     1  0.0000000  0.0000000  2
   1848   1845   1849   1850     1  180.0000771  0.3347200  3
   1848   1845   1849   1881     1  180.0000771  0.0000000  2
   1849   1881   1862   1864     1  0.0000000  1.2552000  3
   1850   1849   1881   1871     1  180.0000771  6.0668000  2
   1850   1849   1881   1871     1  180.0000771  1.4644000  4
   1851   1842   1853   1856     1  0.0000000  0.6508444  3
   1851   1842   1853   1854     1  0.0000000  0.6508444  3
   1851   1842   1853   1855     1  0.0000000  0.6508444  3
   1852   1842   1853   1856     1  0.0000000  0.6508444  3
   1852   1842   1853   1854     1  0.0000000  0.6508444  3
   1852   1842   1853   1855     1  0.0000000  0.6508444  3
   1853   1856   1905   1895     1  180.0000771  6.0668000  2
   1853   1856   1905   1895     1  180.0000771  1.4644000  4
   1854   1853   1856   1857     1  0.0000000  3.3472000  1
   1854   1853   1856   1857     1  0.0000000  0.0000000  2
   1854   1853   1856   1857     1  180.0000771  0.3347200  3
   1854   1853   1856   1905     1  180.0000771  0.0000000  2
   1855   1853   1856   1857     1  0.0000000  3.3472000  1
   1855   1853   1856   1857     1  0.0000000  0.0000000  2
   1855   1853   1856   1857     1  180.0000771  0.3347200  3
   1855   1853   1856   1905     1  180.0000771  0.0000000  2
   1856   1905   1886   1888     1  0.0000000  1.2552000  3
   1857   1856   1905   1895     1  180.0000771  6.0668000  2
   1857   1856   1905   1895     1  180.0000771  1.4644000  4
   1858   1859   1861   1865     1  0.0000000  0.6508444  3
   1858   1859   1879   1880     1  0.0000000  1.0460000  1
   1858   1859   1879   1880     1  0.0000000  0.6694400  3
   1858   1869   1874   1875     1  0.0000000  1.0460000  1
   1858   1869   1874   1875     1  0.0000000  0.6694400  3
   1858   1876   1863   1866     1  0.0000000  1.6038667  3
   1859   1858   1869   1872     1  0.0000000  0.6508444  3
   1859   1858   1869   1873     1  0.0000000  0.6508444  3
   1859   1861   1862   1864     1  0.0000000  0.6508444  3
   1859   1861   1868   1870     1  0.0000000  1.0460000  1
   1859   1861   1868   1870     1  0.0000000  0.6694400  3
   1860   1858   1859   1861     1  0.0000000  0.6508444  3
   1860   1858   1859   1879     1  0.0000000  1.0460000  1
   1860   1858   1859   1879     1  0.0000000  0.0000000  3
   1860   1858   1859   1878     1  0.0000000  0.6508444  3
   1860   1858   1869   1874     1  0.0000000  1.0460000  1
   1860   1858   1869   1874     1  0.0000000  0.0000000  3
   1860   1858   1869   1872     1  0.0000000  0.6508444  3
   1860   1858   1869   1873     1  0.0000000  0.6508444  3
   1860   1858   1876   1863     1  0.0000000  1.6038667  3
   1861   1859   1879   1880     1  0.0000000  1.0460000  1
   1861   1859   1879   1880     1  0.0000000  0.6694400  3
   1861   1862   1863   1866     1  0.0000000  0.6508444  3
   1861   1862   1881   1871     1  0.0000000  1.2552000  3
   1862   1861   1859   1878     1  0.0000000  0.6508444  3
   1862   1861   1868   1870     1  0.0000000  1.0460000  1
   1862   1861   1868   1870     1  0.0000000  0.6694400  3
   1862   1863   1867   1877     1  0.0000000  1.0460000  1
   1862   1863   1867   1877     1  0.0000000  0.6694400  3
   1863   1862   1861   1865     1  0.0000000  0.6508444  3
   1863   1862   1881   1871     1  0.0000000  1.2552000  3
   1864   1862   1861   1868     1  0.0000000  1.0460000  1
   1864   1862   1861   1868     1  0.0000000  0.0000000  3
   1864   1862   1861   1865     1  0.0000000  0.6508444  3
   1864   1862   1863   1867     1  0.0000000  1.0460000  1
   1864   1862   1863   1867     1  0.0000000  0.0000000  3
   1864   1862   1863   1876     1  0.0000000  1.0460000  1
   1864   1862   1863   1876     1  0.0000000  0.0000000  3
   1864   1862   1863   1866     1  0.0000000  0.6508444  3
   1864   1862   1881   1871     1  0.0000000  1.2552000  3
   1865   1861   1859   1879     1  0.0000000  1.0460000  1
   1865   1861   1859   1879     1  0.0000000  0.0000000  3
   1865   1861   1859   1878     1  0.0000000  0.6508444  3
   1865   1861   1862   1881     1  0.0000000  0.6508444  3
   1865   1861   1868   1870     1  0.0000000  0.6973333  3
   1866   1863   1862   1881     1  0.0000000  0.6508444  3
   1866   1863   1867   1877     1  0.0000000  0.6973333  3
   1868   1861   1859   1878     1  0.0000000  1.0460000  1
   1868   1861   1859   1878     1  0.0000000  0.0000000  3
   1869   1858   1859   1878     1  0.0000000  0.6508444  3
   1872   1869   1858   1876     1  0.0000000  1.0460000  1
   1872   1869   1858   1876     1  0.0000000  0.0000000  3
   1872   1869   1874   1875     1  0.0000000  0.6973333  3
   1873   1869   1858   1876     1  0.0000000  1.0460000  1
   1873   1869   1858   1876     1  0.0000000  0.0000000  3
   1873   1869   1874   1875     1  0.0000000  0.6973333  3
   1876   1858   1859   1878     1  0.0000000  1.0460000  1
   1876   1858   1859   1878     1  0.0000000  0.0000000  3
   1876   1863   1867   1877     1  0.0000000  0.6973333  3
   1878   1859   1879   1880     1  0.0000000  0.6973333  3
   1882   1883   1885   1889     1  0.0000000  0.6508444  3
   1882   1883   1903   1904     1  0.0000000  1.0460000  1
   1882   1883   1903   1904     1  0.0000000  0.6694400  3
   1882   1893   1898   1899     1  0.0000000  1.0460000  1
   1882   1893   1898   1899     1  0.0000000  0.6694400  3
   1882   1900   1887   1890     1  0.0000000  1.6038667  3
   1883   1882   1893   1896     1  0.0000000  0.6508444  3
   1883   1882   1893   1897     1  0.0000000  0.6508444  3
   1883   1885   1886   1888     1  0.0000000  0.6508444  3
   1883   1885   1892   1894     1  0.0000000  1.0460000  1
   1883   1885   1892   1894     1  0.0000000  0.6694400  3
   1884   1882   1883   1885     1  0.0000000  0.6508444  3
   1884   1882   1883   1903     1  0.0000000  1.0460000  1
   1884   1882   1883   1903     1  0.0000000  0.0000000  3
   1884   1882   1883   1902     1  0.0000000  0.6508444  3
   1884   1882   1893   1898     1  0.0000000  1.0460000  1
   1884   1882   1893   1898     1  0.0000000  0.0000000  3
   1884   1882   1893   1896     1  0.0000000  0.6508444  3
   1884   1882   1893   1897     1  0.0000000  0.6508444  3
   1884   1882   1900   1887     1  0.0000000  1.6038667  3
   1885   1883   1903   1904     1  0.0000000  1.0460000  1
   1885   1883   1903   1904     1  0.0000000  0.6694400  3
   1885   1886   1887   1890     1  0.0000000  0.6508444  3
   1885   1886   1905   1895     1  0.0000000  1.2552000  3
   1886   1885   1883   1902     1  0.0000000  0.6508444  3
   1886   1885   1892   1894     1  0.0000000  1.0460000  1
   1886   1885   1892   1894     1  0.0000000  0.6694400  3
   1886   1887   1891   1901     1  0.0000000  1.0460000  1
   1886   1887   1891   1901     1  0.0000000  0.6694400  3
   1887   1886   1885   1889     1  0.0000000  0.6508444  3
   1887   1886   1905   1895     1  0.0000000  1.2552000  3
   1888   1886   1885   1892     1  0.0000000  1.0460000  1
   1888   1886   1885   1892     1  0.0000000  0.0000000  3
   1888   1886   1885   1889     1  0.0000000  0.6508444  3
   1888   1886   1887   1891     1  0.0000000  1.0460000  1
   1888   1886   1887   1891     1  0.0000000  0.0000000  3
   1888   1886   1887   1900     1  0.0000000  1.0460000  1
   1888   1886   1887   1900     1  0.0000000  0.0000000  3
   1888   1886   1887   1890     1  0.0000000  0.6508444  3
   1888   1886   1905   1895     1  0.0000000  1.2552000  3
   1889   1885   1883   1903     1  0.0000000  1.0460000  1
   1889   1885   1883   1903     1  0.0000000  0.0000000  3
   1889   1885   1883   1902     1  0.0000000  0.6508444  3
   1889   1885   1886   1905     1  0.0000000  0.6508444  3
   1889   1885   1892   1894     1  0.0000000  0.6973333  3
   1890   1887   1886   1905     1  0.0000000  0.6508444  3
   1890   1887   1891   1901     1  0.0000000  0.6973333  3
   1892   1885   1883   1902     1  0.0000000  1.0460000  1
   1892   1885   1883   1902     1  0.0000000  0.0000000  3
   1893   1882   1883   1902     1  0.0000000  0.6508444  3
   1896   1893   1882   1900     1  0.0000000  1.0460000  1
   1896   1893   1882   1900     1  0.0000000  0.0000000  3
   1896   1893   1898   1899     1  0.0000000  0.6973333  3
   1897   1893   1882   1900     1  0.0000000  1.0460000  1
   1897   1893   1882   1900     1  0.0000000  0.0000000  3
   1897   1893   1898   1899     1  0.0000000  0.6973333  3
   1900   1882   1883   1902     1  0.0000000  1.0460000  1
   1900   1882   1883   1902     1  0.0000000  0.0000000  3
   1900   1887   1891   1901     1  0.0000000  0.6973333  3
   1902   1883   1903   1904     1  0.0000000  0.6973333  3
   1906   1908   1910   1912     1  0.0000000  0.6508444  3
   1906   1908   1910   1913     1  0.0000000  0.6508444  3
   1907   1906   1908   1910     1  0.0000000  0.0000000  2
   1907   1906   1908   1909     1  0.0000000  0.0000000  2
   1907   1906   1908   1911     1  0.0000000  0.0000000  2
   1909   1908   1910   1914     1  0.0000000  0.6508444  3
   1909   1908   1910   1912     1  0.0000000  0.6508444  3
   1909   1908   1910   1913     1  0.0000000  0.6508444  3
   1910   1914   1915   1924     1  0.0000000  1.2552000  3
   1910   1914   1915   1925     1  0.0000000  1.2552000  3
   1910   1914   1916   1917     1  0.0000000  1.2552000  3
   1910   1914   1916   1919     1  0.0000000  1.2552000  3
   1911   1908   1910   1914     1  0.0000000  0.6508444  3
   1911   1908   1910   1912     1  0.0000000  0.6508444  3
   1911   1908   1910   1913     1  0.0000000  0.6508444  3
   1912   1910   1914   1915     1  0.0000000  1.2552000  3
   1912   1910   1914   1916     1  0.0000000  1.2552000  3
   1913   1910   1914   1915     1  0.0000000  1.2552000  3
   1913   1910   1914   1916     1  0.0000000  1.2552000  3
   1914   1915   1926   1927     1  0.0000000  0.6508444  3
   1914   1915   1926   1928     1  0.0000000  0.6508444  3
   1914   1916   1918   1920     1  0.0000000  0.6508444  3
   1914   1916   1918   1921     1  0.0000000  0.6508444  3
   1915   1914   1916   1917     1  0.0000000  1.2552000  3
   1915   1914   1916   1919     1  0.0000000  1.2552000  3
   1916   1914   1915   1924     1  0.0000000  1.2552000  3
   1916   1914   1915   1925     1  0.0000000  1.2552000  3
   1917   1916   1918   1922     1  0.0000000  0.6508444  3
   1917   1916   1918   1920     1  0.0000000  0.6508444  3
   1917   1916   1918   1921     1  0.0000000  0.6508444  3
   1918   1922   1954   1944     1  180.0000771  6.0668000  2
   1918   1922   1954   1944     1  180.0000771  1.4644000  4
   1919   1916   1918   1922     1  0.0000000  0.6508444  3
   1919   1916   1918   1920     1  0.0000000  0.6508444  3
   1919   1916   1918   1921     1  0.0000000  0.6508444  3
   1920   1918   1922   1923     1  0.0000000  3.3472000  1
   1920   1918   1922   1923     1  0.0000000  0.0000000  2
   1920   1918   1922   1923     1  180.0000771  0.3347200  3
   1920   1918   1922   1954     1  180.0000771  0.0000000  2
   1921   1918   1922   1923     1  0.0000000  3.3472000  1
   1921   1918   1922   1923     1  0.0000000  0.0000000  2
   1921   1918   1922   1923     1  180.0000771  0.3347200  3
   1921   1918   1922   1954     1  180.0000771  0.0000000  2
   1922   1954   1935   1937     1  0.0000000  1.2552000  3
   1923   1922   1954   1944     1  180.0000771  6.0668000  2
   1923   1922   1954   1944     1  180.0000771  1.4644000  4
   1924   1915   1926   1929     1  0.0000000  0.6508444  3
   1924   1915   1926   1927     1  0.0000000  0.6508444  3
   1924   1915   1926   1928     1  0.0000000  0.6508444  3
   1925   1915   1926   1929     1  0.0000000  0.6508444  3
   1925   1915   1926   1927     1  0.0000000  0.6508444  3
   1925   1915   1926   1928     1  0.0000000  0.6508444  3
   1926   1929   1978   1968     1  180.0000771  6.0668000  2
   1926   1929   1978   1968     1  180.0000771  1.4644000  4
   1927   1926   1929   1930     1  0.0000000  3.3472000  1
   1927   1926   1929   1930     1  0.0000000  0.0000000  2
   1927   1926   1929   1930     1  180.0000771  0.3347200  3
   1927   1926   1929   1978     1  180.0000771  0.0000000  2
   1928   1926   1929   1930     1  0.0000000  3.3472000  1
   1928   1926   1929   1930     1  0.0000000  0.0000000  2
   1928   1926   1929   1930     1  180.0000771  0.3347200  3
   1928   1926   1929   1978     1  180.0000771  0.0000000  2
   1929   1978   1959   1961     1  0.0000000  1.2552000  3
   1930   1929   1978   1968     1  180.0000771  6.0668000  2
   1930   1929   1978   1968     1  180.0000771  1.4644000  4
   1931   1932   1934   1938     1  0.0000000  0.6508444  3
   1931   1932   1952   1953     1  0.0000000  1.0460000  1
   1931   1932   1952   1953     1  0.0000000  0.6694400  3
   1931   1942   1947   1948     1  0.0000000  1.0460000  1
   1931   1942   1947   1948     1  0.0000000  0.6694400  3
   1931   1949   1936   1939     1  0.0000000  1.6038667  3
   1932   1934   1935   1937     1  0.0000000  0.6508444  3
   1932   1934   1941   1943     1  0.0000000  1.0460000  1
   1932   1934   1941   1943     1  0.0000000  0.6694400  3
   1932   1931   1942   1945     1  0.0000000  0.6508444  3
   1932   1931   1942   1946     1  0.0000000  0.6508444  3
   1933   1931   1932   1934     1  0.0000000  0.6508444  3
   1933   1931   1932   1952     1  0.0000000  1.0460000  1
   1933   1931   1932   1952     1  0.0000000  0.0000000  3
   1933   1931   1932   1951     1  0.0000000  0.6508444  3
   1933   1931   1942   1947     1  0.0000000  1.0460000  1
   1933   1931   1942   1947     1  0.0000000  0.0000000  3
   1933   1931   1942   1945     1  0.0000000  0.6508444  3
   1933   1931   1942   1946     1  0.0000000  0.6508444  3
   1933   1931   1949   1936     1  0.0000000  1.6038667  3
   1934   1935   1936   1939     1  0.0000000  0.6508444  3
   1934   1935   1954   1944     1  0.0000000  1.2552000  3
   1934   1932   1952   1953     1  0.0000000  1.0460000  1
   1934   1932   1952   1953     1  0.0000000  0.6694400  3
   1935   1936   1940   1950     1  0.0000000  1.0460000  1
   1935   1936   1940   1950     1  0.0000000  0.6694400  3
   1935   1934   1941   1943     1  0.0000000  1.0460000  1
   1935   1934   1941   1943     1  0.0000000  0.6694400  3
   1935   1934   1932   1951     1  0.0000000  0.6508444  3
   1936   1935   1954   1944     1  0.0000000  1.2552000  3
   1936   1935   1934   1938     1  0.0000000  0.6508444  3
   1937   1935   1936   1940     1  0.0000000  1.0460000  1
   1937   1935   1936   1940     1  0.0000000  0.0000000  3
   1937   1935   1936   1949     1  0.0000000  1.0460000  1
   1937   1935   1936   1949     1  0.0000000  0.0000000  3
   1937   1935   1936   1939     1  0.0000000  0.6508444  3
   1937   1935   1954   1944     1  0.0000000  1.2552000  3
   1937   1935   1934   1941     1  0.0000000  1.0460000  1
   1937   1935   1934   1941     1  0.0000000  0.0000000  3
   1937   1935   1934   1938     1  0.0000000  0.6508444  3
   1938   1934   1935   1954     1  0.0000000  0.6508444  3
   1938   1934   1941   1943     1  0.0000000  0.6973333  3
   1938   1934   1932   1952     1  0.0000000  1.0460000  1
   1938   1934   1932   1952     1  0.0000000  0.0000000  3
   1938   1934   1932   1951     1  0.0000000  0.6508444  3
   1939   1936   1940   1950     1  0.0000000  0.6973333  3
   1939   1936   1935   1954     1  0.0000000  0.6508444  3
   1941   1934   1932   1951     1  0.0000000  1.0460000  1
   1941   1934   1932   1951     1  0.0000000  0.0000000  3
   1942   1931   1932   1951     1  0.0000000  0.6508444  3
   1945   1942   1947   1948     1  0.0000000  0.6973333  3
   1945   1942   1931   1949     1  0.0000000  1.0460000  1
   1945   1942   1931   1949     1  0.0000000  0.0000000  3
   1946   1942   1947   1948     1  0.0000000  0.6973333  3
   1946   1942   1931   1949     1  0.0000000  1.0460000  1
   1946   1942   1931   1949     1  0.0000000  0.0000000  3
   1949   1936   1940   1950     1  0.0000000  0.6973333  3
   1949   1931   1932   1951     1  0.0000000  1.0460000  1
   1949   1931   1932   1951     1  0.0000000  0.0000000  3
   1951   1932   1952   1953     1  0.0000000  0.6973333  3
   1955   1956   1958   1962     1  0.0000000  0.6508444  3
   1955   1956   1976   1977     1  0.0000000  1.0460000  1
   1955   1956   1976   1977     1  0.0000000  0.6694400  3
   1955   1966   1971   1972     1  0.0000000  1.0460000  1
   1955   1966   1971   1972     1  0.0000000  0.6694400  3
   1955   1973   1960   1963     1  0.0000000  1.6038667  3
   1956   1958   1959   1961     1  0.0000000  0.6508444  3
   1956   1958   1965   1967     1  0.0000000  1.0460000  1
   1956   1958   1965   1967     1  0.0000000  0.6694400  3
   1956   1955   1966   1969     1  0.0000000  0.6508444  3
   1956   1955   1966   1970     1  0.0000000  0.6508444  3
   1957   1955   1956   1958     1  0.0000000  0.6508444  3
   1957   1955   1956   1976     1  0.0000000  1.0460000  1
   1957   1955   1956   1976     1  0.0000000  0.0000000  3
   1957   1955   1956   1975     1  0.0000000  0.6508444  3
   1957   1955   1966   1971     1  0.0000000  1.0460000  1
   1957   1955   1966   1971     1  0.0000000  0.0000000  3
   1957   1955   1966   1969     1  0.0000000  0.6508444  3
   1957   1955   1966   1970     1  0.0000000  0.6508444  3
   1957   1955   1973   1960     1  0.0000000  1.6038667  3
   1958   1959   1960   1963     1  0.0000000  0.6508444  3
   1958   1959   1978   1968     1  0.0000000  1.2552000  3
   1958   1956   1976   1977     1  0.0000000  1.0460000  1
   1958   1956   1976   1977     1  0.0000000  0.6694400  3
   1959   1960   1964   1974     1  0.0000000  1.0460000  1
   1959   1960   1964   1974     1  0.0000000  0.6694400  3
   1959   1958   1965   1967     1  0.0000000  1.0460000  1
   1959   1958   1965   1967     1  0.0000000  0.6694400  3
   1959   1958   1956   1975     1  0.0000000  0.6508444  3
   1960   1959   1978   1968     1  0.0000000  1.2552000  3
   1960   1959   1958   1962     1  0.0000000  0.6508444  3
   1961   1959   1960   1964     1  0.0000000  1.0460000  1
   1961   1959   1960   1964     1  0.0000000  0.0000000  3
   1961   1959   1960   1973     1  0.0000000  1.0460000  1
   1961   1959   1960   1973     1  0.0000000  0.0000000  3
   1961   1959   1960   1963     1  0.0000000  0.6508444  3
   1961   1959   1978   1968     1  0.0000000  1.2552000  3
   1961   1959   1958   1965     1  0.0000000  1.0460000  1
   1961   1959   1958   1965     1  0.0000000  0.0000000  3
   1961   1959   1958   1962     1  0.0000000  0.6508444  3
   1962   1958   1959   1978     1  0.0000000  0.6508444  3
   1962   1958   1965   1967     1  0.0000000  0.6973333  3
   1962   1958   1956   1976     1  0.0000000  1.0460000  1
   1962   1958   1956   1976     1  0.0000000  0.0000000  3
   1962   1958   1956   1975     1  0.0000000  0.6508444  3
   1963   1960   1964   1974     1  0.0000000  0.6973333  3
   1963   1960   1959   1978     1  0.0000000  0.6508444  3
   1965   1958   1956   1975     1  0.0000000  1.0460000  1
   1965   1958   1956   1975     1  0.0000000  0.0000000  3
   1966   1955   1956   1975     1  0.0000000  0.6508444  3
   1969   1966   1971   1972     1  0.0000000  0.6973333  3
   1969   1966   1955   1973     1  0.0000000  1.0460000  1
   1969   1966   1955   1973     1  0.0000000  0.0000000  3
   1970   1966   1971   1972     1  0.0000000  0.6973333  3
   1970   1966   1955   1973     1  0.0000000  1.0460000  1
   1970   1966   1955   1973     1  0.0000000  0.0000000  3
   1973   1960   1964   1974     1  0.0000000  0.6973333  3
   1973   1955   1956   1975     1  0.0000000  1.0460000  1
   1973   1955   1956   1975     1  0.0000000  0.0000000  3
   1975   1956   1976   1977     1  0.0000000  0.6973333  3
   1979   1981   1983   1985     1  0.0000000  0.6508444  3
   1979   1981   1983   1986     1  0.0000000  0.6508444  3
   1980   1979   1981   1983     1  0.0000000  0.0000000  2
   1980   1979   1981   1982     1  0.0000000  0.0000000  2
   1980   1979   1981   1984     1  0.0000000  0.0000000  2
   1982   1981   1983   1987     1  0.0000000  0.6508444  3
   1982   1981   1983   1985     1  0.0000000  0.6508444  3
   1982   1981   1983   1986     1  0.0000000  0.6508444  3
   1983   1987   1988   1997     1  0.0000000  1.2552000  3
   1983   1987   1988   1998     1  0.0000000  1.2552000  3
   1983   1987   1989   1990     1  0.0000000  1.2552000  3
   1983   1987   1989   1992     1  0.0000000  1.2552000  3
   1984   1981   1983   1987     1  0.0000000  0.6508444  3
   1984   1981   1983   1985     1  0.0000000  0.6508444  3
   1984   1981   1983   1986     1  0.0000000  0.6508444  3
   1985   1983   1987   1988     1  0.0000000  1.2552000  3
   1985   1983   1987   1989     1  0.0000000  1.2552000  3
   1986   1983   1987   1988     1  0.0000000  1.2552000  3
   1986   1983   1987   1989     1  0.0000000  1.2552000  3
   1987   1988   1999   2000     1  0.0000000  0.6508444  3
   1987   1988   1999   2001     1  0.0000000  0.6508444  3
   1987   1989   1991   1993     1  0.0000000  0.6508444  3
   1987   1989   1991   1994     1  0.0000000  0.6508444  3
   1988   1987   1989   1990     1  0.0000000  1.2552000  3
   1988   1987   1989   1992     1  0.0000000  1.2552000  3
   1989   1987   1988   1997     1  0.0000000  1.2552000  3
   1989   1987   1988   1998     1  0.0000000  1.2552000  3
   1990   1989   1991   1995     1  0.0000000  0.6508444  3
   1990   1989   1991   1993     1  0.0000000  0.6508444  3
   1990   1989   1991   1994     1  0.0000000  0.6508444  3
   1991   1995   2027   2017     1  180.0000771  6.0668000  2
   1991   1995   2027   2017     1  180.0000771  1.4644000  4
   1992   1989   1991   1995     1  0.0000000  0.6508444  3
   1992   1989   1991   1993     1  0.0000000  0.6508444  3
   1992   1989   1991   1994     1  0.0000000  0.6508444  3
   1993   1991   1995   1996     1  0.0000000  3.3472000  1
   1993   1991   1995   1996     1  0.0000000  0.0000000  2
   1993   1991   1995   1996     1  180.0000771  0.3347200  3
   1993   1991   1995   2027     1  180.0000771  0.0000000  2
   1994   1991   1995   1996     1  0.0000000  3.3472000  1
   1994   1991   1995   1996     1  0.0000000  0.0000000  2
   1994   1991   1995   1996     1  180.0000771  0.3347200  3
   1994   1991   1995   2027     1  180.0000771  0.0000000  2
   1995   2027   2008   2010     1  0.0000000  1.2552000  3
   1996   1995   2027   2017     1  180.0000771  6.0668000  2
   1996   1995   2027   2017     1  180.0000771  1.4644000  4
   1997   1988   1999   2002     1  0.0000000  0.6508444  3
   1997   1988   1999   2000     1  0.0000000  0.6508444  3
   1997   1988   1999   2001     1  0.0000000  0.6508444  3
   1998   1988   1999   2002     1  0.0000000  0.6508444  3
   1998   1988   1999   2000     1  0.0000000  0.6508444  3
   1998   1988   1999   2001     1  0.0000000  0.6508444  3
   1999   2002   2051   2041     1  180.0000771  6.0668000  2
   1999   2002   2051   2041     1  180.0000771  1.4644000  4
   2000   1999   2002   2003     1  0.0000000  3.3472000  1
   2000   1999   2002   2003     1  0.0000000  0.0000000  2
   2000   1999   2002   2003     1  180.0000771  0.3347200  3
   2000   1999   2002   2051     1  180.0000771  0.0000000  2
   2001   1999   2002   2003     1  0.0000000  3.3472000  1
   2001   1999   2002   2003     1  0.0000000  0.0000000  2
   2001   1999   2002   2003     1  180.0000771  0.3347200  3
   2001   1999   2002   2051     1  180.0000771  0.0000000  2
   2002   2051   2032   2034     1  0.0000000  1.2552000  3
   2003   2002   2051   2041     1  180.0000771  6.0668000  2
   2003   2002   2051   2041     1  180.0000771  1.4644000  4
   2004   2005   2007   2011     1  0.0000000  0.6508444  3
   2004   2005   2025   2026     1  0.0000000  1.0460000  1
   2004   2005   2025   2026     1  0.0000000  0.6694400  3
   2004   2015   2020   2021     1  0.0000000  1.0460000  1
   2004   2015   2020   2021     1  0.0000000  0.6694400  3
   2004   2022   2009   2012     1  0.0000000  1.6038667  3
   2005   2004   2015   2018     1  0.0000000  0.6508444  3
   2005   2004   2015   2019     1  0.0000000  0.6508444  3
   2005   2007   2008   2010     1  0.0000000  0.6508444  3
   2005   2007   2014   2016     1  0.0000000  1.0460000  1
   2005   2007   2014   2016     1  0.0000000  0.6694400  3
   2006   2004   2005   2007     1  0.0000000  0.6508444  3
   2006   2004   2005   2025     1  0.0000000  1.0460000  1
   2006   2004   2005   2025     1  0.0000000  0.0000000  3
   2006   2004   2005   2024     1  0.0000000  0.6508444  3
   2006   2004   2015   2020     1  0.0000000  1.0460000  1
   2006   2004   2015   2020     1  0.0000000  0.0000000  3
   2006   2004   2015   2018     1  0.0000000  0.6508444  3
   2006   2004   2015   2019     1  0.0000000  0.6508444  3
   2006   2004   2022   2009     1  0.0000000  1.6038667  3
   2007   2005   2025   2026     1  0.0000000  1.0460000  1
   2007   2005   2025   2026     1  0.0000000  0.6694400  3
   2007   2008   2009   2012     1  0.0000000  0.6508444  3
   2007   2008   2027   2017     1  0.0000000  1.2552000  3
   2008   2007   2005   2024     1  0.0000000  0.6508444  3
   2008   2007   2014   2016     1  0.0000000  1.0460000  1
   2008   2007   2014   2016     1  0.0000000  0.6694400  3
   2008   2009   2013   2023     1  0.0000000  1.0460000  1
   2008   2009   2013   2023     1  0.0000000  0.6694400  3
   2009   2008   2007   2011     1  0.0000000  0.6508444  3
   2009   2008   2027   2017     1  0.0000000  1.2552000  3
   2010   2008   2007   2014     1  0.0000000  1.0460000  1
   2010   2008   2007   2014     1  0.0000000  0.0000000  3
   2010   2008   2007   2011     1  0.0000000  0.6508444  3
   2010   2008   2009   2013     1  0.0000000  1.0460000  1
   2010   2008   2009   2013     1  0.0000000  0.0000000  3
   2010   2008   2009   2022     1  0.0000000  1.0460000  1
   2010   2008   2009   2022     1  0.0000000  0.0000000  3
   2010   2008   2009   2012     1  0.0000000  0.6508444  3
   2010   2008   2027   2017     1  0.0000000  1.2552000  3
   2011   2007   2005   2025     1  0.0000000  1.0460000  1
   2011   2007   2005   2025     1  0.0000000  0.0000000  3
   2011   2007   2005   2024     1  0.0000000  0.6508444  3
   2011   2007   2008   2027     1  0.0000000  0.6508444  3
   2011   2007   2014   2016     1  0.0000000  0.6973333  3
   2012   2009   2008   2027     1  0.0000000  0.6508444  3
   2012   2009   2013   2023     1  0.0000000  0.6973333  3
   2014   2007   2005   2024     1  0.0000000  1.0460000  1
   2014   2007   2005   2024     1  0.0000000  0.0000000  3
   2015   2004   2005   2024     1  0.0000000  0.6508444  3
   2018   2015   2004   2022     1  0.0000000  1.0460000  1
   2018   2015   2004   2022     1  0.0000000  0.0000000  3
   2018   2015   2020   2021     1  0.0000000  0.6973333  3
   2019   2015   2004   2022     1  0.0000000  1.0460000  1
   2019   2015   2004   2022     1  0.0000000  0.0000000  3
   2019   2015   2020   2021     1  0.0000000  0.6973333  3
   2022   2004   2005   2024     1  0.0000000  1.0460000  1
   2022   2004   2005   2024     1  0.0000000  0.0000000  3
   2022   2009   2013   2023     1  0.0000000  0.6973333  3
   2024   2005   2025   2026     1  0.0000000  0.6973333  3
   2028   2029   2031   2035     1  0.0000000  0.6508444  3
   2028   2029   2049   2050     1  0.0000000  1.0460000  1
   2028   2029   2049   2050     1  0.0000000  0.6694400  3
   2028   2039   2044   2045     1  0.0000000  1.0460000  1
   2028   2039   2044   2045     1  0.0000000  0.6694400  3
   2028   2046   2033   2036     1  0.0000000  1.6038667  3
   2029   2028   2039   2042     1  0.0000000  0.6508444  3
   2029   2028   2039   2043     1  0.0000000  0.6508444  3
   2029   2031   2032   2034     1  0.0000000  0.6508444  3
   2029   2031   2038   2040     1  0.0000000  1.0460000  1
   2029   2031   2038   2040     1  0.0000000  0.6694400  3
   2030   2028   2029   2031     1  0.0000000  0.6508444  3
   2030   2028   2029   2049     1  0.0000000  1.0460000  1
   2030   2028   2029   2049     1  0.0000000  0.0000000  3
   2030   2028   2029   2048     1  0.0000000  0.6508444  3
   2030   2028   2039   2044     1  0.0000000  1.0460000  1
   2030   2028   2039   2044     1  0.0000000  0.0000000  3
   2030   2028   2039   2042     1  0.0000000  0.6508444  3
   2030   2028   2039   2043     1  0.0000000  0.6508444  3
   2030   2028   2046   2033     1  0.0000000  1.6038667  3
   2031   2029   2049   2050     1  0.0000000  1.0460000  1
   2031   2029   2049   2050     1  0.0000000  0.6694400  3
   2031   2032   2033   2036     1  0.0000000  0.6508444  3
   2031   2032   2051   2041     1  0.0000000  1.2552000  3
   2032   2031   2029   2048     1  0.0000000  0.6508444  3
   2032   2031   2038   2040     1  0.0000000  1.0460000  1
   2032   2031   2038   2040     1  0.0000000  0.6694400  3
   2032   2033   2037   2047     1  0.0000000  1.0460000  1
   2032   2033   2037   2047     1  0.0000000  0.6694400  3
   2033   2032   2031   2035     1  0.0000000  0.6508444  3
   2033   2032   2051   2041     1  0.0000000  1.2552000  3
   2034   2032   2031   2038     1  0.0000000  1.0460000  1
   2034   2032   2031   2038     1  0.0000000  0.0000000  3
   2034   2032   2031   2035     1  0.0000000  0.6508444  3
   2034   2032   2033   2037     1  0.0000000  1.0460000  1
   2034   2032   2033   2037     1  0.0000000  0.0000000  3
   2034   2032   2033   2046     1  0.0000000  1.0460000  1
   2034   2032   2033   2046     1  0.0000000  0.0000000  3
   2034   2032   2033   2036     1  0.0000000  0.6508444  3
   2034   2032   2051   2041     1  0.0000000  1.2552000  3
   2035   2031   2029   2049     1  0.0000000  1.0460000  1
   2035   2031   2029   2049     1  0.0000000  0.0000000  3
   2035   2031   2029   2048     1  0.0000000  0.6508444  3
   2035   2031   2032   2051     1  0.0000000  0.6508444  3
   2035   2031   2038   2040     1  0.0000000  0.6973333  3
   2036   2033   2032   2051     1  0.0000000  0.6508444  3
   2036   2033   2037   2047     1  0.0000000  0.6973333  3
   2038   2031   2029   2048     1  0.0000000  1.0460000  1
   2038   2031   2029   2048     1  0.0000000  0.0000000  3
   2039   2028   2029   2048     1  0.0000000  0.6508444  3
   2042   2039   2028   2046     1  0.0000000  1.0460000  1
   2042   2039   2028   2046     1  0.0000000  0.0000000  3
   2042   2039   2044   2045     1  0.0000000  0.6973333  3
   2043   2039   2028   2046     1  0.0000000  1.0460000  1
   2043   2039   2028   2046     1  0.0000000  0.0000000  3
   2043   2039   2044   2045     1  0.0000000  0.6973333  3
   2046   2028   2029   2048     1  0.0000000  1.0460000  1
   2046   2028   2029   2048     1  0.0000000  0.0000000  3
   2046   2033   2037   2047     1  0.0000000  0.6973333  3
   2048   2029   2049   2050     1  0.0000000  0.6973333  3
   2052   2054   2056   2058     1  0.0000000  0.6508444  3
   2052   2054   2056   2059     1  0.0000000  0.6508444  3
   2053   2052   2054   2056     1  0.0000000  0.0000000  2
   2053   2052   2054   2055     1  0.0000000  0.0000000  2
   2053   2052   2054   2057     1  0.0000000  0.0000000  2
   2055   2054   2056   2060     1  0.0000000  0.6508444  3
   2055   2054   2056   2058     1  0.0000000  0.6508444  3
   2055   2054   2056   2059     1  0.0000000  0.6508444  3
   2056   2060   2061   2070     1  0.0000000  1.2552000  3
   2056   2060   2061   2071     1  0.0000000  1.2552000  3
   2056   2060   2062   2063     1  0.0000000  1.2552000  3
   2056   2060   2062   2065     1  0.0000000  1.2552000  3
   2057   2054   2056   2060     1  0.0000000  0.6508444  3
   2057   2054   2056   2058     1  0.0000000  0.6508444  3
   2057   2054   2056   2059     1  0.0000000  0.6508444  3
   2058   2056   2060   2061     1  0.0000000  1.2552000  3
   2058   2056   2060   2062     1  0.0000000  1.2552000  3
   2059   2056   2060   2061     1  0.0000000  1.2552000  3
   2059   2056   2060   2062     1  0.0000000  1.2552000  3
   2060   2061   2072   2073     1  0.0000000  0.6508444  3
   2060   2061   2072   2074     1  0.0000000  0.6508444  3
   2060   2062   2064   2066     1  0.0000000  0.6508444  3
   2060   2062   2064   2067     1  0.0000000  0.6508444  3
   2061   2060   2062   2063     1  0.0000000  1.2552000  3
   2061   2060   2062   2065     1  0.0000000  1.2552000  3
   2062   2060   2061   2070     1  0.0000000  1.2552000  3
   2062   2060   2061   2071     1  0.0000000  1.2552000  3
   2063   2062   2064   2068     1  0.0000000  0.6508444  3
   2063   2062   2064   2066     1  0.0000000  0.6508444  3
   2063   2062   2064   2067     1  0.0000000  0.6508444  3
   2064   2068   2100   2090     1  180.0000771  6.0668000  2
   2064   2068   2100   2090     1  180.0000771  1.4644000  4
   2065   2062   2064   2068     1  0.0000000  0.6508444  3
   2065   2062   2064   2066     1  0.0000000  0.6508444  3
   2065   2062   2064   2067     1  0.0000000  0.6508444  3
   2066   2064   2068   2069     1  0.0000000  3.3472000  1
   2066   2064   2068   2069     1  0.0000000  0.0000000  2
   2066   2064   2068   2069     1  180.0000771  0.3347200  3
   2066   2064   2068   2100     1  180.0000771  0.0000000  2
   2067   2064   2068   2069     1  0.0000000  3.3472000  1
   2067   2064   2068   2069     1  0.0000000  0.0000000  2
   2067   2064   2068   2069     1  180.0000771  0.3347200  3
   2067   2064   2068   2100     1  180.0000771  0.0000000  2
   2068   2100   2081   2083     1  0.0000000  1.2552000  3
   2069   2068   2100   2090     1  180.0000771  6.0668000  2
   2069   2068   2100   2090     1  180.0000771  1.4644000  4
   2070   2061   2072   2075     1  0.0000000  0.6508444  3
   2070   2061   2072   2073     1  0.0000000  0.6508444  3
   2070   2061   2072   2074     1  0.0000000  0.6508444  3
   2071   2061   2072   2075     1  0.0000000  0.6508444  3
   2071   2061   2072   2073     1  0.0000000  0.6508444  3
   2071   2061   2072   2074     1  0.0000000  0.6508444  3
   2072   2075   2124   2114     1  180.0000771  6.0668000  2
   2072   2075   2124   2114     1  180.0000771  1.4644000  4
   2073   2072   2075   2076     1  0.0000000  3.3472000  1
   2073   2072   2075   2076     1  0.0000000  0.0000000  2
   2073   2072   2075   2076     1  180.0000771  0.3347200  3
   2073   2072   2075   2124     1  180.0000771  0.0000000  2
   2074   2072   2075   2076     1  0.0000000  3.3472000  1
   2074   2072   2075   2076     1  0.0000000  0.0000000  2
   2074   2072   2075   2076     1  180.0000771  0.3347200  3
   2074   2072   2075   2124     1  180.0000771  0.0000000  2
   2075   2124   2105   2107     1  0.0000000  1.2552000  3
   2076   2075   2124   2114     1  180.0000771  6.0668000  2
   2076   2075   2124   2114     1  180.0000771  1.4644000  4
   2077   2078   2080   2084     1  0.0000000  0.6508444  3
   2077   2078   2098   2099     1  0.0000000  1.0460000  1
   2077   2078   2098   2099     1  0.0000000  0.6694400  3
   2077   2088   2093   2094     1  0.0000000  1.0460000  1
   2077   2088   2093   2094     1  0.0000000  0.6694400  3
   2077   2095   2082   2085     1  0.0000000  1.6038667  3
   2078   2080   2081   2083     1  0.0000000  0.6508444  3
   2078   2080   2087   2089     1  0.0000000  1.0460000  1
   2078   2080   2087   2089     1  0.0000000  0.6694400  3
   2078   2077   2088   2091     1  0.0000000  0.6508444  3
   2078   2077   2088   2092     1  0.0000000  0.6508444  3
   2079   2077   2078   2080     1  0.0000000  0.6508444  3
   2079   2077   2078   2098     1  0.0000000  1.0460000  1
   2079   2077   2078   2098     1  0.0000000  0.0000000  3
   2079   2077   2078   2097     1  0.0000000  0.6508444  3
   2079   2077   2088   2093     1  0.0000000  1.0460000  1
   2079   2077   2088   2093     1  0.0000000  0.0000000  3
   2079   2077   2088   2091     1  0.0000000  0.6508444  3
   2079   2077   2088   2092     1  0.0000000  0.6508444  3
   2079   2077   2095   2082     1  0.0000000  1.6038667  3
   2080   2081   2082   2085     1  0.0000000  0.6508444  3
   2080   2081   2100   2090     1  0.0000000  1.2552000  3
   2080   2078   2098   2099     1  0.0000000  1.0460000  1
   2080   2078   2098   2099     1  0.0000000  0.6694400  3
   2081   2082   2086   2096     1  0.0000000  1.0460000  1
   2081   2082   2086   2096     1  0.0000000  0.6694400  3
   2081   2080   2087   2089     1  0.0000000  1.0460000  1
   2081   2080   2087   2089     1  0.0000000  0.6694400  3
   2081   2080   2078   2097     1  0.0000000  0.6508444  3
   2082   2081   2100   2090     1  0.0000000  1.2552000  3
   2082   2081   2080   2084     1  0.0000000  0.6508444  3
   2083   2081   2082   2086     1  0.0000000  1.0460000  1
   2083   2081   2082   2086     1  0.0000000  0.0000000  3
   2083   2081   2082   2095     1  0.0000000  1.0460000  1
   2083   2081   2082   2095     1  0.0000000  0.0000000  3
   2083   2081   2082   2085     1  0.0000000  0.6508444  3
   2083   2081   2100   2090     1  0.0000000  1.2552000  3
   2083   2081   2080   2087     1  0.0000000  1.0460000  1
   2083   2081   2080   2087     1  0.0000000  0.0000000  3
   2083   2081   2080   2084     1  0.0000000  0.6508444  3
   2084   2080   2081   2100     1  0.0000000  0.6508444  3
   2084   2080   2087   2089     1  0.0000000  0.6973333  3
   2084   2080   2078   2098     1  0.0000000  1.0460000  1
   2084   2080   2078   2098     1  0.0000000  0.0000000  3
   2084   2080   2078   2097     1  0.0000000  0.6508444  3
   2085   2082   2086   2096     1  0.0000000  0.6973333  3
   2085   2082   2081   2100     1  0.0000000  0.6508444  3
   2087   2080   2078   2097     1  0.0000000  1.0460000  1
   2087   2080   2078   2097     1  0.0000000  0.0000000  3
   2088   2077   2078   2097     1  0.0000000  0.6508444  3
   2091   2088   2093   2094     1  0.0000000  0.6973333  3
   2091   2088   2077   2095     1  0.0000000  1.0460000  1
   2091   2088   2077   2095     1  0.0000000  0.0000000  3
   2092   2088   2093   2094     1  0.0000000  0.6973333  3
   2092   2088   2077   2095     1  0.0000000  1.0460000  1
   2092   2088   2077   2095     1  0.0000000  0.0000000  3
   2095   2082   2086   2096     1  0.0000000  0.6973333  3
   2095   2077   2078   2097     1  0.0000000  1.0460000  1
   2095   2077   2078   2097     1  0.0000000  0.0000000  3
   2097   2078   2098   2099     1  0.0000000  0.6973333  3
   2101   2102   2104   2108     1  0.0000000  0.6508444  3
   2101   2102   2122   2123     1  0.0000000  1.0460000  1
   2101   2102   2122   2123     1  0.0000000  0.6694400  3
   2101   2112   2117   2118     1  0.0000000  1.0460000  1
   2101   2112   2117   2118     1  0.0000000  0.6694400  3
   2101   2119   2106   2109     1  0.0000000  1.6038667  3
   2102   2104   2105   2107     1  0.0000000  0.6508444  3
   2102   2104   2111   2113     1  0.0000000  1.0460000  1
   2102   2104   2111   2113     1  0.0000000  0.6694400  3
   2102   2101   2112   2115     1  0.0000000  0.6508444  3
   2102   2101   2112   2116     1  0.0000000  0.6508444  3
   2103   2101   2102   2104     1  0.0000000  0.6508444  3
   2103   2101   2102   2122     1  0.0000000  1.0460000  1
   2103   2101   2102   2122     1  0.0000000  0.0000000  3
   2103   2101   2102   2121     1  0.0000000  0.6508444  3
   2103   2101   2112   2117     1  0.0000000  1.0460000  1
   2103   2101   2112   2117     1  0.0000000  0.0000000  3
   2103   2101   2112   2115     1  0.0000000  0.6508444  3
   2103   2101   2112   2116     1  0.0000000  0.6508444  3
   2103   2101   2119   2106     1  0.0000000  1.6038667  3
   2104   2105   2106   2109     1  0.0000000  0.6508444  3
   2104   2105   2124   2114     1  0.0000000  1.2552000  3
   2104   2102   2122   2123     1  0.0000000  1.0460000  1
   2104   2102   2122   2123     1  0.0000000  0.6694400  3
   2105   2106   2110   2120     1  0.0000000  1.0460000  1
   2105   2106   2110   2120     1  0.0000000  0.6694400  3
   2105   2104   2111   2113     1  0.0000000  1.0460000  1
   2105   2104   2111   2113     1  0.0000000  0.6694400  3
   2105   2104   2102   2121     1  0.0000000  0.6508444  3
   2106   2105   2124   2114     1  0.0000000  1.2552000  3
   2106   2105   2104   2108     1  0.0000000  0.6508444  3
   2107   2105   2106   2110     1  0.0000000  1.0460000  1
   2107   2105   2106   2110     1  0.0000000  0.0000000  3
   2107   2105   2106   2119     1  0.0000000  1.0460000  1
   2107   2105   2106   2119     1  0.0000000  0.0000000  3
   2107   2105   2106   2109     1  0.0000000  0.6508444  3
   2107   2105   2124   2114     1  0.0000000  1.2552000  3
   2107   2105   2104   2111     1  0.0000000  1.0460000  1
   2107   2105   2104   2111     1  0.0000000  0.0000000  3
   2107   2105   2104   2108     1  0.0000000  0.6508444  3
   2108   2104   2105   2124     1  0.0000000  0.6508444  3
   2108   2104   2111   2113     1  0.0000000  0.6973333  3
   2108   2104   2102   2122     1  0.0000000  1.0460000  1
   2108   2104   2102   2122     1  0.0000000  0.0000000  3
   2108   2104   2102   2121     1  0.0000000  0.6508444  3
   2109   2106   2110   2120     1  0.0000000  0.6973333  3
   2109   2106   2105   2124     1  0.0000000  0.6508444  3
   2111   2104   2102   2121     1  0.0000000  1.0460000  1
   2111   2104   2102   2121     1  0.0000000  0.0000000  3
   2112   2101   2102   2121     1  0.0000000  0.6508444  3
   2115   2112   2117   2118     1  0.0000000  0.6973333  3
   2115   2112   2101   2119     1  0.0000000  1.0460000  1
   2115   2112   2101   2119     1  0.0000000  0.0000000  3
   2116   2112   2117   2118     1  0.0000000  0.6973333  3
   2116   2112   2101   2119     1  0.0000000  1.0460000  1
   2116   2112   2101   2119     1  0.0000000  0.0000000  3
   2119   2106   2110   2120     1  0.0000000  0.6973333  3
   2119   2101   2102   2121     1  0.0000000  1.0460000  1
   2119   2101   2102   2121     1  0.0000000  0.0000000  3
   2121   2102   2122   2123     1  0.0000000  0.6973333  3
   2125   2127   2129   2131     1  0.0000000  0.6508444  3
   2125   2127   2129   2132     1  0.0000000  0.6508444  3
   2126   2125   2127   2129     1  0.0000000  0.0000000  2
   2126   2125   2127   2128     1  0.0000000  0.0000000  2
   2126   2125   2127   2130     1  0.0000000  0.0000000  2
   2128   2127   2129   2133     1  0.0000000  0.6508444  3
   2128   2127   2129   2131     1  0.0000000  0.6508444  3
   2128   2127   2129   2132     1  0.0000000  0.6508444  3
   2129   2133   2134   2143     1  0.0000000  1.2552000  3
   2129   2133   2134   2144     1  0.0000000  1.2552000  3
   2129   2133   2135   2136     1  0.0000000  1.2552000  3
   2129   2133   2135   2138     1  0.0000000  1.2552000  3
   2130   2127   2129   2133     1  0.0000000  0.6508444  3
   2130   2127   2129   2131     1  0.0000000  0.6508444  3
   2130   2127   2129   2132     1  0.0000000  0.6508444  3
   2131   2129   2133   2134     1  0.0000000  1.2552000  3
   2131   2129   2133   2135     1  0.0000000  1.2552000  3
   2132   2129   2133   2134     1  0.0000000  1.2552000  3
   2132   2129   2133   2135     1  0.0000000  1.2552000  3
   2133   2134   2145   2146     1  0.0000000  0.6508444  3
   2133   2134   2145   2147     1  0.0000000  0.6508444  3
   2133   2135   2137   2139     1  0.0000000  0.6508444  3
   2133   2135   2137   2140     1  0.0000000  0.6508444  3
   2134   2133   2135   2136     1  0.0000000  1.2552000  3
   2134   2133   2135   2138     1  0.0000000  1.2552000  3
   2135   2133   2134   2143     1  0.0000000  1.2552000  3
   2135   2133   2134   2144     1  0.0000000  1.2552000  3
   2136   2135   2137   2141     1  0.0000000  0.6508444  3
   2136   2135   2137   2139     1  0.0000000  0.6508444  3
   2136   2135   2137   2140     1  0.0000000  0.6508444  3
   2137   2141   2173   2163     1  180.0000771  6.0668000  2
   2137   2141   2173   2163     1  180.0000771  1.4644000  4
   2138   2135   2137   2141     1  0.0000000  0.6508444  3
   2138   2135   2137   2139     1  0.0000000  0.6508444  3
   2138   2135   2137   2140     1  0.0000000  0.6508444  3
   2139   2137   2141   2142     1  0.0000000  3.3472000  1
   2139   2137   2141   2142     1  0.0000000  0.0000000  2
   2139   2137   2141   2142     1  180.0000771  0.3347200  3
   2139   2137   2141   2173     1  180.0000771  0.0000000  2
   2140   2137   2141   2142     1  0.0000000  3.3472000  1
   2140   2137   2141   2142     1  0.0000000  0.0000000  2
   2140   2137   2141   2142     1  180.0000771  0.3347200  3
   2140   2137   2141   2173     1  180.0000771  0.0000000  2
   2141   2173   2154   2156     1  0.0000000  1.2552000  3
   2142   2141   2173   2163     1  180.0000771  6.0668000  2
   2142   2141   2173   2163     1  180.0000771  1.4644000  4
   2143   2134   2145   2148     1  0.0000000  0.6508444  3
   2143   2134   2145   2146     1  0.0000000  0.6508444  3
   2143   2134   2145   2147     1  0.0000000  0.6508444  3
   2144   2134   2145   2148     1  0.0000000  0.6508444  3
   2144   2134   2145   2146     1  0.0000000  0.6508444  3
   2144   2134   2145   2147     1  0.0000000  0.6508444  3
   2145   2148   2197   2187     1  180.0000771  6.0668000  2
   2145   2148   2197   2187     1  180.0000771  1.4644000  4
   2146   2145   2148   2149     1  0.0000000  3.3472000  1
   2146   2145   2148   2149     1  0.0000000  0.0000000  2
   2146   2145   2148   2149     1  180.0000771  0.3347200  3
   2146   2145   2148   2197     1  180.0000771  0.0000000  2
   2147   2145   2148   2149     1  0.0000000  3.3472000  1
   2147   2145   2148   2149     1  0.0000000  0.0000000  2
   2147   2145   2148   2149     1  180.0000771  0.3347200  3
   2147   2145   2148   2197     1  180.0000771  0.0000000  2
   2148   2197   2178   2180     1  0.0000000  1.2552000  3
   2149   2148   2197   2187     1  180.0000771  6.0668000  2
   2149   2148   2197   2187     1  180.0000771  1.4644000  4
   2150   2151   2153   2157     1  0.0000000  0.6508444  3
   2150   2151   2171   2172     1  0.0000000  1.0460000  1
   2150   2151   2171   2172     1  0.0000000  0.6694400  3
   2150   2161   2166   2167     1  0.0000000  1.0460000  1
   2150   2161   2166   2167     1  0.0000000  0.6694400  3
   2150   2168   2155   2158     1  0.0000000  1.6038667  3
   2151   2150   2161   2164     1  0.0000000  0.6508444  3
   2151   2150   2161   2165     1  0.0000000  0.6508444  3
   2151   2153   2154   2156     1  0.0000000  0.6508444  3
   2151   2153   2160   2162     1  0.0000000  1.0460000  1
   2151   2153   2160   2162     1  0.0000000  0.6694400  3
   2152   2150   2151   2153     1  0.0000000  0.6508444  3
   2152   2150   2151   2171     1  0.0000000  1.0460000  1
   2152   2150   2151   2171     1  0.0000000  0.0000000  3
   2152   2150   2151   2170     1  0.0000000  0.6508444  3
   2152   2150   2161   2166     1  0.0000000  1.0460000  1
   2152   2150   2161   2166     1  0.0000000  0.0000000  3
   2152   2150   2161   2164     1  0.0000000  0.6508444  3
   2152   2150   2161   2165     1  0.0000000  0.6508444  3
   2152   2150   2168   2155     1  0.0000000  1.6038667  3
   2153   2151   2171   2172     1  0.0000000  1.0460000  1
   2153   2151   2171   2172     1  0.0000000  0.6694400  3
   2153   2154   2155   2158     1  0.0000000  0.6508444  3
   2153   2154   2173   2163     1  0.0000000  1.2552000  3
   2154   2153   2151   2170     1  0.0000000  0.6508444  3
   2154   2153   2160   2162     1  0.0000000  1.0460000  1
   2154   2153   2160   2162     1  0.0000000  0.6694400  3
   2154   2155   2159   2169     1  0.0000000  1.0460000  1
   2154   2155   2159   2169     1  0.0000000  0.6694400  3
   2155   2154   2153   2157     1  0.0000000  0.6508444  3
   2155   2154   2173   2163     1  0.0000000  1.2552000  3
   2156   2154   2153   2160     1  0.0000000  1.0460000  1
   2156   2154   2153   2160     1  0.0000000  0.0000000  3
   2156   2154   2153   2157     1  0.0000000  0.6508444  3
   2156   2154   2155   2159     1  0.0000000  1.0460000  1
   2156   2154   2155   2159     1  0.0000000  0.0000000  3
   2156   2154   2155   2168     1  0.0000000  1.0460000  1
   2156   2154   2155   2168     1  0.0000000  0.0000000  3
   2156   2154   2155   2158     1  0.0000000  0.6508444  3
   2156   2154   2173   2163     1  0.0000000  1.2552000  3
   2157   2153   2151   2171     1  0.0000000  1.0460000  1
   2157   2153   2151   2171     1  0.0000000  0.0000000  3
   2157   2153   2151   2170     1  0.0000000  0.6508444  3
   2157   2153   2154   2173     1  0.0000000  0.6508444  3
   2157   2153   2160   2162     1  0.0000000  0.6973333  3
   2158   2155   2154   2173     1  0.0000000  0.6508444  3
   2158   2155   2159   2169     1  0.0000000  0.6973333  3
   2160   2153   2151   2170     1  0.0000000  1.0460000  1
   2160   2153   2151   2170     1  0.0000000  0.0000000  3
   2161   2150   2151   2170     1  0.0000000  0.6508444  3
   2164   2161   2150   2168     1  0.0000000  1.0460000  1
   2164   2161   2150   2168     1  0.0000000  0.0000000  3
   2164   2161   2166   2167     1  0.0000000  0.6973333  3
   2165   2161   2150   2168     1  0.0000000  1.0460000  1
   2165   2161   2150   2168     1  0.0000000  0.0000000  3
   2165   2161   2166   2167     1  0.0000000  0.6973333  3
   2168   2150   2151   2170     1  0.0000000  1.0460000  1
   2168   2150   2151   2170     1  0.0000000  0.0000000  3
   2168   2155   2159   2169     1  0.0000000  0.6973333  3
   2170   2151   2171   2172     1  0.0000000  0.6973333  3
   2174   2175   2177   2181     1  0.0000000  0.6508444  3
   2174   2175   2195   2196     1  0.0000000  1.0460000  1
   2174   2175   2195   2196     1  0.0000000  0.6694400  3
   2174   2185   2190   2191     1  0.0000000  1.0460000  1
   2174   2185   2190   2191     1  0.0000000  0.6694400  3
   2174   2192   2179   2182     1  0.0000000  1.6038667  3
   2175   2174   2185   2188     1  0.0000000  0.6508444  3
   2175   2174   2185   2189     1  0.0000000  0.6508444  3
   2175   2177   2178   2180     1  0.0000000  0.6508444  3
   2175   2177   2184   2186     1  0.0000000  1.0460000  1
   2175   2177   2184   2186     1  0.0000000  0.6694400  3
   2176   2174   2175   2177     1  0.0000000  0.6508444  3
   2176   2174   2175   2195     1  0.0000000  1.0460000  1
   2176   2174   2175   2195     1  0.0000000  0.0000000  3
   2176   2174   2175   2194     1  0.0000000  0.6508444  3
   2176   2174   2185   2190     1  0.0000000  1.0460000  1
   2176   2174   2185   2190     1  0.0000000  0.0000000  3
   2176   2174   2185   2188     1  0.0000000  0.6508444  3
   2176   2174   2185   2189     1  0.0000000  0.6508444  3
   2176   2174   2192   2179     1  0.0000000  1.6038667  3
   2177   2175   2195   2196     1  0.0000000  1.0460000  1
   2177   2175   2195   2196     1  0.0000000  0.6694400  3
   2177   2178   2179   2182     1  0.0000000  0.6508444  3
   2177   2178   2197   2187     1  0.0000000  1.2552000  3
   2178   2177   2175   2194     1  0.0000000  0.6508444  3
   2178   2177   2184   2186     1  0.0000000  1.0460000  1
   2178   2177   2184   2186     1  0.0000000  0.6694400  3
   2178   2179   2183   2193     1  0.0000000  1.0460000  1
   2178   2179   2183   2193     1  0.0000000  0.6694400  3
   2179   2178   2177   2181     1  0.0000000  0.6508444  3
   2179   2178   2197   2187     1  0.0000000  1.2552000  3
   2180   2178   2177   2184     1  0.0000000  1.0460000  1
   2180   2178   2177   2184     1  0.0000000  0.0000000  3
   2180   2178   2177   2181     1  0.0000000  0.6508444  3
   2180   2178   2179   2183     1  0.0000000  1.0460000  1
   2180   2178   2179   2183     1  0.0000000  0.0000000  3
   2180   2178   2179   2192     1  0.0000000  1.0460000  1
   2180   2178   2179   2192     1  0.0000000  0.0000000  3
   2180   2178   2179   2182     1  0.0000000  0.6508444  3
   2180   2178   2197   2187     1  0.0000000  1.2552000  3
   2181   2177   2175   2195     1  0.0000000  1.0460000  1
   2181   2177   2175   2195     1  0.0000000  0.0000000  3
   2181   2177   2175   2194     1  0.0000000  0.6508444  3
   2181   2177   2178   2197     1  0.0000000  0.6508444  3
   2181   2177   2184   2186     1  0.0000000  0.6973333  3
   2182   2179   2178   2197     1  0.0000000  0.6508444  3
   2182   2179   2183   2193     1  0.0000000  0.6973333  3
   2184   2177   2175   2194     1  0.0000000  1.0460000  1
   2184   2177   2175   2194     1  0.0000000  0.0000000  3
   2185   2174   2175   2194     1  0.0000000  0.6508444  3
   2188   2185   2174   2192     1  0.0000000  1.0460000  1
   2188   2185   2174   2192     1  0.0000000  0.0000000  3
   2188   2185   2190   2191     1  0.0000000  0.6973333  3
   2189   2185   2174   2192     1  0.0000000  1.0460000  1
   2189   2185   2174   2192     1  0.0000000  0.0000000  3
   2189   2185   2190   2191     1  0.0000000  0.6973333  3
   2192   2174   2175   2194     1  0.0000000  1.0460000  1
   2192   2174   2175   2194     1  0.0000000  0.0000000  3
   2192   2179   2183   2193     1  0.0000000  0.6973333  3
   2194   2175   2195   2196     1  0.0000000  0.6973333  3
   2198   2200   2202   2204     1  0.0000000  0.6508444  3
   2198   2200   2202   2205     1  0.0000000  0.6508444  3
   2199   2198   2200   2202     1  0.0000000  0.0000000  2
   2199   2198   2200   2201     1  0.0000000  0.0000000  2
   2199   2198   2200   2203     1  0.0000000  0.0000000  2
   2201   2200   2202   2206     1  0.0000000  0.6508444  3
   2201   2200   2202   2204     1  0.0000000  0.6508444  3
   2201   2200   2202   2205     1  0.0000000  0.6508444  3
   2202   2206   2207   2216     1  0.0000000  1.2552000  3
   2202   2206   2207   2217     1  0.0000000  1.2552000  3
   2202   2206   2208   2209     1  0.0000000  1.2552000  3
   2202   2206   2208   2211     1  0.0000000  1.2552000  3
   2203   2200   2202   2206     1  0.0000000  0.6508444  3
   2203   2200   2202   2204     1  0.0000000  0.6508444  3
   2203   2200   2202   2205     1  0.0000000  0.6508444  3
   2204   2202   2206   2207     1  0.0000000  1.2552000  3
   2204   2202   2206   2208     1  0.0000000  1.2552000  3
   2205   2202   2206   2207     1  0.0000000  1.2552000  3
   2205   2202   2206   2208     1  0.0000000  1.2552000  3
   2206   2207   2218   2219     1  0.0000000  0.6508444  3
   2206   2207   2218   2220     1  0.0000000  0.6508444  3
   2206   2208   2210   2212     1  0.0000000  0.6508444  3
   2206   2208   2210   2213     1  0.0000000  0.6508444  3
   2207   2206   2208   2209     1  0.0000000  1.2552000  3
   2207   2206   2208   2211     1  0.0000000  1.2552000  3
   2208   2206   2207   2216     1  0.0000000  1.2552000  3
   2208   2206   2207   2217     1  0.0000000  1.2552000  3
   2209   2208   2210   2214     1  0.0000000  0.6508444  3
   2209   2208   2210   2212     1  0.0000000  0.6508444  3
   2209   2208   2210   2213     1  0.0000000  0.6508444  3
   2210   2214   2246   2236     1  180.0000771  6.0668000  2
   2210   2214   2246   2236     1  180.0000771  1.4644000  4
   2211   2208   2210   2214     1  0.0000000  0.6508444  3
   2211   2208   2210   2212     1  0.0000000  0.6508444  3
   2211   2208   2210   2213     1  0.0000000  0.6508444  3
   2212   2210   2214   2215     1  0.0000000  3.3472000  1
   2212   2210   2214   2215     1  0.0000000  0.0000000  2
   2212   2210   2214   2215     1  180.0000771  0.3347200  3
   2212   2210   2214   2246     1  180.0000771  0.0000000  2
   2213   2210   2214   2215     1  0.0000000  3.3472000  1
   2213   2210   2214   2215     1  0.0000000  0.0000000  2
   2213   2210   2214   2215     1  180.0000771  0.3347200  3
   2213   2210   2214   2246     1  180.0000771  0.0000000  2
   2214   2246   2227   2229     1  0.0000000  1.2552000  3
   2215   2214   2246   2236     1  180.0000771  6.0668000  2
   2215   2214   2246   2236     1  180.0000771  1.4644000  4
   2216   2207   2218   2221     1  0.0000000  0.6508444  3
   2216   2207   2218   2219     1  0.0000000  0.6508444  3
   2216   2207   2218   2220     1  0.0000000  0.6508444  3
   2217   2207   2218   2221     1  0.0000000  0.6508444  3
   2217   2207   2218   2219     1  0.0000000  0.6508444  3
   2217   2207   2218   2220     1  0.0000000  0.6508444  3
   2218   2221   2270   2260     1  180.0000771  6.0668000  2
   2218   2221   2270   2260     1  180.0000771  1.4644000  4
   2219   2218   2221   2222     1  0.0000000  3.3472000  1
   2219   2218   2221   2222     1  0.0000000  0.0000000  2
   2219   2218   2221   2222     1  180.0000771  0.3347200  3
   2219   2218   2221   2270     1  180.0000771  0.0000000  2
   2220   2218   2221   2222     1  0.0000000  3.3472000  1
   2220   2218   2221   2222     1  0.0000000  0.0000000  2
   2220   2218   2221   2222     1  180.0000771  0.3347200  3
   2220   2218   2221   2270     1  180.0000771  0.0000000  2
   2221   2270   2251   2253     1  0.0000000  1.2552000  3
   2222   2221   2270   2260     1  180.0000771  6.0668000  2
   2222   2221   2270   2260     1  180.0000771  1.4644000  4
   2223   2224   2226   2230     1  0.0000000  0.6508444  3
   2223   2224   2244   2245     1  0.0000000  1.0460000  1
   2223   2224   2244   2245     1  0.0000000  0.6694400  3
   2223   2234   2239   2240     1  0.0000000  1.0460000  1
   2223   2234   2239   2240     1  0.0000000  0.6694400  3
   2223   2241   2228   2231     1  0.0000000  1.6038667  3
   2224   2226   2227   2229     1  0.0000000  0.6508444  3
   2224   2226   2233   2235     1  0.0000000  1.0460000  1
   2224   2226   2233   2235     1  0.0000000  0.6694400  3
   2224   2223   2234   2237     1  0.0000000  0.6508444  3
   2224   2223   2234   2238     1  0.0000000  0.6508444  3
   2225   2223   2224   2226     1  0.0000000  0.6508444  3
   2225   2223   2224   2244     1  0.0000000  1.0460000  1
   2225   2223   2224   2244     1  0.0000000  0.0000000  3
   2225   2223   2224   2243     1  0.0000000  0.6508444  3
   2225   2223   2234   2239     1  0.0000000  1.0460000  1
   2225   2223   2234   2239     1  0.0000000  0.0000000  3
   2225   2223   2234   2237     1  0.0000000  0.6508444  3
   2225   2223   2234   2238     1  0.0000000  0.6508444  3
   2225   2223   2241   2228     1  0.0000000  1.6038667  3
   2226   2227   2228   2231     1  0.0000000  0.6508444  3
   2226   2227   2246   2236     1  0.0000000  1.2552000  3
   2226   2224   2244   2245     1  0.0000000  1.0460000  1
   2226   2224   2244   2245     1  0.0000000  0.6694400  3
   2227   2228   2232   2242     1  0.0000000  1.0460000  1
   2227   2228   2232   2242     1  0.0000000  0.6694400  3
   2227   2226   2233   2235     1  0.0000000  1.0460000  1
   2227   2226   2233   2235     1  0.0000000  0.6694400  3
   2227   2226   2224   2243     1  0.0000000  0.6508444  3
   2228   2227   2246   2236     1  0.0000000  1.2552000  3
   2228   2227   2226   2230     1  0.0000000  0.6508444  3
   2229   2227   2228   2232     1  0.0000000  1.0460000  1
   2229   2227   2228   2232     1  0.0000000  0.0000000  3
   2229   2227   2228   2241     1  0.0000000  1.0460000  1
   2229   2227   2228   2241     1  0.0000000  0.0000000  3
   2229   2227   2228   2231     1  0.0000000  0.6508444  3
   2229   2227   2246   2236     1  0.0000000  1.2552000  3
   2229   2227   2226   2233     1  0.0000000  1.0460000  1
   2229   2227   2226   2233     1  0.0000000  0.0000000  3
   2229   2227   2226   2230     1  0.0000000  0.6508444  3
   2230   2226   2227   2246     1  0.0000000  0.6508444  3
   2230   2226   2233   2235     1  0.0000000  0.6973333  3
   2230   2226   2224   2244     1  0.0000000  1.0460000  1
   2230   2226   2224   2244     1  0.0000000  0.0000000  3
   2230   2226   2224   2243     1  0.0000000  0.6508444  3
   2231   2228   2232   2242     1  0.0000000  0.6973333  3
   2231   2228   2227   2246     1  0.0000000  0.6508444  3
   2233   2226   2224   2243     1  0.0000000  1.0460000  1
   2233   2226   2224   2243     1  0.0000000  0.0000000  3
   2234   2223   2224   2243     1  0.0000000  0.6508444  3
   2237   2234   2239   2240     1  0.0000000  0.6973333  3
   2237   2234   2223   2241     1  0.0000000  1.0460000  1
   2237   2234   2223   2241     1  0.0000000  0.0000000  3
   2238   2234   2239   2240     1  0.0000000  0.6973333  3
   2238   2234   2223   2241     1  0.0000000  1.0460000  1
   2238   2234   2223   2241     1  0.0000000  0.0000000  3
   2241   2228   2232   2242     1  0.0000000  0.6973333  3
   2241   2223   2224   2243     1  0.0000000  1.0460000  1
   2241   2223   2224   2243     1  0.0000000  0.0000000  3
   2243   2224   2244   2245     1  0.0000000  0.6973333  3
   2247   2248   2250   2254     1  0.0000000  0.6508444  3
   2247   2248   2268   2269     1  0.0000000  1.0460000  1
   2247   2248   2268   2269     1  0.0000000  0.6694400  3
   2247   2258   2263   2264     1  0.0000000  1.0460000  1
   2247   2258   2263   2264     1  0.0000000  0.6694400  3
   2247   2265   2252   2255     1  0.0000000  1.6038667  3
   2248   2250   2251   2253     1  0.0000000  0.6508444  3
   2248   2250   2257   2259     1  0.0000000  1.0460000  1
   2248   2250   2257   2259     1  0.0000000  0.6694400  3
   2248   2247   2258   2261     1  0.0000000  0.6508444  3
   2248   2247   2258   2262     1  0.0000000  0.6508444  3
   2249   2247   2248   2250     1  0.0000000  0.6508444  3
   2249   2247   2248   2268     1  0.0000000  1.0460000  1
   2249   2247   2248   2268     1  0.0000000  0.0000000  3
   2249   2247   2248   2267     1  0.0000000  0.6508444  3
   2249   2247   2258   2263     1  0.0000000  1.0460000  1
   2249   2247   2258   2263     1  0.0000000  0.0000000  3
   2249   2247   2258   2261     1  0.0000000  0.6508444  3
   2249   2247   2258   2262     1  0.0000000  0.6508444  3
   2249   2247   2265   2252     1  0.0000000  1.6038667  3
   2250   2251   2252   2255     1  0.0000000  0.6508444  3
   2250   2251   2270   2260     1  0.0000000  1.2552000  3
   2250   2248   2268   2269     1  0.0000000  1.0460000  1
   2250   2248   2268   2269     1  0.0000000  0.6694400  3
   2251   2252   2256   2266     1  0.0000000  1.0460000  1
   2251   2252   2256   2266     1  0.0000000  0.6694400  3
   2251   2250   2257   2259     1  0.0000000  1.0460000  1
   2251   2250   2257   2259     1  0.0000000  0.6694400  3
   2251   2250   2248   2267     1  0.0000000  0.6508444  3
   2252   2251   2270   2260     1  0.0000000  1.2552000  3
   2252   2251   2250   2254     1  0.0000000  0.6508444  3
   2253   2251   2252   2256     1  0.0000000  1.0460000  1
   2253   2251   2252   2256     1  0.0000000  0.0000000  3
   2253   2251   2252   2265     1  0.0000000  1.0460000  1
   2253   2251   2252   2265     1  0.0000000  0.0000000  3
   2253   2251   2252   2255     1  0.0000000  0.6508444  3
   2253   2251   2270   2260     1  0.0000000  1.2552000  3
   2253   2251   2250   2257     1  0.0000000  1.0460000  1
   2253   2251   2250   2257     1  0.0000000  0.0000000  3
   2253   2251   2250   2254     1  0.0000000  0.6508444  3
   2254   2250   2251   2270     1  0.0000000  0.6508444  3
   2254   2250   2257   2259     1  0.0000000  0.6973333  3
   2254   2250   2248   2268     1  0.0000000  1.0460000  1
   2254   2250   2248   2268     1  0.0000000  0.0000000  3
   2254   2250   2248   2267     1  0.0000000  0.6508444  3
   2255   2252   2256   2266     1  0.0000000  0.6973333  3
   2255   2252   2251   2270     1  0.0000000  0.6508444  3
   2257   2250   2248   2267     1  0.0000000  1.0460000  1
   2257   2250   2248   2267     1  0.0000000  0.0000000  3
   2258   2247   2248   2267     1  0.0000000  0.6508444  3
   2261   2258   2263   2264     1  0.0000000  0.6973333  3
   2261   2258   2247   2265     1  0.0000000  1.0460000  1
   2261   2258   2247   2265     1  0.0000000  0.0000000  3
   2262   2258   2263   2264     1  0.0000000  0.6973333  3
   2262   2258   2247   2265     1  0.0000000  1.0460000  1
   2262   2258   2247   2265     1  0.0000000  0.0000000  3
   2265   2252   2256   2266     1  0.0000000  0.6973333  3
   2265   2247   2248   2267     1  0.0000000  1.0460000  1
   2265   2247   2248   2267     1  0.0000000  0.0000000  3
   2267   2248   2268   2269     1  0.0000000  0.6973333  3
   2271   2273   2275   2277     1  0.0000000  0.6508444  3
   2271   2273   2275   2278     1  0.0000000  0.6508444  3
   2272   2271   2273   2275     1  0.0000000  0.0000000  2
   2272   2271   2273   2274     1  0.0000000  0.0000000  2
   2272   2271   2273   2276     1  0.0000000  0.0000000  2
   2274   2273   2275   2279     1  0.0000000  0.6508444  3
   2274   2273   2275   2277     1  0.0000000  0.6508444  3
   2274   2273   2275   2278     1  0.0000000  0.6508444  3
   2275   2279   2280   2289     1  0.0000000  1.2552000  3
   2275   2279   2280   2290     1  0.0000000  1.2552000  3
   2275   2279   2281   2282     1  0.0000000  1.2552000  3
   2275   2279   2281   2284     1  0.0000000  1.2552000  3
   2276   2273   2275   2279     1  0.0000000  0.6508444  3
   2276   2273   2275   2277     1  0.0000000  0.6508444  3
   2276   2273   2275   2278     1  0.0000000  0.6508444  3
   2277   2275   2279   2280     1  0.0000000  1.2552000  3
   2277   2275   2279   2281     1  0.0000000  1.2552000  3
   2278   2275   2279   2280     1  0.0000000  1.2552000  3
   2278   2275   2279   2281     1  0.0000000  1.2552000  3
   2279   2280   2291   2292     1  0.0000000  0.6508444  3
   2279   2280   2291   2293     1  0.0000000  0.6508444  3
   2279   2281   2283   2285     1  0.0000000  0.6508444  3
   2279   2281   2283   2286     1  0.0000000  0.6508444  3
   2280   2279   2281   2282     1  0.0000000  1.2552000  3
   2280   2279   2281   2284     1  0.0000000  1.2552000  3
   2281   2279   2280   2289     1  0.0000000  1.2552000  3
   2281   2279   2280   2290     1  0.0000000  1.2552000  3
   2282   2281   2283   2287     1  0.0000000  0.6508444  3
   2282   2281   2283   2285     1  0.0000000  0.6508444  3
   2282   2281   2283   2286     1  0.0000000  0.6508444  3
   2283   2287   2319   2309     1  180.0000771  6.0668000  2
   2283   2287   2319   2309     1  180.0000771  1.4644000  4
   2284   2281   2283   2287     1  0.0000000  0.6508444  3
   2284   2281   2283   2285     1  0.0000000  0.6508444  3
   2284   2281   2283   2286     1  0.0000000  0.6508444  3
   2285   2283   2287   2288     1  0.0000000  3.3472000  1
   2285   2283   2287   2288     1  0.0000000  0.0000000  2
   2285   2283   2287   2288     1  180.0000771  0.3347200  3
   2285   2283   2287   2319     1  180.0000771  0.0000000  2
   2286   2283   2287   2288     1  0.0000000  3.3472000  1
   2286   2283   2287   2288     1  0.0000000  0.0000000  2
   2286   2283   2287   2288     1  180.0000771  0.3347200  3
   2286   2283   2287   2319     1  180.0000771  0.0000000  2
   2287   2319   2300   2302     1  0.0000000  1.2552000  3
   2288   2287   2319   2309     1  180.0000771  6.0668000  2
   2288   2287   2319   2309     1  180.0000771  1.4644000  4
   2289   2280   2291   2294     1  0.0000000  0.6508444  3
   2289   2280   2291   2292     1  0.0000000  0.6508444  3
   2289   2280   2291   2293     1  0.0000000  0.6508444  3
   2290   2280   2291   2294     1  0.0000000  0.6508444  3
   2290   2280   2291   2292     1  0.0000000  0.6508444  3
   2290   2280   2291   2293     1  0.0000000  0.6508444  3
   2291   2294   2343   2333     1  180.0000771  6.0668000  2
   2291   2294   2343   2333     1  180.0000771  1.4644000  4
   2292   2291   2294   2295     1  0.0000000  3.3472000  1
   2292   2291   2294   2295     1  0.0000000  0.0000000  2
   2292   2291   2294   2295     1  180.0000771  0.3347200  3
   2292   2291   2294   2343     1  180.0000771  0.0000000  2
   2293   2291   2294   2295     1  0.0000000  3.3472000  1
   2293   2291   2294   2295     1  0.0000000  0.0000000  2
   2293   2291   2294   2295     1  180.0000771  0.3347200  3
   2293   2291   2294   2343     1  180.0000771  0.0000000  2
   2294   2343   2324   2326     1  0.0000000  1.2552000  3
   2295   2294   2343   2333     1  180.0000771  6.0668000  2
   2295   2294   2343   2333     1  180.0000771  1.4644000  4
   2296   2297   2299   2303     1  0.0000000  0.6508444  3
   2296   2297   2317   2318     1  0.0000000  1.0460000  1
   2296   2297   2317   2318     1  0.0000000  0.6694400  3
   2296   2307   2312   2313     1  0.0000000  1.0460000  1
   2296   2307   2312   2313     1  0.0000000  0.6694400  3
   2296   2314   2301   2304     1  0.0000000  1.6038667  3
   2297   2296   2307   2310     1  0.0000000  0.6508444  3
   2297   2296   2307   2311     1  0.0000000  0.6508444  3
   2297   2299   2300   2302     1  0.0000000  0.6508444  3
   2297   2299   2306   2308     1  0.0000000  1.0460000  1
   2297   2299   2306   2308     1  0.0000000  0.6694400  3
   2298   2296   2297   2299     1  0.0000000  0.6508444  3
   2298   2296   2297   2317     1  0.0000000  1.0460000  1
   2298   2296   2297   2317     1  0.0000000  0.0000000  3
   2298   2296   2297   2316     1  0.0000000  0.6508444  3
   2298   2296   2307   2312     1  0.0000000  1.0460000  1
   2298   2296   2307   2312     1  0.0000000  0.0000000  3
   2298   2296   2307   2310     1  0.0000000  0.6508444  3
   2298   2296   2307   2311     1  0.0000000  0.6508444  3
   2298   2296   2314   2301     1  0.0000000  1.6038667  3
   2299   2297   2317   2318     1  0.0000000  1.0460000  1
   2299   2297   2317   2318     1  0.0000000  0.6694400  3
   2299   2300   2301   2304     1  0.0000000  0.6508444  3
   2299   2300   2319   2309     1  0.0000000  1.2552000  3
   2300   2299   2297   2316     1  0.0000000  0.6508444  3
   2300   2299   2306   2308     1  0.0000000  1.0460000  1
   2300   2299   2306   2308     1  0.0000000  0.6694400  3
   2300   2301   2305   2315     1  0.0000000  1.0460000  1
   2300   2301   2305   2315     1  0.0000000  0.6694400  3
   2301   2300   2299   2303     1  0.0000000  0.6508444  3
   2301   2300   2319   2309     1  0.0000000  1.2552000  3
   2302   2300   2299   2306     1  0.0000000  1.0460000  1
   2302   2300   2299   2306     1  0.0000000  0.0000000  3
   2302   2300   2299   2303     1  0.0000000  0.6508444  3
   2302   2300   2301   2305     1  0.0000000  1.0460000  1
   2302   2300   2301   2305     1  0.0000000  0.0000000  3
   2302   2300   2301   2314     1  0.0000000  1.0460000  1
   2302   2300   2301   2314     1  0.0000000  0.0000000  3
   2302   2300   2301   2304     1  0.0000000  0.6508444  3
   2302   2300   2319   2309     1  0.0000000  1.2552000  3
   2303   2299   2297   2317     1  0.0000000  1.0460000  1
   2303   2299   2297   2317     1  0.0000000  0.0000000  3
   2303   2299   2297   2316     1  0.0000000  0.6508444  3
   2303   2299   2300   2319     1  0.0000000  0.6508444  3
   2303   2299   2306   2308     1  0.0000000  0.6973333  3
   2304   2301   2300   2319     1  0.0000000  0.6508444  3
   2304   2301   2305   2315     1  0.0000000  0.6973333  3
   2306   2299   2297   2316     1  0.0000000  1.0460000  1
   2306   2299   2297   2316     1  0.0000000  0.0000000  3
   2307   2296   2297   2316     1  0.0000000  0.6508444  3
   2310   2307   2296   2314     1  0.0000000  1.0460000  1
   2310   2307   2296   2314     1  0.0000000  0.0000000  3
   2310   2307   2312   2313     1  0.0000000  0.6973333  3
   2311   2307   2296   2314     1  0.0000000  1.0460000  1
   2311   2307   2296   2314     1  0.0000000  0.0000000  3
   2311   2307   2312   2313     1  0.0000000  0.6973333  3
   2314   2296   2297   2316     1  0.0000000  1.0460000  1
   2314   2296   2297   2316     1  0.0000000  0.0000000  3
   2314   2301   2305   2315     1  0.0000000  0.6973333  3
   2316   2297   2317   2318     1  0.0000000  0.6973333  3
   2320   2321   2323   2327     1  0.0000000  0.6508444  3
   2320   2321   2341   2342     1  0.0000000  1.0460000  1
   2320   2321   2341   2342     1  0.0000000  0.6694400  3
   2320   2331   2336   2337     1  0.0000000  1.0460000  1
   2320   2331   2336   2337     1  0.0000000  0.6694400  3
   2320   2338   2325   2328     1  0.0000000  1.6038667  3
   2321   2320   2331   2334     1  0.0000000  0.6508444  3
   2321   2320   2331   2335     1  0.0000000  0.6508444  3
   2321   2323   2324   2326     1  0.0000000  0.6508444  3
   2321   2323   2330   2332     1  0.0000000  1.0460000  1
   2321   2323   2330   2332     1  0.0000000  0.6694400  3
   2322   2320   2321   2323     1  0.0000000  0.6508444  3
   2322   2320   2321   2341     1  0.0000000  1.0460000  1
   2322   2320   2321   2341     1  0.0000000  0.0000000  3
   2322   2320   2321   2340     1  0.0000000  0.6508444  3
   2322   2320   2331   2336     1  0.0000000  1.0460000  1
   2322   2320   2331   2336     1  0.0000000  0.0000000  3
   2322   2320   2331   2334     1  0.0000000  0.6508444  3
   2322   2320   2331   2335     1  0.0000000  0.6508444  3
   2322   2320   2338   2325     1  0.0000000  1.6038667  3
   2323   2321   2341   2342     1  0.0000000  1.0460000  1
   2323   2321   2341   2342     1  0.0000000  0.6694400  3
   2323   2324   2325   2328     1  0.0000000  0.6508444  3
   2323   2324   2343   2333     1  0.0000000  1.2552000  3
   2324   2323   2321   2340     1  0.0000000  0.6508444  3
   2324   2323   2330   2332     1  0.0000000  1.0460000  1
   2324   2323   2330   2332     1  0.0000000  0.6694400  3
   2324   2325   2329   2339     1  0.0000000  1.0460000  1
   2324   2325   2329   2339     1  0.0000000  0.6694400  3
   2325   2324   2323   2327     1  0.0000000  0.6508444  3
   2325   2324   2343   2333     1  0.0000000  1.2552000  3
   2326   2324   2323   2330     1  0.0000000  1.0460000  1
   2326   2324   2323   2330     1  0.0000000  0.0000000  3
   2326   2324   2323   2327     1  0.0000000  0.6508444  3
   2326   2324   2325   2329     1  0.0000000  1.0460000  1
   2326   2324   2325   2329     1  0.0000000  0.0000000  3
   2326   2324   2325   2338     1  0.0000000  1.0460000  1
   2326   2324   2325   2338     1  0.0000000  0.0000000  3
   2326   2324   2325   2328     1  0.0000000  0.6508444  3
   2326   2324   2343   2333     1  0.0000000  1.2552000  3
   2327   2323   2321   2341     1  0.0000000  1.0460000  1
   2327   2323   2321   2341     1  0.0000000  0.0000000  3
   2327   2323   2321   2340     1  0.0000000  0.6508444  3
   2327   2323   2324   2343     1  0.0000000  0.6508444  3
   2327   2323   2330   2332     1  0.0000000  0.6973333  3
   2328   2325   2324   2343     1  0.0000000  0.6508444  3
   2328   2325   2329   2339     1  0.0000000  0.6973333  3
   2330   2323   2321   2340     1  0.0000000  1.0460000  1
   2330   2323   2321   2340     1  0.0000000  0.0000000  3
   2331   2320   2321   2340     1  0.0000000  0.6508444  3
   2334   2331   2320   2338     1  0.0000000  1.0460000  1
   2334   2331   2320   2338     1  0.0000000  0.0000000  3
   2334   2331   2336   2337     1  0.0000000  0.6973333  3
   2335   2331   2320   2338     1  0.0000000  1.0460000  1
   2335   2331   2320   2338     1  0.0000000  0.0000000  3
   2335   2331   2336   2337     1  0.0000000  0.6973333  3
   2338   2320   2321   2340     1  0.0000000  1.0460000  1
   2338   2320   2321   2340     1  0.0000000  0.0000000  3
   2338   2325   2329   2339     1  0.0000000  0.6973333  3
   2340   2321   2341   2342     1  0.0000000  0.6973333  3
   2344   2346   2348   2350     1  0.0000000  0.6508444  3
   2344   2346   2348   2351     1  0.0000000  0.6508444  3
   2345   2344   2346   2348     1  0.0000000  0.0000000  2
   2345   2344   2346   2347     1  0.0000000  0.0000000  2
   2345   2344   2346   2349     1  0.0000000  0.0000000  2
   2347   2346   2348   2352     1  0.0000000  0.6508444  3
   2347   2346   2348   2350     1  0.0000000  0.6508444  3
   2347   2346   2348   2351     1  0.0000000  0.6508444  3
   2348   2352   2353   2362     1  0.0000000  1.2552000  3
   2348   2352   2353   2363     1  0.0000000  1.2552000  3
   2348   2352   2354   2355     1  0.0000000  1.2552000  3
   2348   2352   2354   2357     1  0.0000000  1.2552000  3
   2349   2346   2348   2352     1  0.0000000  0.6508444  3
   2349   2346   2348   2350     1  0.0000000  0.6508444  3
   2349   2346   2348   2351     1  0.0000000  0.6508444  3
   2350   2348   2352   2353     1  0.0000000  1.2552000  3
   2350   2348   2352   2354     1  0.0000000  1.2552000  3
   2351   2348   2352   2353     1  0.0000000  1.2552000  3
   2351   2348   2352   2354     1  0.0000000  1.2552000  3
   2352   2353   2364   2365     1  0.0000000  0.6508444  3
   2352   2353   2364   2366     1  0.0000000  0.6508444  3
   2352   2354   2356   2358     1  0.0000000  0.6508444  3
   2352   2354   2356   2359     1  0.0000000  0.6508444  3
   2353   2352   2354   2355     1  0.0000000  1.2552000  3
   2353   2352   2354   2357     1  0.0000000  1.2552000  3
   2354   2352   2353   2362     1  0.0000000  1.2552000  3
   2354   2352   2353   2363     1  0.0000000  1.2552000  3
   2355   2354   2356   2360     1  0.0000000  0.6508444  3
   2355   2354   2356   2358     1  0.0000000  0.6508444  3
   2355   2354   2356   2359     1  0.0000000  0.6508444  3
   2356   2360   2392   2382     1  180.0000771  6.0668000  2
   2356   2360   2392   2382     1  180.0000771  1.4644000  4
   2357   2354   2356   2360     1  0.0000000  0.6508444  3
   2357   2354   2356   2358     1  0.0000000  0.6508444  3
   2357   2354   2356   2359     1  0.0000000  0.6508444  3
   2358   2356   2360   2361     1  0.0000000  3.3472000  1
   2358   2356   2360   2361     1  0.0000000  0.0000000  2
   2358   2356   2360   2361     1  180.0000771  0.3347200  3
   2358   2356   2360   2392     1  180.0000771  0.0000000  2
   2359   2356   2360   2361     1  0.0000000  3.3472000  1
   2359   2356   2360   2361     1  0.0000000  0.0000000  2
   2359   2356   2360   2361     1  180.0000771  0.3347200  3
   2359   2356   2360   2392     1  180.0000771  0.0000000  2
   2360   2392   2373   2375     1  0.0000000  1.2552000  3
   2361   2360   2392   2382     1  180.0000771  6.0668000  2
   2361   2360   2392   2382     1  180.0000771  1.4644000  4
   2362   2353   2364   2367     1  0.0000000  0.6508444  3
   2362   2353   2364   2365     1  0.0000000  0.6508444  3
   2362   2353   2364   2366     1  0.0000000  0.6508444  3
   2363   2353   2364   2367     1  0.0000000  0.6508444  3
   2363   2353   2364   2365     1  0.0000000  0.6508444  3
   2363   2353   2364   2366     1  0.0000000  0.6508444  3
   2364   2367   2416   2406     1  180.0000771  6.0668000  2
   2364   2367   2416   2406     1  180.0000771  1.4644000  4
   2365   2364   2367   2368     1  0.0000000  3.3472000  1
   2365   2364   2367   2368     1  0.0000000  0.0000000  2
   2365   2364   2367   2368     1  180.0000771  0.3347200  3
   2365   2364   2367   2416     1  180.0000771  0.0000000  2
   2366   2364   2367   2368     1  0.0000000  3.3472000  1
   2366   2364   2367   2368     1  0.0000000  0.0000000  2
   2366   2364   2367   2368     1  180.0000771  0.3347200  3
   2366   2364   2367   2416     1  180.0000771  0.0000000  2
   2367   2416   2397   2399     1  0.0000000  1.2552000  3
   2368   2367   2416   2406     1  180.0000771  6.0668000  2
   2368   2367   2416   2406     1  180.0000771  1.4644000  4
   2369   2370   2372   2376     1  0.0000000  0.6508444  3
   2369   2370   2390   2391     1  0.0000000  1.0460000  1
   2369   2370   2390   2391     1  0.0000000  0.6694400  3
   2369   2380   2385   2386     1  0.0000000  1.0460000  1
   2369   2380   2385   2386     1  0.0000000  0.6694400  3
   2369   2387   2374   2377     1  0.0000000  1.6038667  3
   2370   2372   2373   2375     1  0.0000000  0.6508444  3
   2370   2372   2379   2381     1  0.0000000  1.0460000  1
   2370   2372   2379   2381     1  0.0000000  0.6694400  3
   2370   2369   2380   2383     1  0.0000000  0.6508444  3
   2370   2369   2380   2384     1  0.0000000  0.6508444  3
   2371   2369   2370   2372     1  0.0000000  0.6508444  3
   2371   2369   2370   2390     1  0.0000000  1.0460000  1
   2371   2369   2370   2390     1  0.0000000  0.0000000  3
   2371   2369   2370   2389     1  0.0000000  0.6508444  3
   2371   2369   2380   2385     1  0.0000000  1.0460000  1
   2371   2369   2380   2385     1  0.0000000  0.0000000  3
   2371   2369   2380   2383     1  0.0000000  0.6508444  3
   2371   2369   2380   2384     1  0.0000000  0.6508444  3
   2371   2369   2387   2374     1  0.0000000  1.6038667  3
   2372   2373   2374   2377     1  0.0000000  0.6508444  3
   2372   2373   2392   2382     1  0.0000000  1.2552000  3
   2372   2370   2390   2391     1  0.0000000  1.0460000  1
   2372   2370   2390   2391     1  0.0000000  0.6694400  3
   2373   2374   2378   2388     1  0.0000000  1.0460000  1
   2373   2374   2378   2388     1  0.0000000  0.6694400  3
   2373   2372   2379   2381     1  0.0000000  1.0460000  1
   2373   2372   2379   2381     1  0.0000000  0.6694400  3
   2373   2372   2370   2389     1  0.0000000  0.6508444  3
   2374   2373   2392   2382     1  0.0000000  1.2552000  3
   2374   2373   2372   2376     1  0.0000000  0.6508444  3
   2375   2373   2374   2378     1  0.0000000  1.0460000  1
   2375   2373   2374   2378     1  0.0000000  0.0000000  3
   2375   2373   2374   2387     1  0.0000000  1.0460000  1
   2375   2373   2374   2387     1  0.0000000  0.0000000  3
   2375   2373   2374   2377     1  0.0000000  0.6508444  3
   2375   2373   2392   2382     1  0.0000000  1.2552000  3
   2375   2373   2372   2379     1  0.0000000  1.0460000  1
   2375   2373   2372   2379     1  0.0000000  0.0000000  3
   2375   2373   2372   2376     1  0.0000000  0.6508444  3
   2376   2372   2373   2392     1  0.0000000  0.6508444  3
   2376   2372   2379   2381     1  0.0000000  0.6973333  3
   2376   2372   2370   2390     1  0.0000000  1.0460000  1
   2376   2372   2370   2390     1  0.0000000  0.0000000  3
   2376   2372   2370   2389     1  0.0000000  0.6508444  3
   2377   2374   2378   2388     1  0.0000000  0.6973333  3
   2377   2374   2373   2392     1  0.0000000  0.6508444  3
   2379   2372   2370   2389     1  0.0000000  1.0460000  1
   2379   2372   2370   2389     1  0.0000000  0.0000000  3
   2380   2369   2370   2389     1  0.0000000  0.6508444  3
   2383   2380   2385   2386     1  0.0000000  0.6973333  3
   2383   2380   2369   2387     1  0.0000000  1.0460000  1
   2383   2380   2369   2387     1  0.0000000  0.0000000  3
   2384   2380   2385   2386     1  0.0000000  0.6973333  3
   2384   2380   2369   2387     1  0.0000000  1.0460000  1
   2384   2380   2369   2387     1  0.0000000  0.0000000  3
   2387   2374   2378   2388     1  0.0000000  0.6973333  3
   2387   2369   2370   2389     1  0.0000000  1.0460000  1
   2387   2369   2370   2389     1  0.0000000  0.0000000  3
   2389   2370   2390   2391     1  0.0000000  0.6973333  3
   2393   2394   2396   2400     1  0.0000000  0.6508444  3
   2393   2394   2414   2415     1  0.0000000  1.0460000  1
   2393   2394   2414   2415     1  0.0000000  0.6694400  3
   2393   2404   2409   2410     1  0.0000000  1.0460000  1
   2393   2404   2409   2410     1  0.0000000  0.6694400  3
   2393   2411   2398   2401     1  0.0000000  1.6038667  3
   2394   2396   2397   2399     1  0.0000000  0.6508444  3
   2394   2396   2403   2405     1  0.0000000  1.0460000  1
   2394   2396   2403   2405     1  0.0000000  0.6694400  3
   2394   2393   2404   2407     1  0.0000000  0.6508444  3
   2394   2393   2404   2408     1  0.0000000  0.6508444  3
   2395   2393   2394   2396     1  0.0000000  0.6508444  3
   2395   2393   2394   2414     1  0.0000000  1.0460000  1
   2395   2393   2394   2414     1  0.0000000  0.0000000  3
   2395   2393   2394   2413     1  0.0000000  0.6508444  3
   2395   2393   2404   2409     1  0.0000000  1.0460000  1
   2395   2393   2404   2409     1  0.0000000  0.0000000  3
   2395   2393   2404   2407     1  0.0000000  0.6508444  3
   2395   2393   2404   2408     1  0.0000000  0.6508444  3
   2395   2393   2411   2398     1  0.0000000  1.6038667  3
   2396   2397   2398   2401     1  0.0000000  0.6508444  3
   2396   2397   2416   2406     1  0.0000000  1.2552000  3
   2396   2394   2414   2415     1  0.0000000  1.0460000  1
   2396   2394   2414   2415     1  0.0000000  0.6694400  3
   2397   2398   2402   2412     1  0.0000000  1.0460000  1
   2397   2398   2402   2412     1  0.0000000  0.6694400  3
   2397   2396   2403   2405     1  0.0000000  1.0460000  1
   2397   2396   2403   2405     1  0.0000000  0.6694400  3
   2397   2396   2394   2413     1  0.0000000  0.6508444  3
   2398   2397   2416   2406     1  0.0000000  1.2552000  3
   2398   2397   2396   2400     1  0.0000000  0.6508444  3
   2399   2397   2398   2402     1  0.0000000  1.0460000  1
   2399   2397   2398   2402     1  0.0000000  0.0000000  3
   2399   2397   2398   2411     1  0.0000000  1.0460000  1
   2399   2397   2398   2411     1  0.0000000  0.0000000  3
   2399   2397   2398   2401     1  0.0000000  0.6508444  3
   2399   2397   2416   2406     1  0.0000000  1.2552000  3
   2399   2397   2396   2403     1  0.0000000  1.0460000  1
   2399   2397   2396   2403     1  0.0000000  0.0000000  3
   2399   2397   2396   2400     1  0.0000000  0.6508444  3
   2400   2396   2397   2416     1  0.0000000  0.6508444  3
   2400   2396   2403   2405     1  0.0000000  0.6973333  3
   2400   2396   2394   2414     1  0.0000000  1.0460000  1
   2400   2396   2394   2414     1  0.0000000  0.0000000  3
   2400   2396   2394   2413     1  0.0000000  0.6508444  3
   2401   2398   2402   2412     1  0.0000000  0.6973333  3
   2401   2398   2397   2416     1  0.0000000  0.6508444  3
   2403   2396   2394   2413     1  0.0000000  1.0460000  1
   2403   2396   2394   2413     1  0.0000000  0.0000000  3
   2404   2393   2394   2413     1  0.0000000  0.6508444  3
   2407   2404   2409   2410     1  0.0000000  0.6973333  3
   2407   2404   2393   2411     1  0.0000000  1.0460000  1
   2407   2404   2393   2411     1  0.0000000  0.0000000  3
   2408   2404   2409   2410     1  0.0000000  0.6973333  3
   2408   2404   2393   2411     1  0.0000000  1.0460000  1
   2408   2404   2393   2411     1  0.0000000  0.0000000  3
   2411   2398   2402   2412     1  0.0000000  0.6973333  3
   2411   2393   2394   2413     1  0.0000000  1.0460000  1
   2411   2393   2394   2413     1  0.0000000  0.0000000  3
   2413   2394   2414   2415     1  0.0000000  0.6973333  3
   2417   2419   2421   2423     1  0.0000000  0.6508444  3
   2417   2419   2421   2424     1  0.0000000  0.6508444  3
   2418   2417   2419   2421     1  0.0000000  0.0000000  2
   2418   2417   2419   2420     1  0.0000000  0.0000000  2
   2418   2417   2419   2422     1  0.0000000  0.0000000  2
   2420   2419   2421   2425     1  0.0000000  0.6508444  3
   2420   2419   2421   2423     1  0.0000000  0.6508444  3
   2420   2419   2421   2424     1  0.0000000  0.6508444  3
   2421   2425   2426   2435     1  0.0000000  1.2552000  3
   2421   2425   2426   2436     1  0.0000000  1.2552000  3
   2421   2425   2427   2428     1  0.0000000  1.2552000  3
   2421   2425   2427   2430     1  0.0000000  1.2552000  3
   2422   2419   2421   2425     1  0.0000000  0.6508444  3
   2422   2419   2421   2423     1  0.0000000  0.6508444  3
   2422   2419   2421   2424     1  0.0000000  0.6508444  3
   2423   2421   2425   2426     1  0.0000000  1.2552000  3
   2423   2421   2425   2427     1  0.0000000  1.2552000  3
   2424   2421   2425   2426     1  0.0000000  1.2552000  3
   2424   2421   2425   2427     1  0.0000000  1.2552000  3
   2425   2426   2437   2438     1  0.0000000  0.6508444  3
   2425   2426   2437   2439     1  0.0000000  0.6508444  3
   2425   2427   2429   2431     1  0.0000000  0.6508444  3
   2425   2427   2429   2432     1  0.0000000  0.6508444  3
   2426   2425   2427   2428     1  0.0000000  1.2552000  3
   2426   2425   2427   2430     1  0.0000000  1.2552000  3
   2427   2425   2426   2435     1  0.0000000  1.2552000  3
   2427   2425   2426   2436     1  0.0000000  1.2552000  3
   2428   2427   2429   2433     1  0.0000000  0.6508444  3
   2428   2427   2429   2431     1  0.0000000  0.6508444  3
   2428   2427   2429   2432     1  0.0000000  0.6508444  3
   2429   2433   2465   2455     1  180.0000771  6.0668000  2
   2429   2433   2465   2455     1  180.0000771  1.4644000  4
   2430   2427   2429   2433     1  0.0000000  0.6508444  3
   2430   2427   2429   2431     1  0.0000000  0.6508444  3
   2430   2427   2429   2432     1  0.0000000  0.6508444  3
   2431   2429   2433   2434     1  0.0000000  3.3472000  1
   2431   2429   2433   2434     1  0.0000000  0.0000000  2
   2431   2429   2433   2434     1  180.0000771  0.3347200  3
   2431   2429   2433   2465     1  180.0000771  0.0000000  2
   2432   2429   2433   2434     1  0.0000000  3.3472000  1
   2432   2429   2433   2434     1  0.0000000  0.0000000  2
   2432   2429   2433   2434     1  180.0000771  0.3347200  3
   2432   2429   2433   2465     1  180.0000771  0.0000000  2
   2433   2465   2446   2448     1  0.0000000  1.2552000  3
   2434   2433   2465   2455     1  180.0000771  6.0668000  2
   2434   2433   2465   2455     1  180.0000771  1.4644000  4
   2435   2426   2437   2440     1  0.0000000  0.6508444  3
   2435   2426   2437   2438     1  0.0000000  0.6508444  3
   2435   2426   2437   2439     1  0.0000000  0.6508444  3
   2436   2426   2437   2440     1  0.0000000  0.6508444  3
   2436   2426   2437   2438     1  0.0000000  0.6508444  3
   2436   2426   2437   2439     1  0.0000000  0.6508444  3
   2437   2440   2489   2479     1  180.0000771  6.0668000  2
   2437   2440   2489   2479     1  180.0000771  1.4644000  4
   2438   2437   2440   2441     1  0.0000000  3.3472000  1
   2438   2437   2440   2441     1  0.0000000  0.0000000  2
   2438   2437   2440   2441     1  180.0000771  0.3347200  3
   2438   2437   2440   2489     1  180.0000771  0.0000000  2
   2439   2437   2440   2441     1  0.0000000  3.3472000  1
   2439   2437   2440   2441     1  0.0000000  0.0000000  2
   2439   2437   2440   2441     1  180.0000771  0.3347200  3
   2439   2437   2440   2489     1  180.0000771  0.0000000  2
   2440   2489   2470   2472     1  0.0000000  1.2552000  3
   2441   2440   2489   2479     1  180.0000771  6.0668000  2
   2441   2440   2489   2479     1  180.0000771  1.4644000  4
   2442   2443   2445   2449     1  0.0000000  0.6508444  3
   2442   2443   2463   2464     1  0.0000000  1.0460000  1
   2442   2443   2463   2464     1  0.0000000  0.6694400  3
   2442   2453   2458   2459     1  0.0000000  1.0460000  1
   2442   2453   2458   2459     1  0.0000000  0.6694400  3
   2442   2460   2447   2450     1  0.0000000  1.6038667  3
   2443   2442   2453   2456     1  0.0000000  0.6508444  3
   2443   2442   2453   2457     1  0.0000000  0.6508444  3
   2443   2445   2446   2448     1  0.0000000  0.6508444  3
   2443   2445   2452   2454     1  0.0000000  1.0460000  1
   2443   2445   2452   2454     1  0.0000000  0.6694400  3
   2444   2442   2443   2445     1  0.0000000  0.6508444  3
   2444   2442   2443   2463     1  0.0000000  1.0460000  1
   2444   2442   2443   2463     1  0.0000000  0.0000000  3
   2444   2442   2443   2462     1  0.0000000  0.6508444  3
   2444   2442   2453   2458     1  0.0000000  1.0460000  1
   2444   2442   2453   2458     1  0.0000000  0.0000000  3
   2444   2442   2453   2456     1  0.0000000  0.6508444  3
   2444   2442   2453   2457     1  0.0000000  0.6508444  3
   2444   2442   2460   2447     1  0.0000000  1.6038667  3
   2445   2443   2463   2464     1  0.0000000  1.0460000  1
   2445   2443   2463   2464     1  0.0000000  0.6694400  3
   2445   2446   2447   2450     1  0.0000000  0.6508444  3
   2445   2446   2465   2455     1  0.0000000  1.2552000  3
   2446   2445   2443   2462     1  0.0000000  0.6508444  3
   2446   2445   2452   2454     1  0.0000000  1.0460000  1
   2446   2445   2452   2454     1  0.0000000  0.6694400  3
   2446   2447   2451   2461     1  0.0000000  1.0460000  1
   2446   2447   2451   2461     1  0.0000000  0.6694400  3
   2447   2446   2445   2449     1  0.0000000  0.6508444  3
   2447   2446   2465   2455     1  0.0000000  1.2552000  3
   2448   2446   2445   2452     1  0.0000000  1.0460000  1
   2448   2446   2445   2452     1  0.0000000  0.0000000  3
   2448   2446   2445   2449     1  0.0000000  0.6508444  3
   2448   2446   2447   2451     1  0.0000000  1.0460000  1
   2448   2446   2447   2451     1  0.0000000  0.0000000  3
   2448   2446   2447   2460     1  0.0000000  1.0460000  1
   2448   2446   2447   2460     1  0.0000000  0.0000000  3
   2448   2446   2447   2450     1  0.0000000  0.6508444  3
   2448   2446   2465   2455     1  0.0000000  1.2552000  3
   2449   2445   2443   2463     1  0.0000000  1.0460000  1
   2449   2445   2443   2463     1  0.0000000  0.0000000  3
   2449   2445   2443   2462     1  0.0000000  0.6508444  3
   2449   2445   2446   2465     1  0.0000000  0.6508444  3
   2449   2445   2452   2454     1  0.0000000  0.6973333  3
   2450   2447   2446   2465     1  0.0000000  0.6508444  3
   2450   2447   2451   2461     1  0.0000000  0.6973333  3
   2452   2445   2443   2462     1  0.0000000  1.0460000  1
   2452   2445   2443   2462     1  0.0000000  0.0000000  3
   2453   2442   2443   2462     1  0.0000000  0.6508444  3
   2456   2453   2442   2460     1  0.0000000  1.0460000  1
   2456   2453   2442   2460     1  0.0000000  0.0000000  3
   2456   2453   2458   2459     1  0.0000000  0.6973333  3
   2457   2453   2442   2460     1  0.0000000  1.0460000  1
   2457   2453   2442   2460     1  0.0000000  0.0000000  3
   2457   2453   2458   2459     1  0.0000000  0.6973333  3
   2460   2442   2443   2462     1  0.0000000  1.0460000  1
   2460   2442   2443   2462     1  0.0000000  0.0000000  3
   2460   2447   2451   2461     1  0.0000000  0.6973333  3
   2462   2443   2463   2464     1  0.0000000  0.6973333  3
   2466   2467   2469   2473     1  0.0000000  0.6508444  3
   2466   2467   2487   2488     1  0.0000000  1.0460000  1
   2466   2467   2487   2488     1  0.0000000  0.6694400  3
   2466   2477   2482   2483     1  0.0000000  1.0460000  1
   2466   2477   2482   2483     1  0.0000000  0.6694400  3
   2466   2484   2471   2474     1  0.0000000  1.6038667  3
   2467   2466   2477   2480     1  0.0000000  0.6508444  3
   2467   2466   2477   2481     1  0.0000000  0.6508444  3
   2467   2469   2470   2472     1  0.0000000  0.6508444  3
   2467   2469   2476   2478     1  0.0000000  1.0460000  1
   2467   2469   2476   2478     1  0.0000000  0.6694400  3
   2468   2466   2467   2469     1  0.0000000  0.6508444  3
   2468   2466   2467   2487     1  0.0000000  1.0460000  1
   2468   2466   2467   2487     1  0.0000000  0.0000000  3
   2468   2466   2467   2486     1  0.0000000  0.6508444  3
   2468   2466   2477   2482     1  0.0000000  1.0460000  1
   2468   2466   2477   2482     1  0.0000000  0.0000000  3
   2468   2466   2477   2480     1  0.0000000  0.6508444  3
   2468   2466   2477   2481     1  0.0000000  0.6508444  3
   2468   2466   2484   2471     1  0.0000000  1.6038667  3
   2469   2467   2487   2488     1  0.0000000  1.0460000  1
   2469   2467   2487   2488     1  0.0000000  0.6694400  3
   2469   2470   2471   2474     1  0.0000000  0.6508444  3
   2469   2470   2489   2479     1  0.0000000  1.2552000  3
   2470   2469   2467   2486     1  0.0000000  0.6508444  3
   2470   2469   2476   2478     1  0.0000000  1.0460000  1
   2470   2469   2476   2478     1  0.0000000  0.6694400  3
   2470   2471   2475   2485     1  0.0000000  1.0460000  1
   2470   2471   2475   2485     1  0.0000000  0.6694400  3
   2471   2470   2469   2473     1  0.0000000  0.6508444  3
   2471   2470   2489   2479     1  0.0000000  1.2552000  3
   2472   2470   2469   2476     1  0.0000000  1.0460000  1
   2472   2470   2469   2476     1  0.0000000  0.0000000  3
   2472   2470   2469   2473     1  0.0000000  0.6508444  3
   2472   2470   2471   2475     1  0.0000000  1.0460000  1
   2472   2470   2471   2475     1  0.0000000  0.0000000  3
   2472   2470   2471   2484     1  0.0000000  1.0460000  1
   2472   2470   2471   2484     1  0.0000000  0.0000000  3
   2472   2470   2471   2474     1  0.0000000  0.6508444  3
   2472   2470   2489   2479     1  0.0000000  1.2552000  3
   2473   2469   2467   2487     1  0.0000000  1.0460000  1
   2473   2469   2467   2487     1  0.0000000  0.0000000  3
   2473   2469   2467   2486     1  0.0000000  0.6508444  3
   2473   2469   2470   2489     1  0.0000000  0.6508444  3
   2473   2469   2476   2478     1  0.0000000  0.6973333  3
   2474   2471   2470   2489     1  0.0000000  0.6508444  3
   2474   2471   2475   2485     1  0.0000000  0.6973333  3
   2476   2469   2467   2486     1  0.0000000  1.0460000  1
   2476   2469   2467   2486     1  0.0000000  0.0000000  3
   2477   2466   2467   2486     1  0.0000000  0.6508444  3
   2480   2477   2466   2484     1  0.0000000  1.0460000  1
   2480   2477   2466   2484     1  0.0000000  0.0000000  3
   2480   2477   2482   2483     1  0.0000000  0.6973333  3
   2481   2477   2466   2484     1  0.0000000  1.0460000  1
   2481   2477   2466   2484     1  0.0000000  0.0000000  3
   2481   2477   2482   2483     1  0.0000000  0.6973333  3
   2484   2466   2467   2486     1  0.0000000  1.0460000  1
   2484   2466   2467   2486     1  0.0000000  0.0000000  3
   2484   2471   2475   2485     1  0.0000000  0.6973333  3
   2486   2467   2487   2488     1  0.0000000  0.6973333  3
   2490   2492   2494   2496     1  0.0000000  0.6508444  3
   2490   2492   2494   2497     1  0.0000000  0.6508444  3
   2491   2490   2492   2494     1  0.0000000  0.0000000  2
   2491   2490   2492   2493     1  0.0000000  0.0000000  2
   2491   2490   2492   2495     1  0.0000000  0.0000000  2
   2493   2492   2494   2498     1  0.0000000  0.6508444  3
   2493   2492   2494   2496     1  0.0000000  0.6508444  3
   2493   2492   2494   2497     1  0.0000000  0.6508444  3
   2494   2498   2499   2508     1  0.0000000  1.2552000  3
   2494   2498   2499   2509     1  0.0000000  1.2552000  3
   2494   2498   2500   2501     1  0.0000000  1.2552000  3
   2494   2498   2500   2503     1  0.0000000  1.2552000  3
   2495   2492   2494   2498     1  0.0000000  0.6508444  3
   2495   2492   2494   2496     1  0.0000000  0.6508444  3
   2495   2492   2494   2497     1  0.0000000  0.6508444  3
   2496   2494   2498   2499     1  0.0000000  1.2552000  3
   2496   2494   2498   2500     1  0.0000000  1.2552000  3
   2497   2494   2498   2499     1  0.0000000  1.2552000  3
   2497   2494   2498   2500     1  0.0000000  1.2552000  3
   2498   2499   2510   2511     1  0.0000000  0.6508444  3
   2498   2499   2510   2512     1  0.0000000  0.6508444  3
   2498   2500   2502   2504     1  0.0000000  0.6508444  3
   2498   2500   2502   2505     1  0.0000000  0.6508444  3
   2499   2498   2500   2501     1  0.0000000  1.2552000  3
   2499   2498   2500   2503     1  0.0000000  1.2552000  3
   2500   2498   2499   2508     1  0.0000000  1.2552000  3
   2500   2498   2499   2509     1  0.0000000  1.2552000  3
   2501   2500   2502   2506     1  0.0000000  0.6508444  3
   2501   2500   2502   2504     1  0.0000000  0.6508444  3
   2501   2500   2502   2505     1  0.0000000  0.6508444  3
   2502   2506   2538   2528     1  180.0000771  6.0668000  2
   2502   2506   2538   2528     1  180.0000771  1.4644000  4
   2503   2500   2502   2506     1  0.0000000  0.6508444  3
   2503   2500   2502   2504     1  0.0000000  0.6508444  3
   2503   2500   2502   2505     1  0.0000000  0.6508444  3
   2504   2502   2506   2507     1  0.0000000  3.3472000  1
   2504   2502   2506   2507     1  0.0000000  0.0000000  2
   2504   2502   2506   2507     1  180.0000771  0.3347200  3
   2504   2502   2506   2538     1  180.0000771  0.0000000  2
   2505   2502   2506   2507     1  0.0000000  3.3472000  1
   2505   2502   2506   2507     1  0.0000000  0.0000000  2
   2505   2502   2506   2507     1  180.0000771  0.3347200  3
   2505   2502   2506   2538     1  180.0000771  0.0000000  2
   2506   2538   2519   2521     1  0.0000000  1.2552000  3
   2507   2506   2538   2528     1  180.0000771  6.0668000  2
   2507   2506   2538   2528     1  180.0000771  1.4644000  4
   2508   2499   2510   2513     1  0.0000000  0.6508444  3
   2508   2499   2510   2511     1  0.0000000  0.6508444  3
   2508   2499   2510   2512     1  0.0000000  0.6508444  3
   2509   2499   2510   2513     1  0.0000000  0.6508444  3
   2509   2499   2510   2511     1  0.0000000  0.6508444  3
   2509   2499   2510   2512     1  0.0000000  0.6508444  3
   2510   2513   2562   2552     1  180.0000771  6.0668000  2
   2510   2513   2562   2552     1  180.0000771  1.4644000  4
   2511   2510   2513   2514     1  0.0000000  3.3472000  1
   2511   2510   2513   2514     1  0.0000000  0.0000000  2
   2511   2510   2513   2514     1  180.0000771  0.3347200  3
   2511   2510   2513   2562     1  180.0000771  0.0000000  2
   2512   2510   2513   2514     1  0.0000000  3.3472000  1
   2512   2510   2513   2514     1  0.0000000  0.0000000  2
   2512   2510   2513   2514     1  180.0000771  0.3347200  3
   2512   2510   2513   2562     1  180.0000771  0.0000000  2
   2513   2562   2543   2545     1  0.0000000  1.2552000  3
   2514   2513   2562   2552     1  180.0000771  6.0668000  2
   2514   2513   2562   2552     1  180.0000771  1.4644000  4
   2515   2516   2518   2522     1  0.0000000  0.6508444  3
   2515   2516   2536   2537     1  0.0000000  1.0460000  1
   2515   2516   2536   2537     1  0.0000000  0.6694400  3
   2515   2526   2531   2532     1  0.0000000  1.0460000  1
   2515   2526   2531   2532     1  0.0000000  0.6694400  3
   2515   2533   2520   2523     1  0.0000000  1.6038667  3
   2516   2518   2519   2521     1  0.0000000  0.6508444  3
   2516   2518   2525   2527     1  0.0000000  1.0460000  1
   2516   2518   2525   2527     1  0.0000000  0.6694400  3
   2516   2515   2526   2529     1  0.0000000  0.6508444  3
   2516   2515   2526   2530     1  0.0000000  0.6508444  3
   2517   2515   2516   2518     1  0.0000000  0.6508444  3
   2517   2515   2516   2536     1  0.0000000  1.0460000  1
   2517   2515   2516   2536     1  0.0000000  0.0000000  3
   2517   2515   2516   2535     1  0.0000000  0.6508444  3
   2517   2515   2526   2531     1  0.0000000  1.0460000  1
   2517   2515   2526   2531     1  0.0000000  0.0000000  3
   2517   2515   2526   2529     1  0.0000000  0.6508444  3
   2517   2515   2526   2530     1  0.0000000  0.6508444  3
   2517   2515   2533   2520     1  0.0000000  1.6038667  3
   2518   2519   2520   2523     1  0.0000000  0.6508444  3
   2518   2519   2538   2528     1  0.0000000  1.2552000  3
   2518   2516   2536   2537     1  0.0000000  1.0460000  1
   2518   2516   2536   2537     1  0.0000000  0.6694400  3
   2519   2520   2524   2534     1  0.0000000  1.0460000  1
   2519   2520   2524   2534     1  0.0000000  0.6694400  3
   2519   2518   2525   2527     1  0.0000000  1.0460000  1
   2519   2518   2525   2527     1  0.0000000  0.6694400  3
   2519   2518   2516   2535     1  0.0000000  0.6508444  3
   2520   2519   2538   2528     1  0.0000000  1.2552000  3
   2520   2519   2518   2522     1  0.0000000  0.6508444  3
   2521   2519   2520   2524     1  0.0000000  1.0460000  1
   2521   2519   2520   2524     1  0.0000000  0.0000000  3
   2521   2519   2520   2533     1  0.0000000  1.0460000  1
   2521   2519   2520   2533     1  0.0000000  0.0000000  3
   2521   2519   2520   2523     1  0.0000000  0.6508444  3
   2521   2519   2538   2528     1  0.0000000  1.2552000  3
   2521   2519   2518   2525     1  0.0000000  1.0460000  1
   2521   2519   2518   2525     1  0.0000000  0.0000000  3
   2521   2519   2518   2522     1  0.0000000  0.6508444  3
   2522   2518   2519   2538     1  0.0000000  0.6508444  3
   2522   2518   2525   2527     1  0.0000000  0.6973333  3
   2522   2518   2516   2536     1  0.0000000  1.0460000  1
   2522   2518   2516   2536     1  0.0000000  0.0000000  3
   2522   2518   2516   2535     1  0.0000000  0.6508444  3
   2523   2520   2524   2534     1  0.0000000  0.6973333  3
   2523   2520   2519   2538     1  0.0000000  0.6508444  3
   2525   2518   2516   2535     1  0.0000000  1.0460000  1
   2525   2518   2516   2535     1  0.0000000  0.0000000  3
   2526   2515   2516   2535     1  0.0000000  0.6508444  3
   2529   2526   2531   2532     1  0.0000000  0.6973333  3
   2529   2526   2515   2533     1  0.0000000  1.0460000  1
   2529   2526   2515   2533     1  0.0000000  0.0000000  3
   2530   2526   2531   2532     1  0.0000000  0.6973333  3
   2530   2526   2515   2533     1  0.0000000  1.0460000  1
   2530   2526   2515   2533     1  0.0000000  0.0000000  3
   2533   2520   2524   2534     1  0.0000000  0.6973333  3
   2533   2515   2516   2535     1  0.0000000  1.0460000  1
   2533   2515   2516   2535     1  0.0000000  0.0000000  3
   2535   2516   2536   2537     1  0.0000000  0.6973333  3
   2539   2540   2542   2546     1  0.0000000  0.6508444  3
   2539   2540   2560   2561     1  0.0000000  1.0460000  1
   2539   2540   2560   2561     1  0.0000000  0.6694400  3
   2539   2550   2555   2556     1  0.0000000  1.0460000  1
   2539   2550   2555   2556     1  0.0000000  0.6694400  3
   2539   2557   2544   2547     1  0.0000000  1.6038667  3
   2540   2542   2543   2545     1  0.0000000  0.6508444  3
   2540   2542   2549   2551     1  0.0000000  1.0460000  1
   2540   2542   2549   2551     1  0.0000000  0.6694400  3
   2540   2539   2550   2553     1  0.0000000  0.6508444  3
   2540   2539   2550   2554     1  0.0000000  0.6508444  3
   2541   2539   2540   2542     1  0.0000000  0.6508444  3
   2541   2539   2540   2560     1  0.0000000  1.0460000  1
   2541   2539   2540   2560     1  0.0000000  0.0000000  3
   2541   2539   2540   2559     1  0.0000000  0.6508444  3
   2541   2539   2550   2555     1  0.0000000  1.0460000  1
   2541   2539   2550   2555     1  0.0000000  0.0000000  3
   2541   2539   2550   2553     1  0.0000000  0.6508444  3
   2541   2539   2550   2554     1  0.0000000  0.6508444  3
   2541   2539   2557   2544     1  0.0000000  1.6038667  3
   2542   2543   2544   2547     1  0.0000000  0.6508444  3
   2542   2543   2562   2552     1  0.0000000  1.2552000  3
   2542   2540   2560   2561     1  0.0000000  1.0460000  1
   2542   2540   2560   2561     1  0.0000000  0.6694400  3
   2543   2544   2548   2558     1  0.0000000  1.0460000  1
   2543   2544   2548   2558     1  0.0000000  0.6694400  3
   2543   2542   2549   2551     1  0.0000000  1.0460000  1
   2543   2542   2549   2551     1  0.0000000  0.6694400  3
   2543   2542   2540   2559     1  0.0000000  0.6508444  3
   2544   2543   2562   2552     1  0.0000000  1.2552000  3
   2544   2543   2542   2546     1  0.0000000  0.6508444  3
   2545   2543   2544   2548     1  0.0000000  1.0460000  1
   2545   2543   2544   2548     1  0.0000000  0.0000000  3
   2545   2543   2544   2557     1  0.0000000  1.0460000  1
   2545   2543   2544   2557     1  0.0000000  0.0000000  3
   2545   2543   2544   2547     1  0.0000000  0.6508444  3
   2545   2543   2562   2552     1  0.0000000  1.2552000  3
   2545   2543   2542   2549     1  0.0000000  1.0460000  1
   2545   2543   2542   2549     1  0.0000000  0.0000000  3
   2545   2543   2542   2546     1  0.0000000  0.6508444  3
   2546   2542   2543   2562     1  0.0000000  0.6508444  3
   2546   2542   2549   2551     1  0.0000000  0.6973333  3
   2546   2542   2540   2560     1  0.0000000  1.0460000  1
   2546   2542   2540   2560     1  0.0000000  0.0000000  3
   2546   2542   2540   2559     1  0.0000000  0.6508444  3
   2547   2544   2548   2558     1  0.0000000  0.6973333  3
   2547   2544   2543   2562     1  0.0000000  0.6508444  3
   2549   2542   2540   2559     1  0.0000000  1.0460000  1
   2549   2542   2540   2559     1  0.0000000  0.0000000  3
   2550   2539   2540   2559     1  0.0000000  0.6508444  3
   2553   2550   2555   2556     1  0.0000000  0.6973333  3
   2553   2550   2539   2557     1  0.0000000  1.0460000  1
   2553   2550   2539   2557     1  0.0000000  0.0000000  3
   2554   2550   2555   2556     1  0.0000000  0.6973333  3
   2554   2550   2539   2557     1  0.0000000  1.0460000  1
   2554   2550   2539   2557     1  0.0000000  0.0000000  3
   2557   2544   2548   2558     1  0.0000000  0.6973333  3
   2557   2539   2540   2559     1  0.0000000  1.0460000  1
   2557   2539   2540   2559     1  0.0000000  0.0000000  3
   2559   2540   2560   2561     1  0.0000000  0.6973333  3
   2563   2565   2567   2569     1  0.0000000  0.6508444  3
   2563   2565   2567   2570     1  0.0000000  0.6508444  3
   2564   2563   2565   2567     1  0.0000000  0.0000000  2
   2564   2563   2565   2566     1  0.0000000  0.0000000  2
   2564   2563   2565   2568     1  0.0000000  0.0000000  2
   2566   2565   2567   2571     1  0.0000000  0.6508444  3
   2566   2565   2567   2569     1  0.0000000  0.6508444  3
   2566   2565   2567   2570     1  0.0000000  0.6508444  3
   2567   2571   2572   2581     1  0.0000000  1.2552000  3
   2567   2571   2572   2582     1  0.0000000  1.2552000  3
   2567   2571   2573   2574     1  0.0000000  1.2552000  3
   2567   2571   2573   2576     1  0.0000000  1.2552000  3
   2568   2565   2567   2571     1  0.0000000  0.6508444  3
   2568   2565   2567   2569     1  0.0000000  0.6508444  3
   2568   2565   2567   2570     1  0.0000000  0.6508444  3
   2569   2567   2571   2572     1  0.0000000  1.2552000  3
   2569   2567   2571   2573     1  0.0000000  1.2552000  3
   2570   2567   2571   2572     1  0.0000000  1.2552000  3
   2570   2567   2571   2573     1  0.0000000  1.2552000  3
   2571   2572   2583   2584     1  0.0000000  0.6508444  3
   2571   2572   2583   2585     1  0.0000000  0.6508444  3
   2571   2573   2575   2577     1  0.0000000  0.6508444  3
   2571   2573   2575   2578     1  0.0000000  0.6508444  3
   2572   2571   2573   2574     1  0.0000000  1.2552000  3
   2572   2571   2573   2576     1  0.0000000  1.2552000  3
   2573   2571   2572   2581     1  0.0000000  1.2552000  3
   2573   2571   2572   2582     1  0.0000000  1.2552000  3
   2574   2573   2575   2579     1  0.0000000  0.6508444  3
   2574   2573   2575   2577     1  0.0000000  0.6508444  3
   2574   2573   2575   2578     1  0.0000000  0.6508444  3
   2575   2579   2611   2601     1  180.0000771  6.0668000  2
   2575   2579   2611   2601     1  180.0000771  1.4644000  4
   2576   2573   2575   2579     1  0.0000000  0.6508444  3
   2576   2573   2575   2577     1  0.0000000  0.6508444  3
   2576   2573   2575   2578     1  0.0000000  0.6508444  3
   2577   2575   2579   2580     1  0.0000000  3.3472000  1
   2577   2575   2579   2580     1  0.0000000  0.0000000  2
   2577   2575   2579   2580     1  180.0000771  0.3347200  3
   2577   2575   2579   2611     1  180.0000771  0.0000000  2
   2578   2575   2579   2580     1  0.0000000  3.3472000  1
   2578   2575   2579   2580     1  0.0000000  0.0000000  2
   2578   2575   2579   2580     1  180.0000771  0.3347200  3
   2578   2575   2579   2611     1  180.0000771  0.0000000  2
   2579   2611   2592   2594     1  0.0000000  1.2552000  3
   2580   2579   2611   2601     1  180.0000771  6.0668000  2
   2580   2579   2611   2601     1  180.0000771  1.4644000  4
   2581   2572   2583   2586     1  0.0000000  0.6508444  3
   2581   2572   2583   2584     1  0.0000000  0.6508444  3
   2581   2572   2583   2585     1  0.0000000  0.6508444  3
   2582   2572   2583   2586     1  0.0000000  0.6508444  3
   2582   2572   2583   2584     1  0.0000000  0.6508444  3
   2582   2572   2583   2585     1  0.0000000  0.6508444  3
   2583   2586   2635   2625     1  180.0000771  6.0668000  2
   2583   2586   2635   2625     1  180.0000771  1.4644000  4
   2584   2583   2586   2587     1  0.0000000  3.3472000  1
   2584   2583   2586   2587     1  0.0000000  0.0000000  2
   2584   2583   2586   2587     1  180.0000771  0.3347200  3
   2584   2583   2586   2635     1  180.0000771  0.0000000  2
   2585   2583   2586   2587     1  0.0000000  3.3472000  1
   2585   2583   2586   2587     1  0.0000000  0.0000000  2
   2585   2583   2586   2587     1  180.0000771  0.3347200  3
   2585   2583   2586   2635     1  180.0000771  0.0000000  2
   2586   2635   2616   2618     1  0.0000000  1.2552000  3
   2587   2586   2635   2625     1  180.0000771  6.0668000  2
   2587   2586   2635   2625     1  180.0000771  1.4644000  4
   2588   2589   2591   2595     1  0.0000000  0.6508444  3
   2588   2589   2609   2610     1  0.0000000  1.0460000  1
   2588   2589   2609   2610     1  0.0000000  0.6694400  3
   2588   2599   2604   2605     1  0.0000000  1.0460000  1
   2588   2599   2604   2605     1  0.0000000  0.6694400  3
   2588   2606   2593   2596     1  0.0000000  1.6038667  3
   2589   2588   2599   2602     1  0.0000000  0.6508444  3
   2589   2588   2599   2603     1  0.0000000  0.6508444  3
   2589   2591   2592   2594     1  0.0000000  0.6508444  3
   2589   2591   2598   2600     1  0.0000000  1.0460000  1
   2589   2591   2598   2600     1  0.0000000  0.6694400  3
   2590   2588   2589   2591     1  0.0000000  0.6508444  3
   2590   2588   2589   2609     1  0.0000000  1.0460000  1
   2590   2588   2589   2609     1  0.0000000  0.0000000  3
   2590   2588   2589   2608     1  0.0000000  0.6508444  3
   2590   2588   2599   2604     1  0.0000000  1.0460000  1
   2590   2588   2599   2604     1  0.0000000  0.0000000  3
   2590   2588   2599   2602     1  0.0000000  0.6508444  3
   2590   2588   2599   2603     1  0.0000000  0.6508444  3
   2590   2588   2606   2593     1  0.0000000  1.6038667  3
   2591   2589   2609   2610     1  0.0000000  1.0460000  1
   2591   2589   2609   2610     1  0.0000000  0.6694400  3
   2591   2592   2593   2596     1  0.0000000  0.6508444  3
   2591   2592   2611   2601     1  0.0000000  1.2552000  3
   2592   2591   2589   2608     1  0.0000000  0.6508444  3
   2592   2591   2598   2600     1  0.0000000  1.0460000  1
   2592   2591   2598   2600     1  0.0000000  0.6694400  3
   2592   2593   2597   2607     1  0.0000000  1.0460000  1
   2592   2593   2597   2607     1  0.0000000  0.6694400  3
   2593   2592   2591   2595     1  0.0000000  0.6508444  3
   2593   2592   2611   2601     1  0.0000000  1.2552000  3
   2594   2592   2591   2598     1  0.0000000  1.0460000  1
   2594   2592   2591   2598     1  0.0000000  0.0000000  3
   2594   2592   2591   2595     1  0.0000000  0.6508444  3
   2594   2592   2593   2597     1  0.0000000  1.0460000  1
   2594   2592   2593   2597     1  0.0000000  0.0000000  3
   2594   2592   2593   2606     1  0.0000000  1.0460000  1
   2594   2592   2593   2606     1  0.0000000  0.0000000  3
   2594   2592   2593   2596     1  0.0000000  0.6508444  3
   2594   2592   2611   2601     1  0.0000000  1.2552000  3
   2595   2591   2589   2609     1  0.0000000  1.0460000  1
   2595   2591   2589   2609     1  0.0000000  0.0000000  3
   2595   2591   2589   2608     1  0.0000000  0.6508444  3
   2595   2591   2592   2611     1  0.0000000  0.6508444  3
   2595   2591   2598   2600     1  0.0000000  0.6973333  3
   2596   2593   2592   2611     1  0.0000000  0.6508444  3
   2596   2593   2597   2607     1  0.0000000  0.6973333  3
   2598   2591   2589   2608     1  0.0000000  1.0460000  1
   2598   2591   2589   2608     1  0.0000000  0.0000000  3
   2599   2588   2589   2608     1  0.0000000  0.6508444  3
   2602   2599   2588   2606     1  0.0000000  1.0460000  1
   2602   2599   2588   2606     1  0.0000000  0.0000000  3
   2602   2599   2604   2605     1  0.0000000  0.6973333  3
   2603   2599   2588   2606     1  0.0000000  1.0460000  1
   2603   2599   2588   2606     1  0.0000000  0.0000000  3
   2603   2599   2604   2605     1  0.0000000  0.6973333  3
   2606   2588   2589   2608     1  0.0000000  1.0460000  1
   2606   2588   2589   2608     1  0.0000000  0.0000000  3
   2606   2593   2597   2607     1  0.0000000  0.6973333  3
   2608   2589   2609   2610     1  0.0000000  0.6973333  3
   2612   2613   2615   2619     1  0.0000000  0.6508444  3
   2612   2613   2633   2634     1  0.0000000  1.0460000  1
   2612   2613   2633   2634     1  0.0000000  0.6694400  3
   2612   2623   2628   2629     1  0.0000000  1.0460000  1
   2612   2623   2628   2629     1  0.0000000  0.6694400  3
   2612   2630   2617   2620     1  0.0000000  1.6038667  3
   2613   2612   2623   2626     1  0.0000000  0.6508444  3
   2613   2612   2623   2627     1  0.0000000  0.6508444  3
   2613   2615   2616   2618     1  0.0000000  0.6508444  3
   2613   2615   2622   2624     1  0.0000000  1.0460000  1
   2613   2615   2622   2624     1  0.0000000  0.6694400  3
   2614   2612   2613   2615     1  0.0000000  0.6508444  3
   2614   2612   2613   2633     1  0.0000000  1.0460000  1
   2614   2612   2613   2633     1  0.0000000  0.0000000  3
   2614   2612   2613   2632     1  0.0000000  0.6508444  3
   2614   2612   2623   2628     1  0.0000000  1.0460000  1
   2614   2612   2623   2628     1  0.0000000  0.0000000  3
   2614   2612   2623   2626     1  0.0000000  0.6508444  3
   2614   2612   2623   2627     1  0.0000000  0.6508444  3
   2614   2612   2630   2617     1  0.0000000  1.6038667  3
   2615   2613   2633   2634     1  0.0000000  1.0460000  1
   2615   2613   2633   2634     1  0.0000000  0.6694400  3
   2615   2616   2617   2620     1  0.0000000  0.6508444  3
   2615   2616   2635   2625     1  0.0000000  1.2552000  3
   2616   2615   2613   2632     1  0.0000000  0.6508444  3
   2616   2615   2622   2624     1  0.0000000  1.0460000  1
   2616   2615   2622   2624     1  0.0000000  0.6694400  3
   2616   2617   2621   2631     1  0.0000000  1.0460000  1
   2616   2617   2621   2631     1  0.0000000  0.6694400  3
   2617   2616   2615   2619     1  0.0000000  0.6508444  3
   2617   2616   2635   2625     1  0.0000000  1.2552000  3
   2618   2616   2615   2622     1  0.0000000  1.0460000  1
   2618   2616   2615   2622     1  0.0000000  0.0000000  3
   2618   2616   2615   2619     1  0.0000000  0.6508444  3
   2618   2616   2617   2621     1  0.0000000  1.0460000  1
   2618   2616   2617   2621     1  0.0000000  0.0000000  3
   2618   2616   2617   2630     1  0.0000000  1.0460000  1
   2618   2616   2617   2630     1  0.0000000  0.0000000  3
   2618   2616   2617   2620     1  0.0000000  0.6508444  3
   2618   2616   2635   2625     1  0.0000000  1.2552000  3
   2619   2615   2613   2633     1  0.0000000  1.0460000  1
   2619   2615   2613   2633     1  0.0000000  0.0000000  3
   2619   2615   2613   2632     1  0.0000000  0.6508444  3
   2619   2615   2616   2635     1  0.0000000  0.6508444  3
   2619   2615   2622   2624     1  0.0000000  0.6973333  3
   2620   2617   2616   2635     1  0.0000000  0.6508444  3
   2620   2617   2621   2631     1  0.0000000  0.6973333  3
   2622   2615   2613   2632     1  0.0000000  1.0460000  1
   2622   2615   2613   2632     1  0.0000000  0.0000000  3
   2623   2612   2613   2632     1  0.0000000  0.6508444  3
   2626   2623   2612   2630     1  0.0000000  1.0460000  1
   2626   2623   2612   2630     1  0.0000000  0.0000000  3
   2626   2623   2628   2629     1  0.0000000  0.6973333  3
   2627   2623   2612   2630     1  0.0000000  1.0460000  1
   2627   2623   2612   2630     1  0.0000000  0.0000000  3
   2627   2623   2628   2629     1  0.0000000  0.6973333  3
   2630   2612   2613   2632     1  0.0000000  1.0460000  1
   2630   2612   2613   2632     1  0.0000000  0.0000000  3
   2630   2617   2621   2631     1  0.0000000  0.6973333  3
   2632   2613   2633   2634     1  0.0000000  0.6973333  3
   2636   2638   2640   2642     1  0.0000000  0.6508444  3
   2636   2638   2640   2643     1  0.0000000  0.6508444  3
   2637   2636   2638   2640     1  0.0000000  0.0000000  2
   2637   2636   2638   2639     1  0.0000000  0.0000000  2
   2637   2636   2638   2641     1  0.0000000  0.0000000  2
   2639   2638   2640   2644     1  0.0000000  0.6508444  3
   2639   2638   2640   2642     1  0.0000000  0.6508444  3
   2639   2638   2640   2643     1  0.0000000  0.6508444  3
   2640   2644   2645   2654     1  0.0000000  1.2552000  3
   2640   2644   2645   2655     1  0.0000000  1.2552000  3
   2640   2644   2646   2647     1  0.0000000  1.2552000  3
   2640   2644   2646   2649     1  0.0000000  1.2552000  3
   2641   2638   2640   2644     1  0.0000000  0.6508444  3
   2641   2638   2640   2642     1  0.0000000  0.6508444  3
   2641   2638   2640   2643     1  0.0000000  0.6508444  3
   2642   2640   2644   2645     1  0.0000000  1.2552000  3
   2642   2640   2644   2646     1  0.0000000  1.2552000  3
   2643   2640   2644   2645     1  0.0000000  1.2552000  3
   2643   2640   2644   2646     1  0.0000000  1.2552000  3
   2644   2645   2656   2657     1  0.0000000  0.6508444  3
   2644   2645   2656   2658     1  0.0000000  0.6508444  3
   2644   2646   2648   2650     1  0.0000000  0.6508444  3
   2644   2646   2648   2651     1  0.0000000  0.6508444  3
   2645   2644   2646   2647     1  0.0000000  1.2552000  3
   2645   2644   2646   2649     1  0.0000000  1.2552000  3
   2646   2644   2645   2654     1  0.0000000  1.2552000  3
   2646   2644   2645   2655     1  0.0000000  1.2552000  3
   2647   2646   2648   2652     1  0.0000000  0.6508444  3
   2647   2646   2648   2650     1  0.0000000  0.6508444  3
   2647   2646   2648   2651     1  0.0000000  0.6508444  3
   2648   2652   2684   2674     1  180.0000771  6.0668000  2
   2648   2652   2684   2674     1  180.0000771  1.4644000  4
   2649   2646   2648   2652     1  0.0000000  0.6508444  3
   2649   2646   2648   2650     1  0.0000000  0.6508444  3
   2649   2646   2648   2651     1  0.0000000  0.6508444  3
   2650   2648   2652   2653     1  0.0000000  3.3472000  1
   2650   2648   2652   2653     1  0.0000000  0.0000000  2
   2650   2648   2652   2653     1  180.0000771  0.3347200  3
   2650   2648   2652   2684     1  180.0000771  0.0000000  2
   2651   2648   2652   2653     1  0.0000000  3.3472000  1
   2651   2648   2652   2653     1  0.0000000  0.0000000  2
   2651   2648   2652   2653     1  180.0000771  0.3347200  3
   2651   2648   2652   2684     1  180.0000771  0.0000000  2
   2652   2684   2665   2667     1  0.0000000  1.2552000  3
   2653   2652   2684   2674     1  180.0000771  6.0668000  2
   2653   2652   2684   2674     1  180.0000771  1.4644000  4
   2654   2645   2656   2659     1  0.0000000  0.6508444  3
   2654   2645   2656   2657     1  0.0000000  0.6508444  3
   2654   2645   2656   2658     1  0.0000000  0.6508444  3
   2655   2645   2656   2659     1  0.0000000  0.6508444  3
   2655   2645   2656   2657     1  0.0000000  0.6508444  3
   2655   2645   2656   2658     1  0.0000000  0.6508444  3
   2656   2659   2708   2698     1  180.0000771  6.0668000  2
   2656   2659   2708   2698     1  180.0000771  1.4644000  4
   2657   2656   2659   2660     1  0.0000000  3.3472000  1
   2657   2656   2659   2660     1  0.0000000  0.0000000  2
   2657   2656   2659   2660     1  180.0000771  0.3347200  3
   2657   2656   2659   2708     1  180.0000771  0.0000000  2
   2658   2656   2659   2660     1  0.0000000  3.3472000  1
   2658   2656   2659   2660     1  0.0000000  0.0000000  2
   2658   2656   2659   2660     1  180.0000771  0.3347200  3
   2658   2656   2659   2708     1  180.0000771  0.0000000  2
   2659   2708   2689   2691     1  0.0000000  1.2552000  3
   2660   2659   2708   2698     1  180.0000771  6.0668000  2
   2660   2659   2708   2698     1  180.0000771  1.4644000  4
   2661   2662   2664   2668     1  0.0000000  0.6508444  3
   2661   2662   2682   2683     1  0.0000000  1.0460000  1
   2661   2662   2682   2683     1  0.0000000  0.6694400  3
   2661   2672   2677   2678     1  0.0000000  1.0460000  1
   2661   2672   2677   2678     1  0.0000000  0.6694400  3
   2661   2679   2666   2669     1  0.0000000  1.6038667  3
   2662   2664   2665   2667     1  0.0000000  0.6508444  3
   2662   2664   2671   2673     1  0.0000000  1.0460000  1
   2662   2664   2671   2673     1  0.0000000  0.6694400  3
   2662   2661   2672   2675     1  0.0000000  0.6508444  3
   2662   2661   2672   2676     1  0.0000000  0.6508444  3
   2663   2661   2662   2664     1  0.0000000  0.6508444  3
   2663   2661   2662   2682     1  0.0000000  1.0460000  1
   2663   2661   2662   2682     1  0.0000000  0.0000000  3
   2663   2661   2662   2681     1  0.0000000  0.6508444  3
   2663   2661   2672   2677     1  0.0000000  1.0460000  1
   2663   2661   2672   2677     1  0.0000000  0.0000000  3
   2663   2661   2672   2675     1  0.0000000  0.6508444  3
   2663   2661   2672   2676     1  0.0000000  0.6508444  3
   2663   2661   2679   2666     1  0.0000000  1.6038667  3
   2664   2665   2666   2669     1  0.0000000  0.6508444  3
   2664   2665   2684   2674     1  0.0000000  1.2552000  3
   2664   2662   2682   2683     1  0.0000000  1.0460000  1
   2664   2662   2682   2683     1  0.0000000  0.6694400  3
   2665   2666   2670   2680     1  0.0000000  1.0460000  1
   2665   2666   2670   2680     1  0.0000000  0.6694400  3
   2665   2664   2671   2673     1  0.0000000  1.0460000  1
   2665   2664   2671   2673     1  0.0000000  0.6694400  3
   2665   2664   2662   2681     1  0.0000000  0.6508444  3
   2666   2665   2684   2674     1  0.0000000  1.2552000  3
   2666   2665   2664   2668     1  0.0000000  0.6508444  3
   2667   2665   2666   2670     1  0.0000000  1.0460000  1
   2667   2665   2666   2670     1  0.0000000  0.0000000  3
   2667   2665   2666   2679     1  0.0000000  1.0460000  1
   2667   2665   2666   2679     1  0.0000000  0.0000000  3
   2667   2665   2666   2669     1  0.0000000  0.6508444  3
   2667   2665   2684   2674     1  0.0000000  1.2552000  3
   2667   2665   2664   2671     1  0.0000000  1.0460000  1
   2667   2665   2664   2671     1  0.0000000  0.0000000  3
   2667   2665   2664   2668     1  0.0000000  0.6508444  3
   2668   2664   2665   2684     1  0.0000000  0.6508444  3
   2668   2664   2671   2673     1  0.0000000  0.6973333  3
   2668   2664   2662   2682     1  0.0000000  1.0460000  1
   2668   2664   2662   2682     1  0.0000000  0.0000000  3
   2668   2664   2662   2681     1  0.0000000  0.6508444  3
   2669   2666   2670   2680     1  0.0000000  0.6973333  3
   2669   2666   2665   2684     1  0.0000000  0.6508444  3
   2671   2664   2662   2681     1  0.0000000  1.0460000  1
   2671   2664   2662   2681     1  0.0000000  0.0000000  3
   2672   2661   2662   2681     1  0.0000000  0.6508444  3
   2675   2672   2677   2678     1  0.0000000  0.6973333  3
   2675   2672   2661   2679     1  0.0000000  1.0460000  1
   2675   2672   2661   2679     1  0.0000000  0.0000000  3
   2676   2672   2677   2678     1  0.0000000  0.6973333  3
   2676   2672   2661   2679     1  0.0000000  1.0460000  1
   2676   2672   2661   2679     1  0.0000000  0.0000000  3
   2679   2666   2670   2680     1  0.0000000  0.6973333  3
   2679   2661   2662   2681     1  0.0000000  1.0460000  1
   2679   2661   2662   2681     1  0.0000000  0.0000000  3
   2681   2662   2682   2683     1  0.0000000  0.6973333  3
   2685   2686   2688   2692     1  0.0000000  0.6508444  3
   2685   2686   2706   2707     1  0.0000000  1.0460000  1
   2685   2686   2706   2707     1  0.0000000  0.6694400  3
   2685   2696   2701   2702     1  0.0000000  1.0460000  1
   2685   2696   2701   2702     1  0.0000000  0.6694400  3
   2685   2703   2690   2693     1  0.0000000  1.6038667  3
   2686   2688   2689   2691     1  0.0000000  0.6508444  3
   2686   2688   2695   2697     1  0.0000000  1.0460000  1
   2686   2688   2695   2697     1  0.0000000  0.6694400  3
   2686   2685   2696   2699     1  0.0000000  0.6508444  3
   2686   2685   2696   2700     1  0.0000000  0.6508444  3
   2687   2685   2686   2688     1  0.0000000  0.6508444  3
   2687   2685   2686   2706     1  0.0000000  1.0460000  1
   2687   2685   2686   2706     1  0.0000000  0.0000000  3
   2687   2685   2686   2705     1  0.0000000  0.6508444  3
   2687   2685   2696   2701     1  0.0000000  1.0460000  1
   2687   2685   2696   2701     1  0.0000000  0.0000000  3
   2687   2685   2696   2699     1  0.0000000  0.6508444  3
   2687   2685   2696   2700     1  0.0000000  0.6508444  3
   2687   2685   2703   2690     1  0.0000000  1.6038667  3
   2688   2689   2690   2693     1  0.0000000  0.6508444  3
   2688   2689   2708   2698     1  0.0000000  1.2552000  3
   2688   2686   2706   2707     1  0.0000000  1.0460000  1
   2688   2686   2706   2707     1  0.0000000  0.6694400  3
   2689   2690   2694   2704     1  0.0000000  1.0460000  1
   2689   2690   2694   2704     1  0.0000000  0.6694400  3
   2689   2688   2695   2697     1  0.0000000  1.0460000  1
   2689   2688   2695   2697     1  0.0000000  0.6694400  3
   2689   2688   2686   2705     1  0.0000000  0.6508444  3
   2690   2689   2708   2698     1  0.0000000  1.2552000  3
   2690   2689   2688   2692     1  0.0000000  0.6508444  3
   2691   2689   2690   2694     1  0.0000000  1.0460000  1
   2691   2689   2690   2694     1  0.0000000  0.0000000  3
   2691   2689   2690   2703     1  0.0000000  1.0460000  1
   2691   2689   2690   2703     1  0.0000000  0.0000000  3
   2691   2689   2690   2693     1  0.0000000  0.6508444  3
   2691   2689   2708   2698     1  0.0000000  1.2552000  3
   2691   2689   2688   2695     1  0.0000000  1.0460000  1
   2691   2689   2688   2695     1  0.0000000  0.0000000  3
   2691   2689   2688   2692     1  0.0000000  0.6508444  3
   2692   2688   2689   2708     1  0.0000000  0.6508444  3
   2692   2688   2695   2697     1  0.0000000  0.6973333  3
   2692   2688   2686   2706     1  0.0000000  1.0460000  1
   2692   2688   2686   2706     1  0.0000000  0.0000000  3
   2692   2688   2686   2705     1  0.0000000  0.6508444  3
   2693   2690   2694   2704     1  0.0000000  0.6973333  3
   2693   2690   2689   2708     1  0.0000000  0.6508444  3
   2695   2688   2686   2705     1  0.0000000  1.0460000  1
   2695   2688   2686   2705     1  0.0000000  0.0000000  3
   2696   2685   2686   2705     1  0.0000000  0.6508444  3
   2699   2696   2701   2702     1  0.0000000  0.6973333  3
   2699   2696   2685   2703     1  0.0000000  1.0460000  1
   2699   2696   2685   2703     1  0.0000000  0.0000000  3
   2700   2696   2701   2702     1  0.0000000  0.6973333  3
   2700   2696   2685   2703     1  0.0000000  1.0460000  1
   2700   2696   2685   2703     1  0.0000000  0.0000000  3
   2703   2690   2694   2704     1  0.0000000  0.6973333  3
   2703   2685   2686   2705     1  0.0000000  1.0460000  1
   2703   2685   2686   2705     1  0.0000000  0.0000000  3
   2705   2686   2706   2707     1  0.0000000  0.6973333  3
   2709   2711   2713   2715     1  0.0000000  0.6508444  3
   2709   2711   2713   2716     1  0.0000000  0.6508444  3
   2710   2709   2711   2713     1  0.0000000  0.0000000  2
   2710   2709   2711   2712     1  0.0000000  0.0000000  2
   2710   2709   2711   2714     1  0.0000000  0.0000000  2
   2712   2711   2713   2717     1  0.0000000  0.6508444  3
   2712   2711   2713   2715     1  0.0000000  0.6508444  3
   2712   2711   2713   2716     1  0.0000000  0.6508444  3
   2713   2717   2718   2727     1  0.0000000  1.2552000  3
   2713   2717   2718   2728     1  0.0000000  1.2552000  3
   2713   2717   2719   2720     1  0.0000000  1.2552000  3
   2713   2717   2719   2722     1  0.0000000  1.2552000  3
   2714   2711   2713   2717     1  0.0000000  0.6508444  3
   2714   2711   2713   2715     1  0.0000000  0.6508444  3
   2714   2711   2713   2716     1  0.0000000  0.6508444  3
   2715   2713   2717   2718     1  0.0000000  1.2552000  3
   2715   2713   2717   2719     1  0.0000000  1.2552000  3
   2716   2713   2717   2718     1  0.0000000  1.2552000  3
   2716   2713   2717   2719     1  0.0000000  1.2552000  3
   2717   2718   2729   2730     1  0.0000000  0.6508444  3
   2717   2718   2729   2731     1  0.0000000  0.6508444  3
   2717   2719   2721   2723     1  0.0000000  0.6508444  3
   2717   2719   2721   2724     1  0.0000000  0.6508444  3
   2718   2717   2719   2720     1  0.0000000  1.2552000  3
   2718   2717   2719   2722     1  0.0000000  1.2552000  3
   2719   2717   2718   2727     1  0.0000000  1.2552000  3
   2719   2717   2718   2728     1  0.0000000  1.2552000  3
   2720   2719   2721   2725     1  0.0000000  0.6508444  3
   2720   2719   2721   2723     1  0.0000000  0.6508444  3
   2720   2719   2721   2724     1  0.0000000  0.6508444  3
   2721   2725   2757   2747     1  180.0000771  6.0668000  2
   2721   2725   2757   2747     1  180.0000771  1.4644000  4
   2722   2719   2721   2725     1  0.0000000  0.6508444  3
   2722   2719   2721   2723     1  0.0000000  0.6508444  3
   2722   2719   2721   2724     1  0.0000000  0.6508444  3
   2723   2721   2725   2726     1  0.0000000  3.3472000  1
   2723   2721   2725   2726     1  0.0000000  0.0000000  2
   2723   2721   2725   2726     1  180.0000771  0.3347200  3
   2723   2721   2725   2757     1  180.0000771  0.0000000  2
   2724   2721   2725   2726     1  0.0000000  3.3472000  1
   2724   2721   2725   2726     1  0.0000000  0.0000000  2
   2724   2721   2725   2726     1  180.0000771  0.3347200  3
   2724   2721   2725   2757     1  180.0000771  0.0000000  2
   2725   2757   2738   2740     1  0.0000000  1.2552000  3
   2726   2725   2757   2747     1  180.0000771  6.0668000  2
   2726   2725   2757   2747     1  180.0000771  1.4644000  4
   2727   2718   2729   2732     1  0.0000000  0.6508444  3
   2727   2718   2729   2730     1  0.0000000  0.6508444  3
   2727   2718   2729   2731     1  0.0000000  0.6508444  3
   2728   2718   2729   2732     1  0.0000000  0.6508444  3
   2728   2718   2729   2730     1  0.0000000  0.6508444  3
   2728   2718   2729   2731     1  0.0000000  0.6508444  3
   2729   2732   2781   2771     1  180.0000771  6.0668000  2
   2729   2732   2781   2771     1  180.0000771  1.4644000  4
   2730   2729   2732   2733     1  0.0000000  3.3472000  1
   2730   2729   2732   2733     1  0.0000000  0.0000000  2
   2730   2729   2732   2733     1  180.0000771  0.3347200  3
   2730   2729   2732   2781     1  180.0000771  0.0000000  2
   2731   2729   2732   2733     1  0.0000000  3.3472000  1
   2731   2729   2732   2733     1  0.0000000  0.0000000  2
   2731   2729   2732   2733     1  180.0000771  0.3347200  3
   2731   2729   2732   2781     1  180.0000771  0.0000000  2
   2732   2781   2762   2764     1  0.0000000  1.2552000  3
   2733   2732   2781   2771     1  180.0000771  6.0668000  2
   2733   2732   2781   2771     1  180.0000771  1.4644000  4
   2734   2735   2737   2741     1  0.0000000  0.6508444  3
   2734   2735   2755   2756     1  0.0000000  1.0460000  1
   2734   2735   2755   2756     1  0.0000000  0.6694400  3
   2734   2745   2750   2751     1  0.0000000  1.0460000  1
   2734   2745   2750   2751     1  0.0000000  0.6694400  3
   2734   2752   2739   2742     1  0.0000000  1.6038667  3
   2735   2734   2745   2748     1  0.0000000  0.6508444  3
   2735   2734   2745   2749     1  0.0000000  0.6508444  3
   2735   2737   2738   2740     1  0.0000000  0.6508444  3
   2735   2737   2744   2746     1  0.0000000  1.0460000  1
   2735   2737   2744   2746     1  0.0000000  0.6694400  3
   2736   2734   2735   2737     1  0.0000000  0.6508444  3
   2736   2734   2735   2755     1  0.0000000  1.0460000  1
   2736   2734   2735   2755     1  0.0000000  0.0000000  3
   2736   2734   2735   2754     1  0.0000000  0.6508444  3
   2736   2734   2745   2750     1  0.0000000  1.0460000  1
   2736   2734   2745   2750     1  0.0000000  0.0000000  3
   2736   2734   2745   2748     1  0.0000000  0.6508444  3
   2736   2734   2745   2749     1  0.0000000  0.6508444  3
   2736   2734   2752   2739     1  0.0000000  1.6038667  3
   2737   2735   2755   2756     1  0.0000000  1.0460000  1
   2737   2735   2755   2756     1  0.0000000  0.6694400  3
   2737   2738   2739   2742     1  0.0000000  0.6508444  3
   2737   2738   2757   2747     1  0.0000000  1.2552000  3
   2738   2737   2735   2754     1  0.0000000  0.6508444  3
   2738   2737   2744   2746     1  0.0000000  1.0460000  1
   2738   2737   2744   2746     1  0.0000000  0.6694400  3
   2738   2739   2743   2753     1  0.0000000  1.0460000  1
   2738   2739   2743   2753     1  0.0000000  0.6694400  3
   2739   2738   2737   2741     1  0.0000000  0.6508444  3
   2739   2738   2757   2747     1  0.0000000  1.2552000  3
   2740   2738   2737   2744     1  0.0000000  1.0460000  1
   2740   2738   2737   2744     1  0.0000000  0.0000000  3
   2740   2738   2737   2741     1  0.0000000  0.6508444  3
   2740   2738   2739   2743     1  0.0000000  1.0460000  1
   2740   2738   2739   2743     1  0.0000000  0.0000000  3
   2740   2738   2739   2752     1  0.0000000  1.0460000  1
   2740   2738   2739   2752     1  0.0000000  0.0000000  3
   2740   2738   2739   2742     1  0.0000000  0.6508444  3
   2740   2738   2757   2747     1  0.0000000  1.2552000  3
   2741   2737   2735   2755     1  0.0000000  1.0460000  1
   2741   2737   2735   2755     1  0.0000000  0.0000000  3
   2741   2737   2735   2754     1  0.0000000  0.6508444  3
   2741   2737   2738   2757     1  0.0000000  0.6508444  3
   2741   2737   2744   2746     1  0.0000000  0.6973333  3
   2742   2739   2738   2757     1  0.0000000  0.6508444  3
   2742   2739   2743   2753     1  0.0000000  0.6973333  3
   2744   2737   2735   2754     1  0.0000000  1.0460000  1
   2744   2737   2735   2754     1  0.0000000  0.0000000  3
   2745   2734   2735   2754     1  0.0000000  0.6508444  3
   2748   2745   2734   2752     1  0.0000000  1.0460000  1
   2748   2745   2734   2752     1  0.0000000  0.0000000  3
   2748   2745   2750   2751     1  0.0000000  0.6973333  3
   2749   2745   2734   2752     1  0.0000000  1.0460000  1
   2749   2745   2734   2752     1  0.0000000  0.0000000  3
   2749   2745   2750   2751     1  0.0000000  0.6973333  3
   2752   2734   2735   2754     1  0.0000000  1.0460000  1
   2752   2734   2735   2754     1  0.0000000  0.0000000  3
   2752   2739   2743   2753     1  0.0000000  0.6973333  3
   2754   2735   2755   2756     1  0.0000000  0.6973333  3
   2758   2759   2761   2765     1  0.0000000  0.6508444  3
   2758   2759   2779   2780     1  0.0000000  1.0460000  1
   2758   2759   2779   2780     1  0.0000000  0.6694400  3
   2758   2769   2774   2775     1  0.0000000  1.0460000  1
   2758   2769   2774   2775     1  0.0000000  0.6694400  3
   2758   2776   2763   2766     1  0.0000000  1.6038667  3
   2759   2758   2769   2772     1  0.0000000  0.6508444  3
   2759   2758   2769   2773     1  0.0000000  0.6508444  3
   2759   2761   2762   2764     1  0.0000000  0.6508444  3
   2759   2761   2768   2770     1  0.0000000  1.0460000  1
   2759   2761   2768   2770     1  0.0000000  0.6694400  3
   2760   2758   2759   2761     1  0.0000000  0.6508444  3
   2760   2758   2759   2779     1  0.0000000  1.0460000  1
   2760   2758   2759   2779     1  0.0000000  0.0000000  3
   2760   2758   2759   2778     1  0.0000000  0.6508444  3
   2760   2758   2769   2774     1  0.0000000  1.0460000  1
   2760   2758   2769   2774     1  0.0000000  0.0000000  3
   2760   2758   2769   2772     1  0.0000000  0.6508444  3
   2760   2758   2769   2773     1  0.0000000  0.6508444  3
   2760   2758   2776   2763     1  0.0000000  1.6038667  3
   2761   2759   2779   2780     1  0.0000000  1.0460000  1
   2761   2759   2779   2780     1  0.0000000  0.6694400  3
   2761   2762   2763   2766     1  0.0000000  0.6508444  3
   2761   2762   2781   2771     1  0.0000000  1.2552000  3
   2762   2761   2759   2778     1  0.0000000  0.6508444  3
   2762   2761   2768   2770     1  0.0000000  1.0460000  1
   2762   2761   2768   2770     1  0.0000000  0.6694400  3
   2762   2763   2767   2777     1  0.0000000  1.0460000  1
   2762   2763   2767   2777     1  0.0000000  0.6694400  3
   2763   2762   2761   2765     1  0.0000000  0.6508444  3
   2763   2762   2781   2771     1  0.0000000  1.2552000  3
   2764   2762   2761   2768     1  0.0000000  1.0460000  1
   2764   2762   2761   2768     1  0.0000000  0.0000000  3
   2764   2762   2761   2765     1  0.0000000  0.6508444  3
   2764   2762   2763   2767     1  0.0000000  1.0460000  1
   2764   2762   2763   2767     1  0.0000000  0.0000000  3
   2764   2762   2763   2776     1  0.0000000  1.0460000  1
   2764   2762   2763   2776     1  0.0000000  0.0000000  3
   2764   2762   2763   2766     1  0.0000000  0.6508444  3
   2764   2762   2781   2771     1  0.0000000  1.2552000  3
   2765   2761   2759   2779     1  0.0000000  1.0460000  1
   2765   2761   2759   2779     1  0.0000000  0.0000000  3
   2765   2761   2759   2778     1  0.0000000  0.6508444  3
   2765   2761   2762   2781     1  0.0000000  0.6508444  3
   2765   2761   2768   2770     1  0.0000000  0.6973333  3
   2766   2763   2762   2781     1  0.0000000  0.6508444  3
   2766   2763   2767   2777     1  0.0000000  0.6973333  3
   2768   2761   2759   2778     1  0.0000000  1.0460000  1
   2768   2761   2759   2778     1  0.0000000  0.0000000  3
   2769   2758   2759   2778     1  0.0000000  0.6508444  3
   2772   2769   2758   2776     1  0.0000000  1.0460000  1
   2772   2769   2758   2776     1  0.0000000  0.0000000  3
   2772   2769   2774   2775     1  0.0000000  0.6973333  3
   2773   2769   2758   2776     1  0.0000000  1.0460000  1
   2773   2769   2758   2776     1  0.0000000  0.0000000  3
   2773   2769   2774   2775     1  0.0000000  0.6973333  3
   2776   2758   2759   2778     1  0.0000000  1.0460000  1
   2776   2758   2759   2778     1  0.0000000  0.0000000  3
   2776   2763   2767   2777     1  0.0000000  0.6973333  3
   2778   2759   2779   2780     1  0.0000000  0.6973333  3
   2782   2784   2786   2788     1  0.0000000  0.6508444  3
   2782   2784   2786   2789     1  0.0000000  0.6508444  3
   2783   2782   2784   2786     1  0.0000000  0.0000000  2
   2783   2782   2784   2785     1  0.0000000  0.0000000  2
   2783   2782   2784   2787     1  0.0000000  0.0000000  2
   2785   2784   2786   2790     1  0.0000000  0.6508444  3
   2785   2784   2786   2788     1  0.0000000  0.6508444  3
   2785   2784   2786   2789     1  0.0000000  0.6508444  3
   2786   2790   2791   2800     1  0.0000000  1.2552000  3
   2786   2790   2791   2801     1  0.0000000  1.2552000  3
   2786   2790   2792   2793     1  0.0000000  1.2552000  3
   2786   2790   2792   2795     1  0.0000000  1.2552000  3
   2787   2784   2786   2790     1  0.0000000  0.6508444  3
   2787   2784   2786   2788     1  0.0000000  0.6508444  3
   2787   2784   2786   2789     1  0.0000000  0.6508444  3
   2788   2786   2790   2791     1  0.0000000  1.2552000  3
   2788   2786   2790   2792     1  0.0000000  1.2552000  3
   2789   2786   2790   2791     1  0.0000000  1.2552000  3
   2789   2786   2790   2792     1  0.0000000  1.2552000  3
   2790   2791   2802   2803     1  0.0000000  0.6508444  3
   2790   2791   2802   2804     1  0.0000000  0.6508444  3
   2790   2792   2794   2796     1  0.0000000  0.6508444  3
   2790   2792   2794   2797     1  0.0000000  0.6508444  3
   2791   2790   2792   2793     1  0.0000000  1.2552000  3
   2791   2790   2792   2795     1  0.0000000  1.2552000  3
   2792   2790   2791   2800     1  0.0000000  1.2552000  3
   2792   2790   2791   2801     1  0.0000000  1.2552000  3
   2793   2792   2794   2798     1  0.0000000  0.6508444  3
   2793   2792   2794   2796     1  0.0000000  0.6508444  3
   2793   2792   2794   2797     1  0.0000000  0.6508444  3
   2794   2798   2830   2820     1  180.0000771  6.0668000  2
   2794   2798   2830   2820     1  180.0000771  1.4644000  4
   2795   2792   2794   2798     1  0.0000000  0.6508444  3
   2795   2792   2794   2796     1  0.0000000  0.6508444  3
   2795   2792   2794   2797     1  0.0000000  0.6508444  3
   2796   2794   2798   2799     1  0.0000000  3.3472000  1
   2796   2794   2798   2799     1  0.0000000  0.0000000  2
   2796   2794   2798   2799     1  180.0000771  0.3347200  3
   2796   2794   2798   2830     1  180.0000771  0.0000000  2
   2797   2794   2798   2799     1  0.0000000  3.3472000  1
   2797   2794   2798   2799     1  0.0000000  0.0000000  2
   2797   2794   2798   2799     1  180.0000771  0.3347200  3
   2797   2794   2798   2830     1  180.0000771  0.0000000  2
   2798   2830   2811   2813     1  0.0000000  1.2552000  3
   2799   2798   2830   2820     1  180.0000771  6.0668000  2
   2799   2798   2830   2820     1  180.0000771  1.4644000  4
   2800   2791   2802   2805     1  0.0000000  0.6508444  3
   2800   2791   2802   2803     1  0.0000000  0.6508444  3
   2800   2791   2802   2804     1  0.0000000  0.6508444  3
   2801   2791   2802   2805     1  0.0000000  0.6508444  3
   2801   2791   2802   2803     1  0.0000000  0.6508444  3
   2801   2791   2802   2804     1  0.0000000  0.6508444  3
   2802   2805   2854   2844     1  180.0000771  6.0668000  2
   2802   2805   2854   2844     1  180.0000771  1.4644000  4
   2803   2802   2805   2806     1  0.0000000  3.3472000  1
   2803   2802   2805   2806     1  0.0000000  0.0000000  2
   2803   2802   2805   2806     1  180.0000771  0.3347200  3
   2803   2802   2805   2854     1  180.0000771  0.0000000  2
   2804   2802   2805   2806     1  0.0000000  3.3472000  1
   2804   2802   2805   2806     1  0.0000000  0.0000000  2
   2804   2802   2805   2806     1  180.0000771  0.3347200  3
   2804   2802   2805   2854     1  180.0000771  0.0000000  2
   2805   2854   2835   2837     1  0.0000000  1.2552000  3
   2806   2805   2854   2844     1  180.0000771  6.0668000  2
   2806   2805   2854   2844     1  180.0000771  1.4644000  4
   2807   2808   2810   2814     1  0.0000000  0.6508444  3
   2807   2808   2828   2829     1  0.0000000  1.0460000  1
   2807   2808   2828   2829     1  0.0000000  0.6694400  3
   2807   2818   2823   2824     1  0.0000000  1.0460000  1
   2807   2818   2823   2824     1  0.0000000  0.6694400  3
   2807   2825   2812   2815     1  0.0000000  1.6038667  3
   2808   2810   2811   2813     1  0.0000000  0.6508444  3
   2808   2810   2817   2819     1  0.0000000  1.0460000  1
   2808   2810   2817   2819     1  0.0000000  0.6694400  3
   2808   2807   2818   2821     1  0.0000000  0.6508444  3
   2808   2807   2818   2822     1  0.0000000  0.6508444  3
   2809   2807   2808   2810     1  0.0000000  0.6508444  3
   2809   2807   2808   2828     1  0.0000000  1.0460000  1
   2809   2807   2808   2828     1  0.0000000  0.0000000  3
   2809   2807   2808   2827     1  0.0000000  0.6508444  3
   2809   2807   2818   2823     1  0.0000000  1.0460000  1
   2809   2807   2818   2823     1  0.0000000  0.0000000  3
   2809   2807   2818   2821     1  0.0000000  0.6508444  3
   2809   2807   2818   2822     1  0.0000000  0.6508444  3
   2809   2807   2825   2812     1  0.0000000  1.6038667  3
   2810   2811   2812   2815     1  0.0000000  0.6508444  3
   2810   2811   2830   2820     1  0.0000000  1.2552000  3
   2810   2808   2828   2829     1  0.0000000  1.0460000  1
   2810   2808   2828   2829     1  0.0000000  0.6694400  3
   2811   2812   2816   2826     1  0.0000000  1.0460000  1
   2811   2812   2816   2826     1  0.0000000  0.6694400  3
   2811   2810   2817   2819     1  0.0000000  1.0460000  1
   2811   2810   2817   2819     1  0.0000000  0.6694400  3
   2811   2810   2808   2827     1  0.0000000  0.6508444  3
   2812   2811   2830   2820     1  0.0000000  1.2552000  3
   2812   2811   2810   2814     1  0.0000000  0.6508444  3
   2813   2811   2812   2816     1  0.0000000  1.0460000  1
   2813   2811   2812   2816     1  0.0000000  0.0000000  3
   2813   2811   2812   2825     1  0.0000000  1.0460000  1
   2813   2811   2812   2825     1  0.0000000  0.0000000  3
   2813   2811   2812   2815     1  0.0000000  0.6508444  3
   2813   2811   2830   2820     1  0.0000000  1.2552000  3
   2813   2811   2810   2817     1  0.0000000  1.0460000  1
   2813   2811   2810   2817     1  0.0000000  0.0000000  3
   2813   2811   2810   2814     1  0.0000000  0.6508444  3
   2814   2810   2811   2830     1  0.0000000  0.6508444  3
   2814   2810   2817   2819     1  0.0000000  0.6973333  3
   2814   2810   2808   2828     1  0.0000000  1.0460000  1
   2814   2810   2808   2828     1  0.0000000  0.0000000  3
   2814   2810   2808   2827     1  0.0000000  0.6508444  3
   2815   2812   2816   2826     1  0.0000000  0.6973333  3
   2815   2812   2811   2830     1  0.0000000  0.6508444  3
   2817   2810   2808   2827     1  0.0000000  1.0460000  1
   2817   2810   2808   2827     1  0.0000000  0.0000000  3
   2818   2807   2808   2827     1  0.0000000  0.6508444  3
   2821   2818   2823   2824     1  0.0000000  0.6973333  3
   2821   2818   2807   2825     1  0.0000000  1.0460000  1
   2821   2818   2807   2825     1  0.0000000  0.0000000  3
   2822   2818   2823   2824     1  0.0000000  0.6973333  3
   2822   2818   2807   2825     1  0.0000000  1.0460000  1
   2822   2818   2807   2825     1  0.0000000  0.0000000  3
   2825   2812   2816   2826     1  0.0000000  0.6973333  3
   2825   2807   2808   2827     1  0.0000000  1.0460000  1
   2825   2807   2808   2827     1  0.0000000  0.0000000  3
   2827   2808   2828   2829     1  0.0000000  0.6973333  3
   2831   2832   2834   2838     1  0.0000000  0.6508444  3
   2831   2832   2852   2853     1  0.0000000  1.0460000  1
   2831   2832   2852   2853     1  0.0000000  0.6694400  3
   2831   2842   2847   2848     1  0.0000000  1.0460000  1
   2831   2842   2847   2848     1  0.0000000  0.6694400  3
   2831   2849   2836   2839     1  0.0000000  1.6038667  3
   2832   2834   2835   2837     1  0.0000000  0.6508444  3
   2832   2834   2841   2843     1  0.0000000  1.0460000  1
   2832   2834   2841   2843     1  0.0000000  0.6694400  3
   2832   2831   2842   2845     1  0.0000000  0.6508444  3
   2832   2831   2842   2846     1  0.0000000  0.6508444  3
   2833   2831   2832   2834     1  0.0000000  0.6508444  3
   2833   2831   2832   2852     1  0.0000000  1.0460000  1
   2833   2831   2832   2852     1  0.0000000  0.0000000  3
   2833   2831   2832   2851     1  0.0000000  0.6508444  3
   2833   2831   2842   2847     1  0.0000000  1.0460000  1
   2833   2831   2842   2847     1  0.0000000  0.0000000  3
   2833   2831   2842   2845     1  0.0000000  0.6508444  3
   2833   2831   2842   2846     1  0.0000000  0.6508444  3
   2833   2831   2849   2836     1  0.0000000  1.6038667  3
   2834   2835   2836   2839     1  0.0000000  0.6508444  3
   2834   2835   2854   2844     1  0.0000000  1.2552000  3
   2834   2832   2852   2853     1  0.0000000  1.0460000  1
   2834   2832   2852   2853     1  0.0000000  0.6694400  3
   2835   2836   2840   2850     1  0.0000000  1.0460000  1
   2835   2836   2840   2850     1  0.0000000  0.6694400  3
   2835   2834   2841   2843     1  0.0000000  1.0460000  1
   2835   2834   2841   2843     1  0.0000000  0.6694400  3
   2835   2834   2832   2851     1  0.0000000  0.6508444  3
   2836   2835   2854   2844     1  0.0000000  1.2552000  3
   2836   2835   2834   2838     1  0.0000000  0.6508444  3
   2837   2835   2836   2840     1  0.0000000  1.0460000  1
   2837   2835   2836   2840     1  0.0000000  0.0000000  3
   2837   2835   2836   2849     1  0.0000000  1.0460000  1
   2837   2835   2836   2849     1  0.0000000  0.0000000  3
   2837   2835   2836   2839     1  0.0000000  0.6508444  3
   2837   2835   2854   2844     1  0.0000000  1.2552000  3
   2837   2835   2834   2841     1  0.0000000  1.0460000  1
   2837   2835   2834   2841     1  0.0000000  0.0000000  3
   2837   2835   2834   2838     1  0.0000000  0.6508444  3
   2838   2834   2835   2854     1  0.0000000  0.6508444  3
   2838   2834   2841   2843     1  0.0000000  0.6973333  3
   2838   2834   2832   2852     1  0.0000000  1.0460000  1
   2838   2834   2832   2852     1  0.0000000  0.0000000  3
   2838   2834   2832   2851     1  0.0000000  0.6508444  3
   2839   2836   2840   2850     1  0.0000000  0.6973333  3
   2839   2836   2835   2854     1  0.0000000  0.6508444  3
   2841   2834   2832   2851     1  0.0000000  1.0460000  1
   2841   2834   2832   2851     1  0.0000000  0.0000000  3
   2842   2831   2832   2851     1  0.0000000  0.6508444  3
   2845   2842   2847   2848     1  0.0000000  0.6973333  3
   2845   2842   2831   2849     1  0.0000000  1.0460000  1
   2845   2842   2831   2849     1  0.0000000  0.0000000  3
   2846   2842   2847   2848     1  0.0000000  0.6973333  3
   2846   2842   2831   2849     1  0.0000000  1.0460000  1
   2846   2842   2831   2849     1  0.0000000  0.0000000  3
   2849   2836   2840   2850     1  0.0000000  0.6973333  3
   2849   2831   2832   2851     1  0.0000000  1.0460000  1
   2849   2831   2832   2851     1  0.0000000  0.0000000  3
   2851   2832   2852   2853     1  0.0000000  0.6973333  3
   2855   2857   2859   2861     1  0.0000000  0.6508444  3
   2855   2857   2859   2862     1  0.0000000  0.6508444  3
   2856   2855   2857   2859     1  0.0000000  0.0000000  2
   2856   2855   2857   2858     1  0.0000000  0.0000000  2
   2856   2855   2857   2860     1  0.0000000  0.0000000  2
   2858   2857   2859   2863     1  0.0000000  0.6508444  3
   2858   2857   2859   2861     1  0.0000000  0.6508444  3
   2858   2857   2859   2862     1  0.0000000  0.6508444  3
   2859   2863   2864   2873     1  0.0000000  1.2552000  3
   2859   2863   2864   2874     1  0.0000000  1.2552000  3
   2859   2863   2865   2866     1  0.0000000  1.2552000  3
   2859   2863   2865   2868     1  0.0000000  1.2552000  3
   2860   2857   2859   2863     1  0.0000000  0.6508444  3
   2860   2857   2859   2861     1  0.0000000  0.6508444  3
   2860   2857   2859   2862     1  0.0000000  0.6508444  3
   2861   2859   2863   2864     1  0.0000000  1.2552000  3
   2861   2859   2863   2865     1  0.0000000  1.2552000  3
   2862   2859   2863   2864     1  0.0000000  1.2552000  3
   2862   2859   2863   2865     1  0.0000000  1.2552000  3
   2863   2864   2875   2876     1  0.0000000  0.6508444  3
   2863   2864   2875   2877     1  0.0000000  0.6508444  3
   2863   2865   2867   2869     1  0.0000000  0.6508444  3
   2863   2865   2867   2870     1  0.0000000  0.6508444  3
   2864   2863   2865   2866     1  0.0000000  1.2552000  3
   2864   2863   2865   2868     1  0.0000000  1.2552000  3
   2865   2863   2864   2873     1  0.0000000  1.2552000  3
   2865   2863   2864   2874     1  0.0000000  1.2552000  3
   2866   2865   2867   2871     1  0.0000000  0.6508444  3
   2866   2865   2867   2869     1  0.0000000  0.6508444  3
   2866   2865   2867   2870     1  0.0000000  0.6508444  3
   2867   2871   2903   2893     1  180.0000771  6.0668000  2
   2867   2871   2903   2893     1  180.0000771  1.4644000  4
   2868   2865   2867   2871     1  0.0000000  0.6508444  3
   2868   2865   2867   2869     1  0.0000000  0.6508444  3
   2868   2865   2867   2870     1  0.0000000  0.6508444  3
   2869   2867   2871   2872     1  0.0000000  3.3472000  1
   2869   2867   2871   2872     1  0.0000000  0.0000000  2
   2869   2867   2871   2872     1  180.0000771  0.3347200  3
   2869   2867   2871   2903     1  180.0000771  0.0000000  2
   2870   2867   2871   2872     1  0.0000000  3.3472000  1
   2870   2867   2871   2872     1  0.0000000  0.0000000  2
   2870   2867   2871   2872     1  180.0000771  0.3347200  3
   2870   2867   2871   2903     1  180.0000771  0.0000000  2
   2871   2903   2884   2886     1  0.0000000  1.2552000  3
   2872   2871   2903   2893     1  180.0000771  6.0668000  2
   2872   2871   2903   2893     1  180.0000771  1.4644000  4
   2873   2864   2875   2878     1  0.0000000  0.6508444  3
   2873   2864   2875   2876     1  0.0000000  0.6508444  3
   2873   2864   2875   2877     1  0.0000000  0.6508444  3
   2874   2864   2875   2878     1  0.0000000  0.6508444  3
   2874   2864   2875   2876     1  0.0000000  0.6508444  3
   2874   2864   2875   2877     1  0.0000000  0.6508444  3
   2875   2878   2927   2917     1  180.0000771  6.0668000  2
   2875   2878   2927   2917     1  180.0000771  1.4644000  4
   2876   2875   2878   2879     1  0.0000000  3.3472000  1
   2876   2875   2878   2879     1  0.0000000  0.0000000  2
   2876   2875   2878   2879     1  180.0000771  0.3347200  3
   2876   2875   2878   2927     1  180.0000771  0.0000000  2
   2877   2875   2878   2879     1  0.0000000  3.3472000  1
   2877   2875   2878   2879     1  0.0000000  0.0000000  2
   2877   2875   2878   2879     1  180.0000771  0.3347200  3
   2877   2875   2878   2927     1  180.0000771  0.0000000  2
   2878   2927   2908   2910     1  0.0000000  1.2552000  3
   2879   2878   2927   2917     1  180.0000771  6.0668000  2
   2879   2878   2927   2917     1  180.0000771  1.4644000  4
   2880   2881   2883   2887     1  0.0000000  0.6508444  3
   2880   2881   2901   2902     1  0.0000000  1.0460000  1
   2880   2881   2901   2902     1  0.0000000  0.6694400  3
   2880   2891   2896   2897     1  0.0000000  1.0460000  1
   2880   2891   2896   2897     1  0.0000000  0.6694400  3
   2880   2898   2885   2888     1  0.0000000  1.6038667  3
   2881   2880   2891   2894     1  0.0000000  0.6508444  3
   2881   2880   2891   2895     1  0.0000000  0.6508444  3
   2881   2883   2884   2886     1  0.0000000  0.6508444  3
   2881   2883   2890   2892     1  0.0000000  1.0460000  1
   2881   2883   2890   2892     1  0.0000000  0.6694400  3
   2882   2880   2881   2883     1  0.0000000  0.6508444  3
   2882   2880   2881   2901     1  0.0000000  1.0460000  1
   2882   2880   2881   2901     1  0.0000000  0.0000000  3
   2882   2880   2881   2900     1  0.0000000  0.6508444  3
   2882   2880   2891   2896     1  0.0000000  1.0460000  1
   2882   2880   2891   2896     1  0.0000000  0.0000000  3
   2882   2880   2891   2894     1  0.0000000  0.6508444  3
   2882   2880   2891   2895     1  0.0000000  0.6508444  3
   2882   2880   2898   2885     1  0.0000000  1.6038667  3
   2883   2881   2901   2902     1  0.0000000  1.0460000  1
   2883   2881   2901   2902     1  0.0000000  0.6694400  3
   2883   2884   2885   2888     1  0.0000000  0.6508444  3
   2883   2884   2903   2893     1  0.0000000  1.2552000  3
   2884   2883   2881   2900     1  0.0000000  0.6508444  3
   2884   2883   2890   2892     1  0.0000000  1.0460000  1
   2884   2883   2890   2892     1  0.0000000  0.6694400  3
   2884   2885   2889   2899     1  0.0000000  1.0460000  1
   2884   2885   2889   2899     1  0.0000000  0.6694400  3
   2885   2884   2883   2887     1  0.0000000  0.6508444  3
   2885   2884   2903   2893     1  0.0000000  1.2552000  3
   2886   2884   2883   2890     1  0.0000000  1.0460000  1
   2886   2884   2883   2890     1  0.0000000  0.0000000  3
   2886   2884   2883   2887     1  0.0000000  0.6508444  3
   2886   2884   2885   2889     1  0.0000000  1.0460000  1
   2886   2884   2885   2889     1  0.0000000  0.0000000  3
   2886   2884   2885   2898     1  0.0000000  1.0460000  1
   2886   2884   2885   2898     1  0.0000000  0.0000000  3
   2886   2884   2885   2888     1  0.0000000  0.6508444  3
   2886   2884   2903   2893     1  0.0000000  1.2552000  3
   2887   2883   2881   2901     1  0.0000000  1.0460000  1
   2887   2883   2881   2901     1  0.0000000  0.0000000  3
   2887   2883   2881   2900     1  0.0000000  0.6508444  3
   2887   2883   2884   2903     1  0.0000000  0.6508444  3
   2887   2883   2890   2892     1  0.0000000  0.6973333  3
   2888   2885   2884   2903     1  0.0000000  0.6508444  3
   2888   2885   2889   2899     1  0.0000000  0.6973333  3
   2890   2883   2881   2900     1  0.0000000  1.0460000  1
   2890   2883   2881   2900     1  0.0000000  0.0000000  3
   2891   2880   2881   2900     1  0.0000000  0.6508444  3
   2894   2891   2880   2898     1  0.0000000  1.0460000  1
   2894   2891   2880   2898     1  0.0000000  0.0000000  3
   2894   2891   2896   2897     1  0.0000000  0.6973333  3
   2895   2891   2880   2898     1  0.0000000  1.0460000  1
   2895   2891   2880   2898     1  0.0000000  0.0000000  3
   2895   2891   2896   2897     1  0.0000000  0.6973333  3
   2898   2880   2881   2900     1  0.0000000  1.0460000  1
   2898   2880   2881   2900     1  0.0000000  0.0000000  3
   2898   2885   2889   2899     1  0.0000000  0.6973333  3
   2900   2881   2901   2902     1  0.0000000  0.6973333  3
   2904   2905   2907   2911     1  0.0000000  0.6508444  3
   2904   2905   2925   2926     1  0.0000000  1.0460000  1
   2904   2905   2925   2926     1  0.0000000  0.6694400  3
   2904   2915   2920   2921     1  0.0000000  1.0460000  1
   2904   2915   2920   2921     1  0.0000000  0.6694400  3
   2904   2922   2909   2912     1  0.0000000  1.6038667  3
   2905   2904   2915   2918     1  0.0000000  0.6508444  3
   2905   2904   2915   2919     1  0.0000000  0.6508444  3
   2905   2907   2908   2910     1  0.0000000  0.6508444  3
   2905   2907   2914   2916     1  0.0000000  1.0460000  1
   2905   2907   2914   2916     1  0.0000000  0.6694400  3
   2906   2904   2905   2907     1  0.0000000  0.6508444  3
   2906   2904   2905   2925     1  0.0000000  1.0460000  1
   2906   2904   2905   2925     1  0.0000000  0.0000000  3
   2906   2904   2905   2924     1  0.0000000  0.6508444  3
   2906   2904   2915   2920     1  0.0000000  1.0460000  1
   2906   2904   2915   2920     1  0.0000000  0.0000000  3
   2906   2904   2915   2918     1  0.0000000  0.6508444  3
   2906   2904   2915   2919     1  0.0000000  0.6508444  3
   2906   2904   2922   2909     1  0.0000000  1.6038667  3
   2907   2905   2925   2926     1  0.0000000  1.0460000  1
   2907   2905   2925   2926     1  0.0000000  0.6694400  3
   2907   2908   2909   2912     1  0.0000000  0.6508444  3
   2907   2908   2927   2917     1  0.0000000  1.2552000  3
   2908   2907   2905   2924     1  0.0000000  0.6508444  3
   2908   2907   2914   2916     1  0.0000000  1.0460000  1
   2908   2907   2914   2916     1  0.0000000  0.6694400  3
   2908   2909   2913   2923     1  0.0000000  1.0460000  1
   2908   2909   2913   2923     1  0.0000000  0.6694400  3
   2909   2908   2907   2911     1  0.0000000  0.6508444  3
   2909   2908   2927   2917     1  0.0000000  1.2552000  3
   2910   2908   2907   2914     1  0.0000000  1.0460000  1
   2910   2908   2907   2914     1  0.0000000  0.0000000  3
   2910   2908   2907   2911     1  0.0000000  0.6508444  3
   2910   2908   2909   2913     1  0.0000000  1.0460000  1
   2910   2908   2909   2913     1  0.0000000  0.0000000  3
   2910   2908   2909   2922     1  0.0000000  1.0460000  1
   2910   2908   2909   2922     1  0.0000000  0.0000000  3
   2910   2908   2909   2912     1  0.0000000  0.6508444  3
   2910   2908   2927   2917     1  0.0000000  1.2552000  3
   2911   2907   2905   2925     1  0.0000000  1.0460000  1
   2911   2907   2905   2925     1  0.0000000  0.0000000  3
   2911   2907   2905   2924     1  0.0000000  0.6508444  3
   2911   2907   2908   2927     1  0.0000000  0.6508444  3
   2911   2907   2914   2916     1  0.0000000  0.6973333  3
   2912   2909   2908   2927     1  0.0000000  0.6508444  3
   2912   2909   2913   2923     1  0.0000000  0.6973333  3
   2914   2907   2905   2924     1  0.0000000  1.0460000  1
   2914   2907   2905   2924     1  0.0000000  0.0000000  3
   2915   2904   2905   2924     1  0.0000000  0.6508444  3
   2918   2915   2904   2922     1  0.0000000  1.0460000  1
   2918   2915   2904   2922     1  0.0000000  0.0000000  3
   2918   2915   2920   2921     1  0.0000000  0.6973333  3
   2919   2915   2904   2922     1  0.0000000  1.0460000  1
   2919   2915   2904   2922     1  0.0000000  0.0000000  3
   2919   2915   2920   2921     1  0.0000000  0.6973333  3
   2922   2904   2905   2924     1  0.0000000  1.0460000  1
   2922   2904   2905   2924     1  0.0000000  0.0000000  3
   2922   2909   2913   2923     1  0.0000000  0.6973333  3
   2924   2905   2925   2926     1  0.0000000  0.6973333  3
   2928   2930   2932   2934     1  0.0000000  0.6508444  3
   2928   2930   2932   2935     1  0.0000000  0.6508444  3
   2929   2928   2930   2932     1  0.0000000  0.0000000  2
   2929   2928   2930   2931     1  0.0000000  0.0000000  2
   2929   2928   2930   2933     1  0.0000000  0.0000000  2
   2931   2930   2932   2936     1  0.0000000  0.6508444  3
   2931   2930   2932   2934     1  0.0000000  0.6508444  3
   2931   2930   2932   2935     1  0.0000000  0.6508444  3
   2932   2936   2937   2946     1  0.0000000  1.2552000  3
   2932   2936   2937   2947     1  0.0000000  1.2552000  3
   2932   2936   2938   2939     1  0.0000000  1.2552000  3
   2932   2936   2938   2941     1  0.0000000  1.2552000  3
   2933   2930   2932   2936     1  0.0000000  0.6508444  3
   2933   2930   2932   2934     1  0.0000000  0.6508444  3
   2933   2930   2932   2935     1  0.0000000  0.6508444  3
   2934   2932   2936   2937     1  0.0000000  1.2552000  3
   2934   2932   2936   2938     1  0.0000000  1.2552000  3
   2935   2932   2936   2937     1  0.0000000  1.2552000  3
   2935   2932   2936   2938     1  0.0000000  1.2552000  3
   2936   2937   2948   2949     1  0.0000000  0.6508444  3
   2936   2937   2948   2950     1  0.0000000  0.6508444  3
   2936   2938   2940   2942     1  0.0000000  0.6508444  3
   2936   2938   2940   2943     1  0.0000000  0.6508444  3
   2937   2936   2938   2939     1  0.0000000  1.2552000  3
   2937   2936   2938   2941     1  0.0000000  1.2552000  3
   2938   2936   2937   2946     1  0.0000000  1.2552000  3
   2938   2936   2937   2947     1  0.0000000  1.2552000  3
   2939   2938   2940   2944     1  0.0000000  0.6508444  3
   2939   2938   2940   2942     1  0.0000000  0.6508444  3
   2939   2938   2940   2943     1  0.0000000  0.6508444  3
   2940   2944   2976   2966     1  180.0000771  6.0668000  2
   2940   2944   2976   2966     1  180.0000771  1.4644000  4
   2941   2938   2940   2944     1  0.0000000  0.6508444  3
   2941   2938   2940   2942     1  0.0000000  0.6508444  3
   2941   2938   2940   2943     1  0.0000000  0.6508444  3
   2942   2940   2944   2945     1  0.0000000  3.3472000  1
   2942   2940   2944   2945     1  0.0000000  0.0000000  2
   2942   2940   2944   2945     1  180.0000771  0.3347200  3
   2942   2940   2944   2976     1  180.0000771  0.0000000  2
   2943   2940   2944   2945     1  0.0000000  3.3472000  1
   2943   2940   2944   2945     1  0.0000000  0.0000000  2
   2943   2940   2944   2945     1  180.0000771  0.3347200  3
   2943   2940   2944   2976     1  180.0000771  0.0000000  2
   2944   2976   2957   2959     1  0.0000000  1.2552000  3
   2945   2944   2976   2966     1  180.0000771  6.0668000  2
   2945   2944   2976   2966     1  180.0000771  1.4644000  4
   2946   2937   2948   2951     1  0.0000000  0.6508444  3
   2946   2937   2948   2949     1  0.0000000  0.6508444  3
   2946   2937   2948   2950     1  0.0000000  0.6508444  3
   2947   2937   2948   2951     1  0.0000000  0.6508444  3
   2947   2937   2948   2949     1  0.0000000  0.6508444  3
   2947   2937   2948   2950     1  0.0000000  0.6508444  3
   2948   2951   3000   2990     1  180.0000771  6.0668000  2
   2948   2951   3000   2990     1  180.0000771  1.4644000  4
   2949   2948   2951   2952     1  0.0000000  3.3472000  1
   2949   2948   2951   2952     1  0.0000000  0.0000000  2
   2949   2948   2951   2952     1  180.0000771  0.3347200  3
   2949   2948   2951   3000     1  180.0000771  0.0000000  2
   2950   2948   2951   2952     1  0.0000000  3.3472000  1
   2950   2948   2951   2952     1  0.0000000  0.0000000  2
   2950   2948   2951   2952     1  180.0000771  0.3347200  3
   2950   2948   2951   3000     1  180.0000771  0.0000000  2
   2951   3000   2981   2983     1  0.0000000  1.2552000  3
   2952   2951   3000   2990     1  180.0000771  6.0668000  2
   2952   2951   3000   2990     1  180.0000771  1.4644000  4
   2953   2954   2956   2960     1  0.0000000  0.6508444  3
   2953   2954   2974   2975     1  0.0000000  1.0460000  1
   2953   2954   2974   2975     1  0.0000000  0.6694400  3
   2953   2964   2969   2970     1  0.0000000  1.0460000  1
   2953   2964   2969   2970     1  0.0000000  0.6694400  3
   2953   2971   2958   2961     1  0.0000000  1.6038667  3
   2954   2956   2957   2959     1  0.0000000  0.6508444  3
   2954   2956   2963   2965     1  0.0000000  1.0460000  1
   2954   2956   2963   2965     1  0.0000000  0.6694400  3
   2954   2953   2964   2967     1  0.0000000  0.6508444  3
   2954   2953   2964   2968     1  0.0000000  0.6508444  3
   2955   2953   2954   2956     1  0.0000000  0.6508444  3
   2955   2953   2954   2974     1  0.0000000  1.0460000  1
   2955   2953   2954   2974     1  0.0000000  0.0000000  3
   2955   2953   2954   2973     1  0.0000000  0.6508444  3
   2955   2953   2964   2969     1  0.0000000  1.0460000  1
   2955   2953   2964   2969     1  0.0000000  0.0000000  3
   2955   2953   2964   2967     1  0.0000000  0.6508444  3
   2955   2953   2964   2968     1  0.0000000  0.6508444  3
   2955   2953   2971   2958     1  0.0000000  1.6038667  3
   2956   2957   2958   2961     1  0.0000000  0.6508444  3
   2956   2957   2976   2966     1  0.0000000  1.2552000  3
   2956   2954   2974   2975     1  0.0000000  1.0460000  1
   2956   2954   2974   2975     1  0.0000000  0.6694400  3
   2957   2958   2962   2972     1  0.0000000  1.0460000  1
   2957   2958   2962   2972     1  0.0000000  0.6694400  3
   2957   2956   2963   2965     1  0.0000000  1.0460000  1
   2957   2956   2963   2965     1  0.0000000  0.6694400  3
   2957   2956   2954   2973     1  0.0000000  0.6508444  3
   2958   2957   2976   2966     1  0.0000000  1.2552000  3
   2958   2957   2956   2960     1  0.0000000  0.6508444  3
   2959   2957   2958   2962     1  0.0000000  1.0460000  1
   2959   2957   2958   2962     1  0.0000000  0.0000000  3
   2959   2957   2958   2971     1  0.0000000  1.0460000  1
   2959   2957   2958   2971     1  0.0000000  0.0000000  3
   2959   2957   2958   2961     1  0.0000000  0.6508444  3
   2959   2957   2976   2966     1  0.0000000  1.2552000  3
   2959   2957   2956   2963     1  0.0000000  1.0460000  1
   2959   2957   2956   2963     1  0.0000000  0.0000000  3
   2959   2957   2956   2960     1  0.0000000  0.6508444  3
   2960   2956   2957   2976     1  0.0000000  0.6508444  3
   2960   2956   2963   2965     1  0.0000000  0.6973333  3
   2960   2956   2954   2974     1  0.0000000  1.0460000  1
   2960   2956   2954   2974     1  0.0000000  0.0000000  3
   2960   2956   2954   2973     1  0.0000000  0.6508444  3
   2961   2958   2962   2972     1  0.0000000  0.6973333  3
   2961   2958   2957   2976     1  0.0000000  0.6508444  3
   2963   2956   2954   2973     1  0.0000000  1.0460000  1
   2963   2956   2954   2973     1  0.0000000  0.0000000  3
   2964   2953   2954   2973     1  0.0000000  0.6508444  3
   2967   2964   2969   2970     1  0.0000000  0.6973333  3
   2967   2964   2953   2971     1  0.0000000  1.0460000  1
   2967   2964   2953   2971     1  0.0000000  0.0000000  3
   2968   2964   2969   2970     1  0.0000000  0.6973333  3
   2968   2964   2953   2971     1  0.0000000  1.0460000  1
   2968   2964   2953   2971     1  0.0000000  0.0000000  3
   2971   2958   2962   2972     1  0.0000000  0.6973333  3
   2971   2953   2954   2973     1  0.0000000  1.0460000  1
   2971   2953   2954   2973     1  0.0000000  0.0000000  3
   2973   2954   2974   2975     1  0.0000000  0.6973333  3
   2977   2978   2980   2984     1  0.0000000  0.6508444  3
   2977   2978   2998   2999     1  0.0000000  1.0460000  1
   2977   2978   2998   2999     1  0.0000000  0.6694400  3
   2977   2988   2993   2994     1  0.0000000  1.0460000  1
   2977   2988   2993   2994     1  0.0000000  0.6694400  3
   2977   2995   2982   2985     1  0.0000000  1.6038667  3
   2978   2980   2981   2983     1  0.0000000  0.6508444  3
   2978   2980   2987   2989     1  0.0000000  1.0460000  1
   2978   2980   2987   2989     1  0.0000000  0.6694400  3
   2978   2977   2988   2991     1  0.0000000  0.6508444  3
   2978   2977   2988   2992     1  0.0000000  0.6508444  3
   2979   2977   2978   2980     1  0.0000000  0.6508444  3
   2979   2977   2978   2998     1  0.0000000  1.0460000  1
   2979   2977   2978   2998     1  0.0000000  0.0000000  3
   2979   2977   2978   2997     1  0.0000000  0.6508444  3
   2979   2977   2988   2993     1  0.0000000  1.0460000  1
   2979   2977   2988   2993     1  0.0000000  0.0000000  3
   2979   2977   2988   2991     1  0.0000000  0.6508444  3
   2979   2977   2988   2992     1  0.0000000  0.6508444  3
   2979   2977   2995   2982     1  0.0000000  1.6038667  3
   2980   2981   2982   2985     1  0.0000000  0.6508444  3
   2980   2981   3000   2990     1  0.0000000  1.2552000  3
   2980   2978   2998   2999     1  0.0000000  1.0460000  1
   2980   2978   2998   2999     1  0.0000000  0.6694400  3
   2981   2982   2986   2996     1  0.0000000  1.0460000  1
   2981   2982   2986   2996     1  0.0000000  0.6694400  3
   2981   2980   2987   2989     1  0.0000000  1.0460000  1
   2981   2980   2987   2989     1  0.0000000  0.6694400  3
   2981   2980   2978   2997     1  0.0000000  0.6508444  3
   2982   2981   3000   2990     1  0.0000000  1.2552000  3
   2982   2981   2980   2984     1  0.0000000  0.6508444  3
   2983   2981   2982   2986     1  0.0000000  1.0460000  1
   2983   2981   2982   2986     1  0.0000000  0.0000000  3
   2983   2981   2982   2995     1  0.0000000  1.0460000  1
   2983   2981   2982   2995     1  0.0000000  0.0000000  3
   2983   2981   2982   2985     1  0.0000000  0.6508444  3
   2983   2981   3000   2990     1  0.0000000  1.2552000  3
   2983   2981   2980   2987     1  0.0000000  1.0460000  1
   2983   2981   2980   2987     1  0.0000000  0.0000000  3
   2983   2981   2980   2984     1  0.0000000  0.6508444  3
   2984   2980   2981   3000     1  0.0000000  0.6508444  3
   2984   2980   2987   2989     1  0.0000000  0.6973333  3
   2984   2980   2978   2998     1  0.0000000  1.0460000  1
   2984   2980   2978   2998     1  0.0000000  0.0000000  3
   2984   2980   2978   2997     1  0.0000000  0.6508444  3
   2985   2982   2986   2996     1  0.0000000  0.6973333  3
   2985   2982   2981   3000     1  0.0000000  0.6508444  3
   2987   2980   2978   2997     1  0.0000000  1.0460000  1
   2987   2980   2978   2997     1  0.0000000  0.0000000  3
   2988   2977   2978   2997     1  0.0000000  0.6508444  3
   2991   2988   2993   2994     1  0.0000000  0.6973333  3
   2991   2988   2977   2995     1  0.0000000  1.0460000  1
   2991   2988   2977   2995     1  0.0000000  0.0000000  3
   2992   2988   2993   2994     1  0.0000000  0.6973333  3
   2992   2988   2977   2995     1  0.0000000  1.0460000  1
   2992   2988   2977   2995     1  0.0000000  0.0000000  3
   2995   2982   2986   2996     1  0.0000000  0.6973333  3
   2995   2977   2978   2997     1  0.0000000  1.0460000  1
   2995   2977   2978   2997     1  0.0000000  0.0000000  3
   2997   2978   2998   2999     1  0.0000000  0.6973333  3
   3001   3003   3005   3007     1  0.0000000  0.6508444  3
   3001   3003   3005   3008     1  0.0000000  0.6508444  3
   3002   3001   3003   3005     1  0.0000000  0.0000000  2
   3002   3001   3003   3004     1  0.0000000  0.0000000  2
   3002   3001   3003   3006     1  0.0000000  0.0000000  2
   3004   3003   3005   3009     1  0.0000000  0.6508444  3
   3004   3003   3005   3007     1  0.0000000  0.6508444  3
   3004   3003   3005   3008     1  0.0000000  0.6508444  3
   3005   3009   3010   3019     1  0.0000000  1.2552000  3
   3005   3009   3010   3020     1  0.0000000  1.2552000  3
   3005   3009   3011   3012     1  0.0000000  1.2552000  3
   3005   3009   3011   3014     1  0.0000000  1.2552000  3
   3006   3003   3005   3009     1  0.0000000  0.6508444  3
   3006   3003   3005   3007     1  0.0000000  0.6508444  3
   3006   3003   3005   3008     1  0.0000000  0.6508444  3
   3007   3005   3009   3010     1  0.0000000  1.2552000  3
   3007   3005   3009   3011     1  0.0000000  1.2552000  3
   3008   3005   3009   3010     1  0.0000000  1.2552000  3
   3008   3005   3009   3011     1  0.0000000  1.2552000  3
   3009   3010   3021   3022     1  0.0000000  0.6508444  3
   3009   3010   3021   3023     1  0.0000000  0.6508444  3
   3009   3011   3013   3015     1  0.0000000  0.6508444  3
   3009   3011   3013   3016     1  0.0000000  0.6508444  3
   3010   3009   3011   3012     1  0.0000000  1.2552000  3
   3010   3009   3011   3014     1  0.0000000  1.2552000  3
   3011   3009   3010   3019     1  0.0000000  1.2552000  3
   3011   3009   3010   3020     1  0.0000000  1.2552000  3
   3012   3011   3013   3017     1  0.0000000  0.6508444  3
   3012   3011   3013   3015     1  0.0000000  0.6508444  3
   3012   3011   3013   3016     1  0.0000000  0.6508444  3
   3013   3017   3049   3039     1  180.0000771  6.0668000  2
   3013   3017   3049   3039     1  180.0000771  1.4644000  4
   3014   3011   3013   3017     1  0.0000000  0.6508444  3
   3014   3011   3013   3015     1  0.0000000  0.6508444  3
   3014   3011   3013   3016     1  0.0000000  0.6508444  3
   3015   3013   3017   3018     1  0.0000000  3.3472000  1
   3015   3013   3017   3018     1  0.0000000  0.0000000  2
   3015   3013   3017   3018     1  180.0000771  0.3347200  3
   3015   3013   3017   3049     1  180.0000771  0.0000000  2
   3016   3013   3017   3018     1  0.0000000  3.3472000  1
   3016   3013   3017   3018     1  0.0000000  0.0000000  2
   3016   3013   3017   3018     1  180.0000771  0.3347200  3
   3016   3013   3017   3049     1  180.0000771  0.0000000  2
   3017   3049   3030   3032     1  0.0000000  1.2552000  3
   3018   3017   3049   3039     1  180.0000771  6.0668000  2
   3018   3017   3049   3039     1  180.0000771  1.4644000  4
   3019   3010   3021   3024     1  0.0000000  0.6508444  3
   3019   3010   3021   3022     1  0.0000000  0.6508444  3
   3019   3010   3021   3023     1  0.0000000  0.6508444  3
   3020   3010   3021   3024     1  0.0000000  0.6508444  3
   3020   3010   3021   3022     1  0.0000000  0.6508444  3
   3020   3010   3021   3023     1  0.0000000  0.6508444  3
   3021   3024   3073   3063     1  180.0000771  6.0668000  2
   3021   3024   3073   3063     1  180.0000771  1.4644000  4
   3022   3021   3024   3025     1  0.0000000  3.3472000  1
   3022   3021   3024   3025     1  0.0000000  0.0000000  2
   3022   3021   3024   3025     1  180.0000771  0.3347200  3
   3022   3021   3024   3073     1  180.0000771  0.0000000  2
   3023   3021   3024   3025     1  0.0000000  3.3472000  1
   3023   3021   3024   3025     1  0.0000000  0.0000000  2
   3023   3021   3024   3025     1  180.0000771  0.3347200  3
   3023   3021   3024   3073     1  180.0000771  0.0000000  2
   3024   3073   3054   3056     1  0.0000000  1.2552000  3
   3025   3024   3073   3063     1  180.0000771  6.0668000  2
   3025   3024   3073   3063     1  180.0000771  1.4644000  4
   3026   3027   3029   3033     1  0.0000000  0.6508444  3
   3026   3027   3047   3048     1  0.0000000  1.0460000  1
   3026   3027   3047   3048     1  0.0000000  0.6694400  3
   3026   3037   3042   3043     1  0.0000000  1.0460000  1
   3026   3037   3042   3043     1  0.0000000  0.6694400  3
   3026   3044   3031   3034     1  0.0000000  1.6038667  3
   3027   3026   3037   3040     1  0.0000000  0.6508444  3
   3027   3026   3037   3041     1  0.0000000  0.6508444  3
   3027   3029   3030   3032     1  0.0000000  0.6508444  3
   3027   3029   3036   3038     1  0.0000000  1.0460000  1
   3027   3029   3036   3038     1  0.0000000  0.6694400  3
   3028   3026   3027   3029     1  0.0000000  0.6508444  3
   3028   3026   3027   3047     1  0.0000000  1.0460000  1
   3028   3026   3027   3047     1  0.0000000  0.0000000  3
   3028   3026   3027   3046     1  0.0000000  0.6508444  3
   3028   3026   3037   3042     1  0.0000000  1.0460000  1
   3028   3026   3037   3042     1  0.0000000  0.0000000  3
   3028   3026   3037   3040     1  0.0000000  0.6508444  3
   3028   3026   3037   3041     1  0.0000000  0.6508444  3
   3028   3026   3044   3031     1  0.0000000  1.6038667  3
   3029   3027   3047   3048     1  0.0000000  1.0460000  1
   3029   3027   3047   3048     1  0.0000000  0.6694400  3
   3029   3030   3031   3034     1  0.0000000  0.6508444  3
   3029   3030   3049   3039     1  0.0000000  1.2552000  3
   3030   3029   3027   3046     1  0.0000000  0.6508444  3
   3030   3029   3036   3038     1  0.0000000  1.0460000  1
   3030   3029   3036   3038     1  0.0000000  0.6694400  3
   3030   3031   3035   3045     1  0.0000000  1.0460000  1
   3030   3031   3035   3045     1  0.0000000  0.6694400  3
   3031   3030   3029   3033     1  0.0000000  0.6508444  3
   3031   3030   3049   3039     1  0.0000000  1.2552000  3
   3032   3030   3029   3036     1  0.0000000  1.0460000  1
   3032   3030   3029   3036     1  0.0000000  0.0000000  3
   3032   3030   3029   3033     1  0.0000000  0.6508444  3
   3032   3030   3031   3035     1  0.0000000  1.0460000  1
   3032   3030   3031   3035     1  0.0000000  0.0000000  3
   3032   3030   3031   3044     1  0.0000000  1.0460000  1
   3032   3030   3031   3044     1  0.0000000  0.0000000  3
   3032   3030   3031   3034     1  0.0000000  0.6508444  3
   3032   3030   3049   3039     1  0.0000000  1.2552000  3
   3033   3029   3027   3047     1  0.0000000  1.0460000  1
   3033   3029   3027   3047     1  0.0000000  0.0000000  3
   3033   3029   3027   3046     1  0.0000000  0.6508444  3
   3033   3029   3030   3049     1  0.0000000  0.6508444  3
   3033   3029   3036   3038     1  0.0000000  0.6973333  3
   3034   3031   3030   3049     1  0.0000000  0.6508444  3
   3034   3031   3035   3045     1  0.0000000  0.6973333  3
   3036   3029   3027   3046     1  0.0000000  1.0460000  1
   3036   3029   3027   3046     1  0.0000000  0.0000000  3
   3037   3026   3027   3046     1  0.0000000  0.6508444  3
   3040   3037   3026   3044     1  0.0000000  1.0460000  1
   3040   3037   3026   3044     1  0.0000000  0.0000000  3
   3040   3037   3042   3043     1  0.0000000  0.6973333  3
   3041   3037   3026   3044     1  0.0000000  1.0460000  1
   3041   3037   3026   3044     1  0.0000000  0.0000000  3
   3041   3037   3042   3043     1  0.0000000  0.6973333  3
   3044   3026   3027   3046     1  0.0000000  1.0460000  1
   3044   3026   3027   3046     1  0.0000000  0.0000000  3
   3044   3031   3035   3045     1  0.0000000  0.6973333  3
   3046   3027   3047   3048     1  0.0000000  0.6973333  3
   3050   3051   3053   3057     1  0.0000000  0.6508444  3
   3050   3051   3071   3072     1  0.0000000  1.0460000  1
   3050   3051   3071   3072     1  0.0000000  0.6694400  3
   3050   3061   3066   3067     1  0.0000000  1.0460000  1
   3050   3061   3066   3067     1  0.0000000  0.6694400  3
   3050   3068   3055   3058     1  0.0000000  1.6038667  3
   3051   3050   3061   3064     1  0.0000000  0.6508444  3
   3051   3050   3061   3065     1  0.0000000  0.6508444  3
   3051   3053   3054   3056     1  0.0000000  0.6508444  3
   3051   3053   3060   3062     1  0.0000000  1.0460000  1
   3051   3053   3060   3062     1  0.0000000  0.6694400  3
   3052   3050   3051   3053     1  0.0000000  0.6508444  3
   3052   3050   3051   3071     1  0.0000000  1.0460000  1
   3052   3050   3051   3071     1  0.0000000  0.0000000  3
   3052   3050   3051   3070     1  0.0000000  0.6508444  3
   3052   3050   3061   3066     1  0.0000000  1.0460000  1
   3052   3050   3061   3066     1  0.0000000  0.0000000  3
   3052   3050   3061   3064     1  0.0000000  0.6508444  3
   3052   3050   3061   3065     1  0.0000000  0.6508444  3
   3052   3050   3068   3055     1  0.0000000  1.6038667  3
   3053   3051   3071   3072     1  0.0000000  1.0460000  1
   3053   3051   3071   3072     1  0.0000000  0.6694400  3
   3053   3054   3055   3058     1  0.0000000  0.6508444  3
   3053   3054   3073   3063     1  0.0000000  1.2552000  3
   3054   3053   3051   3070     1  0.0000000  0.6508444  3
   3054   3053   3060   3062     1  0.0000000  1.0460000  1
   3054   3053   3060   3062     1  0.0000000  0.6694400  3
   3054   3055   3059   3069     1  0.0000000  1.0460000  1
   3054   3055   3059   3069     1  0.0000000  0.6694400  3
   3055   3054   3053   3057     1  0.0000000  0.6508444  3
   3055   3054   3073   3063     1  0.0000000  1.2552000  3
   3056   3054   3053   3060     1  0.0000000  1.0460000  1
   3056   3054   3053   3060     1  0.0000000  0.0000000  3
   3056   3054   3053   3057     1  0.0000000  0.6508444  3
   3056   3054   3055   3059     1  0.0000000  1.0460000  1
   3056   3054   3055   3059     1  0.0000000  0.0000000  3
   3056   3054   3055   3068     1  0.0000000  1.0460000  1
   3056   3054   3055   3068     1  0.0000000  0.0000000  3
   3056   3054   3055   3058     1  0.0000000  0.6508444  3
   3056   3054   3073   3063     1  0.0000000  1.2552000  3
   3057   3053   3051   3071     1  0.0000000  1.0460000  1
   3057   3053   3051   3071     1  0.0000000  0.0000000  3
   3057   3053   3051   3070     1  0.0000000  0.6508444  3
   3057   3053   3054   3073     1  0.0000000  0.6508444  3
   3057   3053   3060   3062     1  0.0000000  0.6973333  3
   3058   3055   3054   3073     1  0.0000000  0.6508444  3
   3058   3055   3059   3069     1  0.0000000  0.6973333  3
   3060   3053   3051   3070     1  0.0000000  1.0460000  1
   3060   3053   3051   3070     1  0.0000000  0.0000000  3
   3061   3050   3051   3070     1  0.0000000  0.6508444  3
   3064   3061   3050   3068     1  0.0000000  1.0460000  1
   3064   3061   3050   3068     1  0.0000000  0.0000000  3
   3064   3061   3066   3067     1  0.0000000  0.6973333  3
   3065   3061   3050   3068     1  0.0000000  1.0460000  1
   3065   3061   3050   3068     1  0.0000000  0.0000000  3
   3065   3061   3066   3067     1  0.0000000  0.6973333  3
   3068   3050   3051   3070     1  0.0000000  1.0460000  1
   3068   3050   3051   3070     1  0.0000000  0.0000000  3
   3068   3055   3059   3069     1  0.0000000  0.6973333  3
   3070   3051   3071   3072     1  0.0000000  0.6973333  3
   3074   3076   3078   3080     1  0.0000000  0.6508444  3
   3074   3076   3078   3081     1  0.0000000  0.6508444  3
   3075   3074   3076   3078     1  0.0000000  0.0000000  2
   3075   3074   3076   3077     1  0.0000000  0.0000000  2
   3075   3074   3076   3079     1  0.0000000  0.0000000  2
   3077   3076   3078   3082     1  0.0000000  0.6508444  3
   3077   3076   3078   3080     1  0.0000000  0.6508444  3
   3077   3076   3078   3081     1  0.0000000  0.6508444  3
   3078   3082   3083   3092     1  0.0000000  1.2552000  3
   3078   3082   3083   3093     1  0.0000000  1.2552000  3
   3078   3082   3084   3085     1  0.0000000  1.2552000  3
   3078   3082   3084   3087     1  0.0000000  1.2552000  3
   3079   3076   3078   3082     1  0.0000000  0.6508444  3
   3079   3076   3078   3080     1  0.0000000  0.6508444  3
   3079   3076   3078   3081     1  0.0000000  0.6508444  3
   3080   3078   3082   3083     1  0.0000000  1.2552000  3
   3080   3078   3082   3084     1  0.0000000  1.2552000  3
   3081   3078   3082   3083     1  0.0000000  1.2552000  3
   3081   3078   3082   3084     1  0.0000000  1.2552000  3
   3082   3083   3094   3095     1  0.0000000  0.6508444  3
   3082   3083   3094   3096     1  0.0000000  0.6508444  3
   3082   3084   3086   3088     1  0.0000000  0.6508444  3
   3082   3084   3086   3089     1  0.0000000  0.6508444  3
   3083   3082   3084   3085     1  0.0000000  1.2552000  3
   3083   3082   3084   3087     1  0.0000000  1.2552000  3
   3084   3082   3083   3092     1  0.0000000  1.2552000  3
   3084   3082   3083   3093     1  0.0000000  1.2552000  3
   3085   3084   3086   3090     1  0.0000000  0.6508444  3
   3085   3084   3086   3088     1  0.0000000  0.6508444  3
   3085   3084   3086   3089     1  0.0000000  0.6508444  3
   3086   3090   3122   3112     1  180.0000771  6.0668000  2
   3086   3090   3122   3112     1  180.0000771  1.4644000  4
   3087   3084   3086   3090     1  0.0000000  0.6508444  3
   3087   3084   3086   3088     1  0.0000000  0.6508444  3
   3087   3084   3086   3089     1  0.0000000  0.6508444  3
   3088   3086   3090   3091     1  0.0000000  3.3472000  1
   3088   3086   3090   3091     1  0.0000000  0.0000000  2
   3088   3086   3090   3091     1  180.0000771  0.3347200  3
   3088   3086   3090   3122     1  180.0000771  0.0000000  2
   3089   3086   3090   3091     1  0.0000000  3.3472000  1
   3089   3086   3090   3091     1  0.0000000  0.0000000  2
   3089   3086   3090   3091     1  180.0000771  0.3347200  3
   3089   3086   3090   3122     1  180.0000771  0.0000000  2
   3090   3122   3103   3105     1  0.0000000  1.2552000  3
   3091   3090   3122   3112     1  180.0000771  6.0668000  2
   3091   3090   3122   3112     1  180.0000771  1.4644000  4
   3092   3083   3094   3097     1  0.0000000  0.6508444  3
   3092   3083   3094   3095     1  0.0000000  0.6508444  3
   3092   3083   3094   3096     1  0.0000000  0.6508444  3
   3093   3083   3094   3097     1  0.0000000  0.6508444  3
   3093   3083   3094   3095     1  0.0000000  0.6508444  3
   3093   3083   3094   3096     1  0.0000000  0.6508444  3
   3094   3097   3146   3136     1  180.0000771  6.0668000  2
   3094   3097   3146   3136     1  180.0000771  1.4644000  4
   3095   3094   3097   3098     1  0.0000000  3.3472000  1
   3095   3094   3097   3098     1  0.0000000  0.0000000  2
   3095   3094   3097   3098     1  180.0000771  0.3347200  3
   3095   3094   3097   3146     1  180.0000771  0.0000000  2
   3096   3094   3097   3098     1  0.0000000  3.3472000  1
   3096   3094   3097   3098     1  0.0000000  0.0000000  2
   3096   3094   3097   3098     1  180.0000771  0.3347200  3
   3096   3094   3097   3146     1  180.0000771  0.0000000  2
   3097   3146   3127   3129     1  0.0000000  1.2552000  3
   3098   3097   3146   3136     1  180.0000771  6.0668000  2
   3098   3097   3146   3136     1  180.0000771  1.4644000  4
   3099   3100   3102   3106     1  0.0000000  0.6508444  3
   3099   3100   3120   3121     1  0.0000000  1.0460000  1
   3099   3100   3120   3121     1  0.0000000  0.6694400  3
   3099   3110   3115   3116     1  0.0000000  1.0460000  1
   3099   3110   3115   3116     1  0.0000000  0.6694400  3
   3099   3117   3104   3107     1  0.0000000  1.6038667  3
   3100   3102   3103   3105     1  0.0000000  0.6508444  3
   3100   3102   3109   3111     1  0.0000000  1.0460000  1
   3100   3102   3109   3111     1  0.0000000  0.6694400  3
   3100   3099   3110   3113     1  0.0000000  0.6508444  3
   3100   3099   3110   3114     1  0.0000000  0.6508444  3
   3101   3099   3100   3102     1  0.0000000  0.6508444  3
   3101   3099   3100   3120     1  0.0000000  1.0460000  1
   3101   3099   3100   3120     1  0.0000000  0.0000000  3
   3101   3099   3100   3119     1  0.0000000  0.6508444  3
   3101   3099   3110   3115     1  0.0000000  1.0460000  1
   3101   3099   3110   3115     1  0.0000000  0.0000000  3
   3101   3099   3110   3113     1  0.0000000  0.6508444  3
   3101   3099   3110   3114     1  0.0000000  0.6508444  3
   3101   3099   3117   3104     1  0.0000000  1.6038667  3
   3102   3103   3104   3107     1  0.0000000  0.6508444  3
   3102   3103   3122   3112     1  0.0000000  1.2552000  3
   3102   3100   3120   3121     1  0.0000000  1.0460000  1
   3102   3100   3120   3121     1  0.0000000  0.6694400  3
   3103   3104   3108   3118     1  0.0000000  1.0460000  1
   3103   3104   3108   3118     1  0.0000000  0.6694400  3
   3103   3102   3109   3111     1  0.0000000  1.0460000  1
   3103   3102   3109   3111     1  0.0000000  0.6694400  3
   3103   3102   3100   3119     1  0.0000000  0.6508444  3
   3104   3103   3122   3112     1  0.0000000  1.2552000  3
   3104   3103   3102   3106     1  0.0000000  0.6508444  3
   3105   3103   3104   3108     1  0.0000000  1.0460000  1
   3105   3103   3104   3108     1  0.0000000  0.0000000  3
   3105   3103   3104   3117     1  0.0000000  1.0460000  1
   3105   3103   3104   3117     1  0.0000000  0.0000000  3
   3105   3103   3104   3107     1  0.0000000  0.6508444  3
   3105   3103   3122   3112     1  0.0000000  1.2552000  3
   3105   3103   3102   3109     1  0.0000000  1.0460000  1
   3105   3103   3102   3109     1  0.0000000  0.0000000  3
   3105   3103   3102   3106     1  0.0000000  0.6508444  3
   3106   3102   3103   3122     1  0.0000000  0.6508444  3
   3106   3102   3109   3111     1  0.0000000  0.6973333  3
   3106   3102   3100   3120     1  0.0000000  1.0460000  1
   3106   3102   3100   3120     1  0.0000000  0.0000000  3
   3106   3102   3100   3119     1  0.0000000  0.6508444  3
   3107   3104   3108   3118     1  0.0000000  0.6973333  3
   3107   3104   3103   3122     1  0.0000000  0.6508444  3
   3109   3102   3100   3119     1  0.0000000  1.0460000  1
   3109   3102   3100   3119     1  0.0000000  0.0000000  3
   3110   3099   3100   3119     1  0.0000000  0.6508444  3
   3113   3110   3115   3116     1  0.0000000  0.6973333  3
   3113   3110   3099   3117     1  0.0000000  1.0460000  1
   3113   3110   3099   3117     1  0.0000000  0.0000000  3
   3114   3110   3115   3116     1  0.0000000  0.6973333  3
   3114   3110   3099   3117     1  0.0000000  1.0460000  1
   3114   3110   3099   3117     1  0.0000000  0.0000000  3
   3117   3104   3108   3118     1  0.0000000  0.6973333  3
   3117   3099   3100   3119     1  0.0000000  1.0460000  1
   3117   3099   3100   3119     1  0.0000000  0.0000000  3
   3119   3100   3120   3121     1  0.0000000  0.6973333  3
   3123   3124   3126   3130     1  0.0000000  0.6508444  3
   3123   3124   3144   3145     1  0.0000000  1.0460000  1
   3123   3124   3144   3145     1  0.0000000  0.6694400  3
   3123   3134   3139   3140     1  0.0000000  1.0460000  1
   3123   3134   3139   3140     1  0.0000000  0.6694400  3
   3123   3141   3128   3131     1  0.0000000  1.6038667  3
   3124   3126   3127   3129     1  0.0000000  0.6508444  3
   3124   3126   3133   3135     1  0.0000000  1.0460000  1
   3124   3126   3133   3135     1  0.0000000  0.6694400  3
   3124   3123   3134   3137     1  0.0000000  0.6508444  3
   3124   3123   3134   3138     1  0.0000000  0.6508444  3
   3125   3123   3124   3126     1  0.0000000  0.6508444  3
   3125   3123   3124   3144     1  0.0000000  1.0460000  1
   3125   3123   3124   3144     1  0.0000000  0.0000000  3
   3125   3123   3124   3143     1  0.0000000  0.6508444  3
   3125   3123   3134   3139     1  0.0000000  1.0460000  1
   3125   3123   3134   3139     1  0.0000000  0.0000000  3
   3125   3123   3134   3137     1  0.0000000  0.6508444  3
   3125   3123   3134   3138     1  0.0000000  0.6508444  3
   3125   3123   3141   3128     1  0.0000000  1.6038667  3
   3126   3127   3128   3131     1  0.0000000  0.6508444  3
   3126   3127   3146   3136     1  0.0000000  1.2552000  3
   3126   3124   3144   3145     1  0.0000000  1.0460000  1
   3126   3124   3144   3145     1  0.0000000  0.6694400  3
   3127   3128   3132   3142     1  0.0000000  1.0460000  1
   3127   3128   3132   3142     1  0.0000000  0.6694400  3
   3127   3126   3133   3135     1  0.0000000  1.0460000  1
   3127   3126   3133   3135     1  0.0000000  0.6694400  3
   3127   3126   3124   3143     1  0.0000000  0.6508444  3
   3128   3127   3146   3136     1  0.0000000  1.2552000  3
   3128   3127   3126   3130     1  0.0000000  0.6508444  3
   3129   3127   3128   3132     1  0.0000000  1.0460000  1
   3129   3127   3128   3132     1  0.0000000  0.0000000  3
   3129   3127   3128   3141     1  0.0000000  1.0460000  1
   3129   3127   3128   3141     1  0.0000000  0.0000000  3
   3129   3127   3128   3131     1  0.0000000  0.6508444  3
   3129   3127   3146   3136     1  0.0000000  1.2552000  3
   3129   3127   3126   3133     1  0.0000000  1.0460000  1
   3129   3127   3126   3133     1  0.0000000  0.0000000  3
   3129   3127   3126   3130     1  0.0000000  0.6508444  3
   3130   3126   3127   3146     1  0.0000000  0.6508444  3
   3130   3126   3133   3135     1  0.0000000  0.6973333  3
   3130   3126   3124   3144     1  0.0000000  1.0460000  1
   3130   3126   3124   3144     1  0.0000000  0.0000000  3
   3130   3126   3124   3143     1  0.0000000  0.6508444  3
   3131   3128   3132   3142     1  0.0000000  0.6973333  3
   3131   3128   3127   3146     1  0.0000000  0.6508444  3
   3133   3126   3124   3143     1  0.0000000  1.0460000  1
   3133   3126   3124   3143     1  0.0000000  0.0000000  3
   3134   3123   3124   3143     1  0.0000000  0.6508444  3
   3137   3134   3139   3140     1  0.0000000  0.6973333  3
   3137   3134   3123   3141     1  0.0000000  1.0460000  1
   3137   3134   3123   3141     1  0.0000000  0.0000000  3
   3138   3134   3139   3140     1  0.0000000  0.6973333  3
   3138   3134   3123   3141     1  0.0000000  1.0460000  1
   3138   3134   3123   3141     1  0.0000000  0.0000000  3
   3141   3128   3132   3142     1  0.0000000  0.6973333  3
   3141   3123   3124   3143     1  0.0000000  1.0460000  1
   3141   3123   3124   3143     1  0.0000000  0.0000000  3
   3143   3124   3144   3145     1  0.0000000  0.6973333  3
   3147   3149   3151   3153     1  0.0000000  0.6508444  3
   3147   3149   3151   3154     1  0.0000000  0.6508444  3
   3148   3147   3149   3151     1  0.0000000  0.0000000  2
   3148   3147   3149   3150     1  0.0000000  0.0000000  2
   3148   3147   3149   3152     1  0.0000000  0.0000000  2
   3150   3149   3151   3155     1  0.0000000  0.6508444  3
   3150   3149   3151   3153     1  0.0000000  0.6508444  3
   3150   3149   3151   3154     1  0.0000000  0.6508444  3
   3151   3155   3156   3165     1  0.0000000  1.2552000  3
   3151   3155   3156   3166     1  0.0000000  1.2552000  3
   3151   3155   3157   3158     1  0.0000000  1.2552000  3
   3151   3155   3157   3160     1  0.0000000  1.2552000  3
   3152   3149   3151   3155     1  0.0000000  0.6508444  3
   3152   3149   3151   3153     1  0.0000000  0.6508444  3
   3152   3149   3151   3154     1  0.0000000  0.6508444  3
   3153   3151   3155   3156     1  0.0000000  1.2552000  3
   3153   3151   3155   3157     1  0.0000000  1.2552000  3
   3154   3151   3155   3156     1  0.0000000  1.2552000  3
   3154   3151   3155   3157     1  0.0000000  1.2552000  3
   3155   3156   3167   3168     1  0.0000000  0.6508444  3
   3155   3156   3167   3169     1  0.0000000  0.6508444  3
   3155   3157   3159   3161     1  0.0000000  0.6508444  3
   3155   3157   3159   3162     1  0.0000000  0.6508444  3
   3156   3155   3157   3158     1  0.0000000  1.2552000  3
   3156   3155   3157   3160     1  0.0000000  1.2552000  3
   3157   3155   3156   3165     1  0.0000000  1.2552000  3
   3157   3155   3156   3166     1  0.0000000  1.2552000  3
   3158   3157   3159   3163     1  0.0000000  0.6508444  3
   3158   3157   3159   3161     1  0.0000000  0.6508444  3
   3158   3157   3159   3162     1  0.0000000  0.6508444  3
   3159   3163   3195   3185     1  180.0000771  6.0668000  2
   3159   3163   3195   3185     1  180.0000771  1.4644000  4
   3160   3157   3159   3163     1  0.0000000  0.6508444  3
   3160   3157   3159   3161     1  0.0000000  0.6508444  3
   3160   3157   3159   3162     1  0.0000000  0.6508444  3
   3161   3159   3163   3164     1  0.0000000  3.3472000  1
   3161   3159   3163   3164     1  0.0000000  0.0000000  2
   3161   3159   3163   3164     1  180.0000771  0.3347200  3
   3161   3159   3163   3195     1  180.0000771  0.0000000  2
   3162   3159   3163   3164     1  0.0000000  3.3472000  1
   3162   3159   3163   3164     1  0.0000000  0.0000000  2
   3162   3159   3163   3164     1  180.0000771  0.3347200  3
   3162   3159   3163   3195     1  180.0000771  0.0000000  2
   3163   3195   3176   3178     1  0.0000000  1.2552000  3
   3164   3163   3195   3185     1  180.0000771  6.0668000  2
   3164   3163   3195   3185     1  180.0000771  1.4644000  4
   3165   3156   3167   3170     1  0.0000000  0.6508444  3
   3165   3156   3167   3168     1  0.0000000  0.6508444  3
   3165   3156   3167   3169     1  0.0000000  0.6508444  3
   3166   3156   3167   3170     1  0.0000000  0.6508444  3
   3166   3156   3167   3168     1  0.0000000  0.6508444  3
   3166   3156   3167   3169     1  0.0000000  0.6508444  3
   3167   3170   3219   3209     1  180.0000771  6.0668000  2
   3167   3170   3219   3209     1  180.0000771  1.4644000  4
   3168   3167   3170   3171     1  0.0000000  3.3472000  1
   3168   3167   3170   3171     1  0.0000000  0.0000000  2
   3168   3167   3170   3171     1  180.0000771  0.3347200  3
   3168   3167   3170   3219     1  180.0000771  0.0000000  2
   3169   3167   3170   3171     1  0.0000000  3.3472000  1
   3169   3167   3170   3171     1  0.0000000  0.0000000  2
   3169   3167   3170   3171     1  180.0000771  0.3347200  3
   3169   3167   3170   3219     1  180.0000771  0.0000000  2
   3170   3219   3200   3202     1  0.0000000  1.2552000  3
   3171   3170   3219   3209     1  180.0000771  6.0668000  2
   3171   3170   3219   3209     1  180.0000771  1.4644000  4
   3172   3173   3175   3179     1  0.0000000  0.6508444  3
   3172   3173   3193   3194     1  0.0000000  1.0460000  1
   3172   3173   3193   3194     1  0.0000000  0.6694400  3
   3172   3183   3188   3189     1  0.0000000  1.0460000  1
   3172   3183   3188   3189     1  0.0000000  0.6694400  3
   3172   3190   3177   3180     1  0.0000000  1.6038667  3
   3173   3172   3183   3186     1  0.0000000  0.6508444  3
   3173   3172   3183   3187     1  0.0000000  0.6508444  3
   3173   3175   3176   3178     1  0.0000000  0.6508444  3
   3173   3175   3182   3184     1  0.0000000  1.0460000  1
   3173   3175   3182   3184     1  0.0000000  0.6694400  3
   3174   3172   3173   3175     1  0.0000000  0.6508444  3
   3174   3172   3173   3193     1  0.0000000  1.0460000  1
   3174   3172   3173   3193     1  0.0000000  0.0000000  3
   3174   3172   3173   3192     1  0.0000000  0.6508444  3
   3174   3172   3183   3188     1  0.0000000  1.0460000  1
   3174   3172   3183   3188     1  0.0000000  0.0000000  3
   3174   3172   3183   3186     1  0.0000000  0.6508444  3
   3174   3172   3183   3187     1  0.0000000  0.6508444  3
   3174   3172   3190   3177     1  0.0000000  1.6038667  3
   3175   3173   3193   3194     1  0.0000000  1.0460000  1
   3175   3173   3193   3194     1  0.0000000  0.6694400  3
   3175   3176   3177   3180     1  0.0000000  0.6508444  3
   3175   3176   3195   3185     1  0.0000000  1.2552000  3
   3176   3175   3173   3192     1  0.0000000  0.6508444  3
   3176   3175   3182   3184     1  0.0000000  1.0460000  1
   3176   3175   3182   3184     1  0.0000000  0.6694400  3
   3176   3177   3181   3191     1  0.0000000  1.0460000  1
   3176   3177   3181   3191     1  0.0000000  0.6694400  3
   3177   3176   3175   3179     1  0.0000000  0.6508444  3
   3177   3176   3195   3185     1  0.0000000  1.2552000  3
   3178   3176   3175   3182     1  0.0000000  1.0460000  1
   3178   3176   3175   3182     1  0.0000000  0.0000000  3
   3178   3176   3175   3179     1  0.0000000  0.6508444  3
   3178   3176   3177   3181     1  0.0000000  1.0460000  1
   3178   3176   3177   3181     1  0.0000000  0.0000000  3
   3178   3176   3177   3190     1  0.0000000  1.0460000  1
   3178   3176   3177   3190     1  0.0000000  0.0000000  3
   3178   3176   3177   3180     1  0.0000000  0.6508444  3
   3178   3176   3195   3185     1  0.0000000  1.2552000  3
   3179   3175   3173   3193     1  0.0000000  1.0460000  1
   3179   3175   3173   3193     1  0.0000000  0.0000000  3
   3179   3175   3173   3192     1  0.0000000  0.6508444  3
   3179   3175   3176   3195     1  0.0000000  0.6508444  3
   3179   3175   3182   3184     1  0.0000000  0.6973333  3
   3180   3177   3176   3195     1  0.0000000  0.6508444  3
   3180   3177   3181   3191     1  0.0000000  0.6973333  3
   3182   3175   3173   3192     1  0.0000000  1.0460000  1
   3182   3175   3173   3192     1  0.0000000  0.0000000  3
   3183   3172   3173   3192     1  0.0000000  0.6508444  3
   3186   3183   3172   3190     1  0.0000000  1.0460000  1
   3186   3183   3172   3190     1  0.0000000  0.0000000  3
   3186   3183   3188   3189     1  0.0000000  0.6973333  3
   3187   3183   3172   3190     1  0.0000000  1.0460000  1
   3187   3183   3172   3190     1  0.0000000  0.0000000  3
   3187   3183   3188   3189     1  0.0000000  0.6973333  3
   3190   3172   3173   3192     1  0.0000000  1.0460000  1
   3190   3172   3173   3192     1  0.0000000  0.0000000  3
   3190   3177   3181   3191     1  0.0000000  0.6973333  3
   3192   3173   3193   3194     1  0.0000000  0.6973333  3
   3196   3197   3199   3203     1  0.0000000  0.6508444  3
   3196   3197   3217   3218     1  0.0000000  1.0460000  1
   3196   3197   3217   3218     1  0.0000000  0.6694400  3
   3196   3207   3212   3213     1  0.0000000  1.0460000  1
   3196   3207   3212   3213     1  0.0000000  0.6694400  3
   3196   3214   3201   3204     1  0.0000000  1.6038667  3
   3197   3196   3207   3210     1  0.0000000  0.6508444  3
   3197   3196   3207   3211     1  0.0000000  0.6508444  3
   3197   3199   3200   3202     1  0.0000000  0.6508444  3
   3197   3199   3206   3208     1  0.0000000  1.0460000  1
   3197   3199   3206   3208     1  0.0000000  0.6694400  3
   3198   3196   3197   3199     1  0.0000000  0.6508444  3
   3198   3196   3197   3217     1  0.0000000  1.0460000  1
   3198   3196   3197   3217     1  0.0000000  0.0000000  3
   3198   3196   3197   3216     1  0.0000000  0.6508444  3
   3198   3196   3207   3212     1  0.0000000  1.0460000  1
   3198   3196   3207   3212     1  0.0000000  0.0000000  3
   3198   3196   3207   3210     1  0.0000000  0.6508444  3
   3198   3196   3207   3211     1  0.0000000  0.6508444  3
   3198   3196   3214   3201     1  0.0000000  1.6038667  3
   3199   3197   3217   3218     1  0.0000000  1.0460000  1
   3199   3197   3217   3218     1  0.0000000  0.6694400  3
   3199   3200   3201   3204     1  0.0000000  0.6508444  3
   3199   3200   3219   3209     1  0.0000000  1.2552000  3
   3200   3199   3197   3216     1  0.0000000  0.6508444  3
   3200   3199   3206   3208     1  0.0000000  1.0460000  1
   3200   3199   3206   3208     1  0.0000000  0.6694400  3
   3200   3201   3205   3215     1  0.0000000  1.0460000  1
   3200   3201   3205   3215     1  0.0000000  0.6694400  3
   3201   3200   3199   3203     1  0.0000000  0.6508444  3
   3201   3200   3219   3209     1  0.0000000  1.2552000  3
   3202   3200   3199   3206     1  0.0000000  1.0460000  1
   3202   3200   3199   3206     1  0.0000000  0.0000000  3
   3202   3200   3199   3203     1  0.0000000  0.6508444  3
   3202   3200   3201   3205     1  0.0000000  1.0460000  1
   3202   3200   3201   3205     1  0.0000000  0.0000000  3
   3202   3200   3201   3214     1  0.0000000  1.0460000  1
   3202   3200   3201   3214     1  0.0000000  0.0000000  3
   3202   3200   3201   3204     1  0.0000000  0.6508444  3
   3202   3200   3219   3209     1  0.0000000  1.2552000  3
   3203   3199   3197   3217     1  0.0000000  1.0460000  1
   3203   3199   3197   3217     1  0.0000000  0.0000000  3
   3203   3199   3197   3216     1  0.0000000  0.6508444  3
   3203   3199   3200   3219     1  0.0000000  0.6508444  3
   3203   3199   3206   3208     1  0.0000000  0.6973333  3
   3204   3201   3200   3219     1  0.0000000  0.6508444  3
   3204   3201   3205   3215     1  0.0000000  0.6973333  3
   3206   3199   3197   3216     1  0.0000000  1.0460000  1
   3206   3199   3197   3216     1  0.0000000  0.0000000  3
   3207   3196   3197   3216     1  0.0000000  0.6508444  3
   3210   3207   3196   3214     1  0.0000000  1.0460000  1
   3210   3207   3196   3214     1  0.0000000  0.0000000  3
   3210   3207   3212   3213     1  0.0000000  0.6973333  3
   3211   3207   3196   3214     1  0.0000000  1.0460000  1
   3211   3207   3196   3214     1  0.0000000  0.0000000  3
   3211   3207   3212   3213     1  0.0000000  0.6973333  3
   3214   3196   3197   3216     1  0.0000000  1.0460000  1
   3214   3196   3197   3216     1  0.0000000  0.0000000  3
   3214   3201   3205   3215     1  0.0000000  0.6973333  3
   3216   3197   3217   3218     1  0.0000000  0.6973333  3
   3220   3222   3224   3226     1  0.0000000  0.6508444  3
   3220   3222   3224   3227     1  0.0000000  0.6508444  3
   3221   3220   3222   3224     1  0.0000000  0.0000000  2
   3221   3220   3222   3223     1  0.0000000  0.0000000  2
   3221   3220   3222   3225     1  0.0000000  0.0000000  2
   3223   3222   3224   3228     1  0.0000000  0.6508444  3
   3223   3222   3224   3226     1  0.0000000  0.6508444  3
   3223   3222   3224   3227     1  0.0000000  0.6508444  3
   3224   3228   3229   3238     1  0.0000000  1.2552000  3
   3224   3228   3229   3239     1  0.0000000  1.2552000  3
   3224   3228   3230   3231     1  0.0000000  1.2552000  3
   3224   3228   3230   3233     1  0.0000000  1.2552000  3
   3225   3222   3224   3228     1  0.0000000  0.6508444  3
   3225   3222   3224   3226     1  0.0000000  0.6508444  3
   3225   3222   3224   3227     1  0.0000000  0.6508444  3
   3226   3224   3228   3229     1  0.0000000  1.2552000  3
   3226   3224   3228   3230     1  0.0000000  1.2552000  3
   3227   3224   3228   3229     1  0.0000000  1.2552000  3
   3227   3224   3228   3230     1  0.0000000  1.2552000  3
   3228   3229   3240   3241     1  0.0000000  0.6508444  3
   3228   3229   3240   3242     1  0.0000000  0.6508444  3
   3228   3230   3232   3234     1  0.0000000  0.6508444  3
   3228   3230   3232   3235     1  0.0000000  0.6508444  3
   3229   3228   3230   3231     1  0.0000000  1.2552000  3
   3229   3228   3230   3233     1  0.0000000  1.2552000  3
   3230   3228   3229   3238     1  0.0000000  1.2552000  3
   3230   3228   3229   3239     1  0.0000000  1.2552000  3
   3231   3230   3232   3236     1  0.0000000  0.6508444  3
   3231   3230   3232   3234     1  0.0000000  0.6508444  3
   3231   3230   3232   3235     1  0.0000000  0.6508444  3
   3232   3236   3268   3258     1  180.0000771  6.0668000  2
   3232   3236   3268   3258     1  180.0000771  1.4644000  4
   3233   3230   3232   3236     1  0.0000000  0.6508444  3
   3233   3230   3232   3234     1  0.0000000  0.6508444  3
   3233   3230   3232   3235     1  0.0000000  0.6508444  3
   3234   3232   3236   3237     1  0.0000000  3.3472000  1
   3234   3232   3236   3237     1  0.0000000  0.0000000  2
   3234   3232   3236   3237     1  180.0000771  0.3347200  3
   3234   3232   3236   3268     1  180.0000771  0.0000000  2
   3235   3232   3236   3237     1  0.0000000  3.3472000  1
   3235   3232   3236   3237     1  0.0000000  0.0000000  2
   3235   3232   3236   3237     1  180.0000771  0.3347200  3
   3235   3232   3236   3268     1  180.0000771  0.0000000  2
   3236   3268   3249   3251     1  0.0000000  1.2552000  3
   3237   3236   3268   3258     1  180.0000771  6.0668000  2
   3237   3236   3268   3258     1  180.0000771  1.4644000  4
   3238   3229   3240   3243     1  0.0000000  0.6508444  3
   3238   3229   3240   3241     1  0.0000000  0.6508444  3
   3238   3229   3240   3242     1  0.0000000  0.6508444  3
   3239   3229   3240   3243     1  0.0000000  0.6508444  3
   3239   3229   3240   3241     1  0.0000000  0.6508444  3
   3239   3229   3240   3242     1  0.0000000  0.6508444  3
   3240   3243   3292   3282     1  180.0000771  6.0668000  2
   3240   3243   3292   3282     1  180.0000771  1.4644000  4
   3241   3240   3243   3244     1  0.0000000  3.3472000  1
   3241   3240   3243   3244     1  0.0000000  0.0000000  2
   3241   3240   3243   3244     1  180.0000771  0.3347200  3
   3241   3240   3243   3292     1  180.0000771  0.0000000  2
   3242   3240   3243   3244     1  0.0000000  3.3472000  1
   3242   3240   3243   3244     1  0.0000000  0.0000000  2
   3242   3240   3243   3244     1  180.0000771  0.3347200  3
   3242   3240   3243   3292     1  180.0000771  0.0000000  2
   3243   3292   3273   3275     1  0.0000000  1.2552000  3
   3244   3243   3292   3282     1  180.0000771  6.0668000  2
   3244   3243   3292   3282     1  180.0000771  1.4644000  4
   3245   3246   3248   3252     1  0.0000000  0.6508444  3
   3245   3246   3266   3267     1  0.0000000  1.0460000  1
   3245   3246   3266   3267     1  0.0000000  0.6694400  3
   3245   3256   3261   3262     1  0.0000000  1.0460000  1
   3245   3256   3261   3262     1  0.0000000  0.6694400  3
   3245   3263   3250   3253     1  0.0000000  1.6038667  3
   3246   3248   3249   3251     1  0.0000000  0.6508444  3
   3246   3248   3255   3257     1  0.0000000  1.0460000  1
   3246   3248   3255   3257     1  0.0000000  0.6694400  3
   3246   3245   3256   3259     1  0.0000000  0.6508444  3
   3246   3245   3256   3260     1  0.0000000  0.6508444  3
   3247   3245   3246   3248     1  0.0000000  0.6508444  3
   3247   3245   3246   3266     1  0.0000000  1.0460000  1
   3247   3245   3246   3266     1  0.0000000  0.0000000  3
   3247   3245   3246   3265     1  0.0000000  0.6508444  3
   3247   3245   3256   3261     1  0.0000000  1.0460000  1
   3247   3245   3256   3261     1  0.0000000  0.0000000  3
   3247   3245   3256   3259     1  0.0000000  0.6508444  3
   3247   3245   3256   3260     1  0.0000000  0.6508444  3
   3247   3245   3263   3250     1  0.0000000  1.6038667  3
   3248   3249   3250   3253     1  0.0000000  0.6508444  3
   3248   3249   3268   3258     1  0.0000000  1.2552000  3
   3248   3246   3266   3267     1  0.0000000  1.0460000  1
   3248   3246   3266   3267     1  0.0000000  0.6694400  3
   3249   3250   3254   3264     1  0.0000000  1.0460000  1
   3249   3250   3254   3264     1  0.0000000  0.6694400  3
   3249   3248   3255   3257     1  0.0000000  1.0460000  1
   3249   3248   3255   3257     1  0.0000000  0.6694400  3
   3249   3248   3246   3265     1  0.0000000  0.6508444  3
   3250   3249   3268   3258     1  0.0000000  1.2552000  3
   3250   3249   3248   3252     1  0.0000000  0.6508444  3
   3251   3249   3250   3254     1  0.0000000  1.0460000  1
   3251   3249   3250   3254     1  0.0000000  0.0000000  3
   3251   3249   3250   3263     1  0.0000000  1.0460000  1
   3251   3249   3250   3263     1  0.0000000  0.0000000  3
   3251   3249   3250   3253     1  0.0000000  0.6508444  3
   3251   3249   3268   3258     1  0.0000000  1.2552000  3
   3251   3249   3248   3255     1  0.0000000  1.0460000  1
   3251   3249   3248   3255     1  0.0000000  0.0000000  3
   3251   3249   3248   3252     1  0.0000000  0.6508444  3
   3252   3248   3249   3268     1  0.0000000  0.6508444  3
   3252   3248   3255   3257     1  0.0000000  0.6973333  3
   3252   3248   3246   3266     1  0.0000000  1.0460000  1
   3252   3248   3246   3266     1  0.0000000  0.0000000  3
   3252   3248   3246   3265     1  0.0000000  0.6508444  3
   3253   3250   3254   3264     1  0.0000000  0.6973333  3
   3253   3250   3249   3268     1  0.0000000  0.6508444  3
   3255   3248   3246   3265     1  0.0000000  1.0460000  1
   3255   3248   3246   3265     1  0.0000000  0.0000000  3
   3256   3245   3246   3265     1  0.0000000  0.6508444  3
   3259   3256   3261   3262     1  0.0000000  0.6973333  3
   3259   3256   3245   3263     1  0.0000000  1.0460000  1
   3259   3256   3245   3263     1  0.0000000  0.0000000  3
   3260   3256   3261   3262     1  0.0000000  0.6973333  3
   3260   3256   3245   3263     1  0.0000000  1.0460000  1
   3260   3256   3245   3263     1  0.0000000  0.0000000  3
   3263   3250   3254   3264     1  0.0000000  0.6973333  3
   3263   3245   3246   3265     1  0.0000000  1.0460000  1
   3263   3245   3246   3265     1  0.0000000  0.0000000  3
   3265   3246   3266   3267     1  0.0000000  0.6973333  3
   3269   3270   3272   3276     1  0.0000000  0.6508444  3
   3269   3270   3290   3291     1  0.0000000  1.0460000  1
   3269   3270   3290   3291     1  0.0000000  0.6694400  3
   3269   3280   3285   3286     1  0.0000000  1.0460000  1
   3269   3280   3285   3286     1  0.0000000  0.6694400  3
   3269   3287   3274   3277     1  0.0000000  1.6038667  3
   3270   3272   3273   3275     1  0.0000000  0.6508444  3
   3270   3272   3279   3281     1  0.0000000  1.0460000  1
   3270   3272   3279   3281     1  0.0000000  0.6694400  3
   3270   3269   3280   3283     1  0.0000000  0.6508444  3
   3270   3269   3280   3284     1  0.0000000  0.6508444  3
   3271   3269   3270   3272     1  0.0000000  0.6508444  3
   3271   3269   3270   3290     1  0.0000000  1.0460000  1
   3271   3269   3270   3290     1  0.0000000  0.0000000  3
   3271   3269   3270   3289     1  0.0000000  0.6508444  3
   3271   3269   3280   3285     1  0.0000000  1.0460000  1
   3271   3269   3280   3285     1  0.0000000  0.0000000  3
   3271   3269   3280   3283     1  0.0000000  0.6508444  3
   3271   3269   3280   3284     1  0.0000000  0.6508444  3
   3271   3269   3287   3274     1  0.0000000  1.6038667  3
   3272   3273   3274   3277     1  0.0000000  0.6508444  3
   3272   3273   3292   3282     1  0.0000000  1.2552000  3
   3272   3270   3290   3291     1  0.0000000  1.0460000  1
   3272   3270   3290   3291     1  0.0000000  0.6694400  3
   3273   3274   3278   3288     1  0.0000000  1.0460000  1
   3273   3274   3278   3288     1  0.0000000  0.6694400  3
   3273   3272   3279   3281     1  0.0000000  1.0460000  1
   3273   3272   3279   3281     1  0.0000000  0.6694400  3
   3273   3272   3270   3289     1  0.0000000  0.6508444  3
   3274   3273   3292   3282     1  0.0000000  1.2552000  3
   3274   3273   3272   3276     1  0.0000000  0.6508444  3
   3275   3273   3274   3278     1  0.0000000  1.0460000  1
   3275   3273   3274   3278     1  0.0000000  0.0000000  3
   3275   3273   3274   3287     1  0.0000000  1.0460000  1
   3275   3273   3274   3287     1  0.0000000  0.0000000  3
   3275   3273   3274   3277     1  0.0000000  0.6508444  3
   3275   3273   3292   3282     1  0.0000000  1.2552000  3
   3275   3273   3272   3279     1  0.0000000  1.0460000  1
   3275   3273   3272   3279     1  0.0000000  0.0000000  3
   3275   3273   3272   3276     1  0.0000000  0.6508444  3
   3276   3272   3273   3292     1  0.0000000  0.6508444  3
   3276   3272   3279   3281     1  0.0000000  0.6973333  3
   3276   3272   3270   3290     1  0.0000000  1.0460000  1
   3276   3272   3270   3290     1  0.0000000  0.0000000  3
   3276   3272   3270   3289     1  0.0000000  0.6508444  3
   3277   3274   3278   3288     1  0.0000000  0.6973333  3
   3277   3274   3273   3292     1  0.0000000  0.6508444  3
   3279   3272   3270   3289     1  0.0000000  1.0460000  1
   3279   3272   3270   3289     1  0.0000000  0.0000000  3
   3280   3269   3270   3289     1  0.0000000  0.6508444  3
   3283   3280   3285   3286     1  0.0000000  0.6973333  3
   3283   3280   3269   3287     1  0.0000000  1.0460000  1
   3283   3280   3269   3287     1  0.0000000  0.0000000  3
   3284   3280   3285   3286     1  0.0000000  0.6973333  3
   3284   3280   3269   3287     1  0.0000000  1.0460000  1
   3284   3280   3269   3287     1  0.0000000  0.0000000  3
   3287   3274   3278   3288     1  0.0000000  0.6973333  3
   3287   3269   3270   3289     1  0.0000000  1.0460000  1
   3287   3269   3270   3289     1  0.0000000  0.0000000  3
   3289   3270   3290   3291     1  0.0000000  0.6973333  3
   3293   3295   3297   3299     1  0.0000000  0.6508444  3
   3293   3295   3297   3300     1  0.0000000  0.6508444  3
   3294   3293   3295   3297     1  0.0000000  0.0000000  2
   3294   3293   3295   3296     1  0.0000000  0.0000000  2
   3294   3293   3295   3298     1  0.0000000  0.0000000  2
   3296   3295   3297   3301     1  0.0000000  0.6508444  3
   3296   3295   3297   3299     1  0.0000000  0.6508444  3
   3296   3295   3297   3300     1  0.0000000  0.6508444  3
   3297   3301   3302   3311     1  0.0000000  1.2552000  3
   3297   3301   3302   3312     1  0.0000000  1.2552000  3
   3297   3301   3303   3304     1  0.0000000  1.2552000  3
   3297   3301   3303   3306     1  0.0000000  1.2552000  3
   3298   3295   3297   3301     1  0.0000000  0.6508444  3
   3298   3295   3297   3299     1  0.0000000  0.6508444  3
   3298   3295   3297   3300     1  0.0000000  0.6508444  3
   3299   3297   3301   3302     1  0.0000000  1.2552000  3
   3299   3297   3301   3303     1  0.0000000  1.2552000  3
   3300   3297   3301   3302     1  0.0000000  1.2552000  3
   3300   3297   3301   3303     1  0.0000000  1.2552000  3
   3301   3302   3313   3314     1  0.0000000  0.6508444  3
   3301   3302   3313   3315     1  0.0000000  0.6508444  3
   3301   3303   3305   3307     1  0.0000000  0.6508444  3
   3301   3303   3305   3308     1  0.0000000  0.6508444  3
   3302   3301   3303   3304     1  0.0000000  1.2552000  3
   3302   3301   3303   3306     1  0.0000000  1.2552000  3
   3303   3301   3302   3311     1  0.0000000  1.2552000  3
   3303   3301   3302   3312     1  0.0000000  1.2552000  3
   3304   3303   3305   3309     1  0.0000000  0.6508444  3
   3304   3303   3305   3307     1  0.0000000  0.6508444  3
   3304   3303   3305   3308     1  0.0000000  0.6508444  3
   3305   3309   3341   3331     1  180.0000771  6.0668000  2
   3305   3309   3341   3331     1  180.0000771  1.4644000  4
   3306   3303   3305   3309     1  0.0000000  0.6508444  3
   3306   3303   3305   3307     1  0.0000000  0.6508444  3
   3306   3303   3305   3308     1  0.0000000  0.6508444  3
   3307   3305   3309   3310     1  0.0000000  3.3472000  1
   3307   3305   3309   3310     1  0.0000000  0.0000000  2
   3307   3305   3309   3310     1  180.0000771  0.3347200  3
   3307   3305   3309   3341     1  180.0000771  0.0000000  2
   3308   3305   3309   3310     1  0.0000000  3.3472000  1
   3308   3305   3309   3310     1  0.0000000  0.0000000  2
   3308   3305   3309   3310     1  180.0000771  0.3347200  3
   3308   3305   3309   3341     1  180.0000771  0.0000000  2
   3309   3341   3322   3324     1  0.0000000  1.2552000  3
   3310   3309   3341   3331     1  180.0000771  6.0668000  2
   3310   3309   3341   3331     1  180.0000771  1.4644000  4
   3311   3302   3313   3316     1  0.0000000  0.6508444  3
   3311   3302   3313   3314     1  0.0000000  0.6508444  3
   3311   3302   3313   3315     1  0.0000000  0.6508444  3
   3312   3302   3313   3316     1  0.0000000  0.6508444  3
   3312   3302   3313   3314     1  0.0000000  0.6508444  3
   3312   3302   3313   3315     1  0.0000000  0.6508444  3
   3313   3316   3365   3355     1  180.0000771  6.0668000  2
   3313   3316   3365   3355     1  180.0000771  1.4644000  4
   3314   3313   3316   3317     1  0.0000000  3.3472000  1
   3314   3313   3316   3317     1  0.0000000  0.0000000  2
   3314   3313   3316   3317     1  180.0000771  0.3347200  3
   3314   3313   3316   3365     1  180.0000771  0.0000000  2
   3315   3313   3316   3317     1  0.0000000  3.3472000  1
   3315   3313   3316   3317     1  0.0000000  0.0000000  2
   3315   3313   3316   3317     1  180.0000771  0.3347200  3
   3315   3313   3316   3365     1  180.0000771  0.0000000  2
   3316   3365   3346   3348     1  0.0000000  1.2552000  3
   3317   3316   3365   3355     1  180.0000771  6.0668000  2
   3317   3316   3365   3355     1  180.0000771  1.4644000  4
   3318   3319   3321   3325     1  0.0000000  0.6508444  3
   3318   3319   3339   3340     1  0.0000000  1.0460000  1
   3318   3319   3339   3340     1  0.0000000  0.6694400  3
   3318   3329   3334   3335     1  0.0000000  1.0460000  1
   3318   3329   3334   3335     1  0.0000000  0.6694400  3
   3318   3336   3323   3326     1  0.0000000  1.6038667  3
   3319   3318   3329   3332     1  0.0000000  0.6508444  3
   3319   3318   3329   3333     1  0.0000000  0.6508444  3
   3319   3321   3322   3324     1  0.0000000  0.6508444  3
   3319   3321   3328   3330     1  0.0000000  1.0460000  1
   3319   3321   3328   3330     1  0.0000000  0.6694400  3
   3320   3318   3319   3321     1  0.0000000  0.6508444  3
   3320   3318   3319   3339     1  0.0000000  1.0460000  1
   3320   3318   3319   3339     1  0.0000000  0.0000000  3
   3320   3318   3319   3338     1  0.0000000  0.6508444  3
   3320   3318   3329   3334     1  0.0000000  1.0460000  1
   3320   3318   3329   3334     1  0.0000000  0.0000000  3
   3320   3318   3329   3332     1  0.0000000  0.6508444  3
   3320   3318   3329   3333     1  0.0000000  0.6508444  3
   3320   3318   3336   3323     1  0.0000000  1.6038667  3
   3321   3319   3339   3340     1  0.0000000  1.0460000  1
   3321   3319   3339   3340     1  0.0000000  0.6694400  3
   3321   3322   3323   3326     1  0.0000000  0.6508444  3
   3321   3322   3341   3331     1  0.0000000  1.2552000  3
   3322   3321   3319   3338     1  0.0000000  0.6508444  3
   3322   3321   3328   3330     1  0.0000000  1.0460000  1
   3322   3321   3328   3330     1  0.0000000  0.6694400  3
   3322   3323   3327   3337     1  0.0000000  1.0460000  1
   3322   3323   3327   3337     1  0.0000000  0.6694400  3
   3323   3322   3321   3325     1  0.0000000  0.6508444  3
   3323   3322   3341   3331     1  0.0000000  1.2552000  3
   3324   3322   3321   3328     1  0.0000000  1.0460000  1
   3324   3322   3321   3328     1  0.0000000  0.0000000  3
   3324   3322   3321   3325     1  0.0000000  0.6508444  3
   3324   3322   3323   3327     1  0.0000000  1.0460000  1
   3324   3322   3323   3327     1  0.0000000  0.0000000  3
   3324   3322   3323   3336     1  0.0000000  1.0460000  1
   3324   3322   3323   3336     1  0.0000000  0.0000000  3
   3324   3322   3323   3326     1  0.0000000  0.6508444  3
   3324   3322   3341   3331     1  0.0000000  1.2552000  3
   3325   3321   3319   3339     1  0.0000000  1.0460000  1
   3325   3321   3319   3339     1  0.0000000  0.0000000  3
   3325   3321   3319   3338     1  0.0000000  0.6508444  3
   3325   3321   3322   3341     1  0.0000000  0.6508444  3
   3325   3321   3328   3330     1  0.0000000  0.6973333  3
   3326   3323   3322   3341     1  0.0000000  0.6508444  3
   3326   3323   3327   3337     1  0.0000000  0.6973333  3
   3328   3321   3319   3338     1  0.0000000  1.0460000  1
   3328   3321   3319   3338     1  0.0000000  0.0000000  3
   3329   3318   3319   3338     1  0.0000000  0.6508444  3
   3332   3329   3318   3336     1  0.0000000  1.0460000  1
   3332   3329   3318   3336     1  0.0000000  0.0000000  3
   3332   3329   3334   3335     1  0.0000000  0.6973333  3
   3333   3329   3318   3336     1  0.0000000  1.0460000  1
   3333   3329   3318   3336     1  0.0000000  0.0000000  3
   3333   3329   3334   3335     1  0.0000000  0.6973333  3
   3336   3318   3319   3338     1  0.0000000  1.0460000  1
   3336   3318   3319   3338     1  0.0000000  0.0000000  3
   3336   3323   3327   3337     1  0.0000000  0.6973333  3
   3338   3319   3339   3340     1  0.0000000  0.6973333  3
   3342   3343   3345   3349     1  0.0000000  0.6508444  3
   3342   3343   3363   3364     1  0.0000000  1.0460000  1
   3342   3343   3363   3364     1  0.0000000  0.6694400  3
   3342   3353   3358   3359     1  0.0000000  1.0460000  1
   3342   3353   3358   3359     1  0.0000000  0.6694400  3
   3342   3360   3347   3350     1  0.0000000  1.6038667  3
   3343   3342   3353   3356     1  0.0000000  0.6508444  3
   3343   3342   3353   3357     1  0.0000000  0.6508444  3
   3343   3345   3346   3348     1  0.0000000  0.6508444  3
   3343   3345   3352   3354     1  0.0000000  1.0460000  1
   3343   3345   3352   3354     1  0.0000000  0.6694400  3
   3344   3342   3343   3345     1  0.0000000  0.6508444  3
   3344   3342   3343   3363     1  0.0000000  1.0460000  1
   3344   3342   3343   3363     1  0.0000000  0.0000000  3
   3344   3342   3343   3362     1  0.0000000  0.6508444  3
   3344   3342   3353   3358     1  0.0000000  1.0460000  1
   3344   3342   3353   3358     1  0.0000000  0.0000000  3
   3344   3342   3353   3356     1  0.0000000  0.6508444  3
   3344   3342   3353   3357     1  0.0000000  0.6508444  3
   3344   3342   3360   3347     1  0.0000000  1.6038667  3
   3345   3343   3363   3364     1  0.0000000  1.0460000  1
   3345   3343   3363   3364     1  0.0000000  0.6694400  3
   3345   3346   3347   3350     1  0.0000000  0.6508444  3
   3345   3346   3365   3355     1  0.0000000  1.2552000  3
   3346   3345   3343   3362     1  0.0000000  0.6508444  3
   3346   3345   3352   3354     1  0.0000000  1.0460000  1
   3346   3345   3352   3354     1  0.0000000  0.6694400  3
   3346   3347   3351   3361     1  0.0000000  1.0460000  1
   3346   3347   3351   3361     1  0.0000000  0.6694400  3
   3347   3346   3345   3349     1  0.0000000  0.6508444  3
   3347   3346   3365   3355     1  0.0000000  1.2552000  3
   3348   3346   3345   3352     1  0.0000000  1.0460000  1
   3348   3346   3345   3352     1  0.0000000  0.0000000  3
   3348   3346   3345   3349     1  0.0000000  0.6508444  3
   3348   3346   3347   3351     1  0.0000000  1.0460000  1
   3348   3346   3347   3351     1  0.0000000  0.0000000  3
   3348   3346   3347   3360     1  0.0000000  1.0460000  1
   3348   3346   3347   3360     1  0.0000000  0.0000000  3
   3348   3346   3347   3350     1  0.0000000  0.6508444  3
   3348   3346   3365   3355     1  0.0000000  1.2552000  3
   3349   3345   3343   3363     1  0.0000000  1.0460000  1
   3349   3345   3343   3363     1  0.0000000  0.0000000  3
   3349   3345   3343   3362     1  0.0000000  0.6508444  3
   3349   3345   3346   3365     1  0.0000000  0.6508444  3
   3349   3345   3352   3354     1  0.0000000  0.6973333  3
   3350   3347   3346   3365     1  0.0000000  0.6508444  3
   3350   3347   3351   3361     1  0.0000000  0.6973333  3
   3352   3345   3343   3362     1  0.0000000  1.0460000  1
   3352   3345   3343   3362     1  0.0000000  0.0000000  3
   3353   3342   3343   3362     1  0.0000000  0.6508444  3
   3356   3353   3342   3360     1  0.0000000  1.0460000  1
   3356   3353   3342   3360     1  0.0000000  0.0000000  3
   3356   3353   3358   3359     1  0.0000000  0.6973333  3
   3357   3353   3342   3360     1  0.0000000  1.0460000  1
   3357   3353   3342   3360     1  0.0000000  0.0000000  3
   3357   3353   3358   3359     1  0.0000000  0.6973333  3
   3360   3342   3343   3362     1  0.0000000  1.0460000  1
   3360   3342   3343   3362     1  0.0000000  0.0000000  3
   3360   3347   3351   3361     1  0.0000000  0.6973333  3
   3362   3343   3363   3364     1  0.0000000  0.6973333  3
   3366   3368   3370   3372     1  0.0000000  0.6508444  3
   3366   3368   3370   3373     1  0.0000000  0.6508444  3
   3367   3366   3368   3370     1  0.0000000  0.0000000  2
   3367   3366   3368   3369     1  0.0000000  0.0000000  2
   3367   3366   3368   3371     1  0.0000000  0.0000000  2
   3369   3368   3370   3374     1  0.0000000  0.6508444  3
   3369   3368   3370   3372     1  0.0000000  0.6508444  3
   3369   3368   3370   3373     1  0.0000000  0.6508444  3
   3370   3374   3375   3384     1  0.0000000  1.2552000  3
   3370   3374   3375   3385     1  0.0000000  1.2552000  3
   3370   3374   3376   3377     1  0.0000000  1.2552000  3
   3370   3374   3376   3379     1  0.0000000  1.2552000  3
   3371   3368   3370   3374     1  0.0000000  0.6508444  3
   3371   3368   3370   3372     1  0.0000000  0.6508444  3
   3371   3368   3370   3373     1  0.0000000  0.6508444  3
   3372   3370   3374   3375     1  0.0000000  1.2552000  3
   3372   3370   3374   3376     1  0.0000000  1.2552000  3
   3373   3370   3374   3375     1  0.0000000  1.2552000  3
   3373   3370   3374   3376     1  0.0000000  1.2552000  3
   3374   3375   3386   3387     1  0.0000000  0.6508444  3
   3374   3375   3386   3388     1  0.0000000  0.6508444  3
   3374   3376   3378   3380     1  0.0000000  0.6508444  3
   3374   3376   3378   3381     1  0.0000000  0.6508444  3
   3375   3374   3376   3377     1  0.0000000  1.2552000  3
   3375   3374   3376   3379     1  0.0000000  1.2552000  3
   3376   3374   3375   3384     1  0.0000000  1.2552000  3
   3376   3374   3375   3385     1  0.0000000  1.2552000  3
   3377   3376   3378   3382     1  0.0000000  0.6508444  3
   3377   3376   3378   3380     1  0.0000000  0.6508444  3
   3377   3376   3378   3381     1  0.0000000  0.6508444  3
   3378   3382   3414   3404     1  180.0000771  6.0668000  2
   3378   3382   3414   3404     1  180.0000771  1.4644000  4
   3379   3376   3378   3382     1  0.0000000  0.6508444  3
   3379   3376   3378   3380     1  0.0000000  0.6508444  3
   3379   3376   3378   3381     1  0.0000000  0.6508444  3
   3380   3378   3382   3383     1  0.0000000  3.3472000  1
   3380   3378   3382   3383     1  0.0000000  0.0000000  2
   3380   3378   3382   3383     1  180.0000771  0.3347200  3
   3380   3378   3382   3414     1  180.0000771  0.0000000  2
   3381   3378   3382   3383     1  0.0000000  3.3472000  1
   3381   3378   3382   3383     1  0.0000000  0.0000000  2
   3381   3378   3382   3383     1  180.0000771  0.3347200  3
   3381   3378   3382   3414     1  180.0000771  0.0000000  2
   3382   3414   3395   3397     1  0.0000000  1.2552000  3
   3383   3382   3414   3404     1  180.0000771  6.0668000  2
   3383   3382   3414   3404     1  180.0000771  1.4644000  4
   3384   3375   3386   3389     1  0.0000000  0.6508444  3
   3384   3375   3386   3387     1  0.0000000  0.6508444  3
   3384   3375   3386   3388     1  0.0000000  0.6508444  3
   3385   3375   3386   3389     1  0.0000000  0.6508444  3
   3385   3375   3386   3387     1  0.0000000  0.6508444  3
   3385   3375   3386   3388     1  0.0000000  0.6508444  3
   3386   3389   3438   3428     1  180.0000771  6.0668000  2
   3386   3389   3438   3428     1  180.0000771  1.4644000  4
   3387   3386   3389   3390     1  0.0000000  3.3472000  1
   3387   3386   3389   3390     1  0.0000000  0.0000000  2
   3387   3386   3389   3390     1  180.0000771  0.3347200  3
   3387   3386   3389   3438     1  180.0000771  0.0000000  2
   3388   3386   3389   3390     1  0.0000000  3.3472000  1
   3388   3386   3389   3390     1  0.0000000  0.0000000  2
   3388   3386   3389   3390     1  180.0000771  0.3347200  3
   3388   3386   3389   3438     1  180.0000771  0.0000000  2
   3389   3438   3419   3421     1  0.0000000  1.2552000  3
   3390   3389   3438   3428     1  180.0000771  6.0668000  2
   3390   3389   3438   3428     1  180.0000771  1.4644000  4
   3391   3392   3394   3398     1  0.0000000  0.6508444  3
   3391   3392   3412   3413     1  0.0000000  1.0460000  1
   3391   3392   3412   3413     1  0.0000000  0.6694400  3
   3391   3402   3407   3408     1  0.0000000  1.0460000  1
   3391   3402   3407   3408     1  0.0000000  0.6694400  3
   3391   3409   3396   3399     1  0.0000000  1.6038667  3
   3392   3394   3395   3397     1  0.0000000  0.6508444  3
   3392   3394   3401   3403     1  0.0000000  1.0460000  1
   3392   3394   3401   3403     1  0.0000000  0.6694400  3
   3392   3391   3402   3405     1  0.0000000  0.6508444  3
   3392   3391   3402   3406     1  0.0000000  0.6508444  3
   3393   3391   3392   3394     1  0.0000000  0.6508444  3
   3393   3391   3392   3412     1  0.0000000  1.0460000  1
   3393   3391   3392   3412     1  0.0000000  0.0000000  3
   3393   3391   3392   3411     1  0.0000000  0.6508444  3
   3393   3391   3402   3407     1  0.0000000  1.0460000  1
   3393   3391   3402   3407     1  0.0000000  0.0000000  3
   3393   3391   3402   3405     1  0.0000000  0.6508444  3
   3393   3391   3402   3406     1  0.0000000  0.6508444  3
   3393   3391   3409   3396     1  0.0000000  1.6038667  3
   3394   3395   3396   3399     1  0.0000000  0.6508444  3
   3394   3395   3414   3404     1  0.0000000  1.2552000  3
   3394   3392   3412   3413     1  0.0000000  1.0460000  1
   3394   3392   3412   3413     1  0.0000000  0.6694400  3
   3395   3396   3400   3410     1  0.0000000  1.0460000  1
   3395   3396   3400   3410     1  0.0000000  0.6694400  3
   3395   3394   3401   3403     1  0.0000000  1.0460000  1
   3395   3394   3401   3403     1  0.0000000  0.6694400  3
   3395   3394   3392   3411     1  0.0000000  0.6508444  3
   3396   3395   3414   3404     1  0.0000000  1.2552000  3
   3396   3395   3394   3398     1  0.0000000  0.6508444  3
   3397   3395   3396   3400     1  0.0000000  1.0460000  1
   3397   3395   3396   3400     1  0.0000000  0.0000000  3
   3397   3395   3396   3409     1  0.0000000  1.0460000  1
   3397   3395   3396   3409     1  0.0000000  0.0000000  3
   3397   3395   3396   3399     1  0.0000000  0.6508444  3
   3397   3395   3414   3404     1  0.0000000  1.2552000  3
   3397   3395   3394   3401     1  0.0000000  1.0460000  1
   3397   3395   3394   3401     1  0.0000000  0.0000000  3
   3397   3395   3394   3398     1  0.0000000  0.6508444  3
   3398   3394   3395   3414     1  0.0000000  0.6508444  3
   3398   3394   3401   3403     1  0.0000000  0.6973333  3
   3398   3394   3392   3412     1  0.0000000  1.0460000  1
   3398   3394   3392   3412     1  0.0000000  0.0000000  3
   3398   3394   3392   3411     1  0.0000000  0.6508444  3
   3399   3396   3400   3410     1  0.0000000  0.6973333  3
   3399   3396   3395   3414     1  0.0000000  0.6508444  3
   3401   3394   3392   3411     1  0.0000000  1.0460000  1
   3401   3394   3392   3411     1  0.0000000  0.0000000  3
   3402   3391   3392   3411     1  0.0000000  0.6508444  3
   3405   3402   3407   3408     1  0.0000000  0.6973333  3
   3405   3402   3391   3409     1  0.0000000  1.0460000  1
   3405   3402   3391   3409     1  0.0000000  0.0000000  3
   3406   3402   3407   3408     1  0.0000000  0.6973333  3
   3406   3402   3391   3409     1  0.0000000  1.0460000  1
   3406   3402   3391   3409     1  0.0000000  0.0000000  3
   3409   3396   3400   3410     1  0.0000000  0.6973333  3
   3409   3391   3392   3411     1  0.0000000  1.0460000  1
   3409   3391   3392   3411     1  0.0000000  0.0000000  3
   3411   3392   3412   3413     1  0.0000000  0.6973333  3
   3415   3416   3418   3422     1  0.0000000  0.6508444  3
   3415   3416   3436   3437     1  0.0000000  1.0460000  1
   3415   3416   3436   3437     1  0.0000000  0.6694400  3
   3415   3426   3431   3432     1  0.0000000  1.0460000  1
   3415   3426   3431   3432     1  0.0000000  0.6694400  3
   3415   3433   3420   3423     1  0.0000000  1.6038667  3
   3416   3418   3419   3421     1  0.0000000  0.6508444  3
   3416   3418   3425   3427     1  0.0000000  1.0460000  1
   3416   3418   3425   3427     1  0.0000000  0.6694400  3
   3416   3415   3426   3429     1  0.0000000  0.6508444  3
   3416   3415   3426   3430     1  0.0000000  0.6508444  3
   3417   3415   3416   3418     1  0.0000000  0.6508444  3
   3417   3415   3416   3436     1  0.0000000  1.0460000  1
   3417   3415   3416   3436     1  0.0000000  0.0000000  3
   3417   3415   3416   3435     1  0.0000000  0.6508444  3
   3417   3415   3426   3431     1  0.0000000  1.0460000  1
   3417   3415   3426   3431     1  0.0000000  0.0000000  3
   3417   3415   3426   3429     1  0.0000000  0.6508444  3
   3417   3415   3426   3430     1  0.0000000  0.6508444  3
   3417   3415   3433   3420     1  0.0000000  1.6038667  3
   3418   3419   3420   3423     1  0.0000000  0.6508444  3
   3418   3419   3438   3428     1  0.0000000  1.2552000  3
   3418   3416   3436   3437     1  0.0000000  1.0460000  1
   3418   3416   3436   3437     1  0.0000000  0.6694400  3
   3419   3420   3424   3434     1  0.0000000  1.0460000  1
   3419   3420   3424   3434     1  0.0000000  0.6694400  3
   3419   3418   3425   3427     1  0.0000000  1.0460000  1
   3419   3418   3425   3427     1  0.0000000  0.6694400  3
   3419   3418   3416   3435     1  0.0000000  0.6508444  3
   3420   3419   3438   3428     1  0.0000000  1.2552000  3
   3420   3419   3418   3422     1  0.0000000  0.6508444  3
   3421   3419   3420   3424     1  0.0000000  1.0460000  1
   3421   3419   3420   3424     1  0.0000000  0.0000000  3
   3421   3419   3420   3433     1  0.0000000  1.0460000  1
   3421   3419   3420   3433     1  0.0000000  0.0000000  3
   3421   3419   3420   3423     1  0.0000000  0.6508444  3
   3421   3419   3438   3428     1  0.0000000  1.2552000  3
   3421   3419   3418   3425     1  0.0000000  1.0460000  1
   3421   3419   3418   3425     1  0.0000000  0.0000000  3
   3421   3419   3418   3422     1  0.0000000  0.6508444  3
   3422   3418   3419   3438     1  0.0000000  0.6508444  3
   3422   3418   3425   3427     1  0.0000000  0.6973333  3
   3422   3418   3416   3436     1  0.0000000  1.0460000  1
   3422   3418   3416   3436     1  0.0000000  0.0000000  3
   3422   3418   3416   3435     1  0.0000000  0.6508444  3
   3423   3420   3424   3434     1  0.0000000  0.6973333  3
   3423   3420   3419   3438     1  0.0000000  0.6508444  3
   3425   3418   3416   3435     1  0.0000000  1.0460000  1
   3425   3418   3416   3435     1  0.0000000  0.0000000  3
   3426   3415   3416   3435     1  0.0000000  0.6508444  3
   3429   3426   3431   3432     1  0.0000000  0.6973333  3
   3429   3426   3415   3433     1  0.0000000  1.0460000  1
   3429   3426   3415   3433     1  0.0000000  0.0000000  3
   3430   3426   3431   3432     1  0.0000000  0.6973333  3
   3430   3426   3415   3433     1  0.0000000  1.0460000  1
   3430   3426   3415   3433     1  0.0000000  0.0000000  3
   3433   3420   3424   3434     1  0.0000000  0.6973333  3
   3433   3415   3416   3435     1  0.0000000  1.0460000  1
   3433   3415   3416   3435     1  0.0000000  0.0000000  3
   3435   3416   3436   3437     1  0.0000000  0.6973333  3
   3439   3441   3443   3445     1  0.0000000  0.6508444  3
   3439   3441   3443   3446     1  0.0000000  0.6508444  3
   3440   3439   3441   3443     1  0.0000000  0.0000000  2
   3440   3439   3441   3442     1  0.0000000  0.0000000  2
   3440   3439   3441   3444     1  0.0000000  0.0000000  2
   3442   3441   3443   3447     1  0.0000000  0.6508444  3
   3442   3441   3443   3445     1  0.0000000  0.6508444  3
   3442   3441   3443   3446     1  0.0000000  0.6508444  3
   3443   3447   3448   3457     1  0.0000000  1.2552000  3
   3443   3447   3448   3458     1  0.0000000  1.2552000  3
   3443   3447   3449   3450     1  0.0000000  1.2552000  3
   3443   3447   3449   3452     1  0.0000000  1.2552000  3
   3444   3441   3443   3447     1  0.0000000  0.6508444  3
   3444   3441   3443   3445     1  0.0000000  0.6508444  3
   3444   3441   3443   3446     1  0.0000000  0.6508444  3
   3445   3443   3447   3448     1  0.0000000  1.2552000  3
   3445   3443   3447   3449     1  0.0000000  1.2552000  3
   3446   3443   3447   3448     1  0.0000000  1.2552000  3
   3446   3443   3447   3449     1  0.0000000  1.2552000  3
   3447   3448   3459   3460     1  0.0000000  0.6508444  3
   3447   3448   3459   3461     1  0.0000000  0.6508444  3
   3447   3449   3451   3453     1  0.0000000  0.6508444  3
   3447   3449   3451   3454     1  0.0000000  0.6508444  3
   3448   3447   3449   3450     1  0.0000000  1.2552000  3
   3448   3447   3449   3452     1  0.0000000  1.2552000  3
   3449   3447   3448   3457     1  0.0000000  1.2552000  3
   3449   3447   3448   3458     1  0.0000000  1.2552000  3
   3450   3449   3451   3455     1  0.0000000  0.6508444  3
   3450   3449   3451   3453     1  0.0000000  0.6508444  3
   3450   3449   3451   3454     1  0.0000000  0.6508444  3
   3451   3455   3487   3477     1  180.0000771  6.0668000  2
   3451   3455   3487   3477     1  180.0000771  1.4644000  4
   3452   3449   3451   3455     1  0.0000000  0.6508444  3
   3452   3449   3451   3453     1  0.0000000  0.6508444  3
   3452   3449   3451   3454     1  0.0000000  0.6508444  3
   3453   3451   3455   3456     1  0.0000000  3.3472000  1
   3453   3451   3455   3456     1  0.0000000  0.0000000  2
   3453   3451   3455   3456     1  180.0000771  0.3347200  3
   3453   3451   3455   3487     1  180.0000771  0.0000000  2
   3454   3451   3455   3456     1  0.0000000  3.3472000  1
   3454   3451   3455   3456     1  0.0000000  0.0000000  2
   3454   3451   3455   3456     1  180.0000771  0.3347200  3
   3454   3451   3455   3487     1  180.0000771  0.0000000  2
   3455   3487   3468   3470     1  0.0000000  1.2552000  3
   3456   3455   3487   3477     1  180.0000771  6.0668000  2
   3456   3455   3487   3477     1  180.0000771  1.4644000  4
   3457   3448   3459   3462     1  0.0000000  0.6508444  3
   3457   3448   3459   3460     1  0.0000000  0.6508444  3
   3457   3448   3459   3461     1  0.0000000  0.6508444  3
   3458   3448   3459   3462     1  0.0000000  0.6508444  3
   3458   3448   3459   3460     1  0.0000000  0.6508444  3
   3458   3448   3459   3461     1  0.0000000  0.6508444  3
   3459   3462   3511   3501     1  180.0000771  6.0668000  2
   3459   3462   3511   3501     1  180.0000771  1.4644000  4
   3460   3459   3462   3463     1  0.0000000  3.3472000  1
   3460   3459   3462   3463     1  0.0000000  0.0000000  2
   3460   3459   3462   3463     1  180.0000771  0.3347200  3
   3460   3459   3462   3511     1  180.0000771  0.0000000  2
   3461   3459   3462   3463     1  0.0000000  3.3472000  1
   3461   3459   3462   3463     1  0.0000000  0.0000000  2
   3461   3459   3462   3463     1  180.0000771  0.3347200  3
   3461   3459   3462   3511     1  180.0000771  0.0000000  2
   3462   3511   3492   3494     1  0.0000000  1.2552000  3
   3463   3462   3511   3501     1  180.0000771  6.0668000  2
   3463   3462   3511   3501     1  180.0000771  1.4644000  4
   3464   3465   3467   3471     1  0.0000000  0.6508444  3
   3464   3465   3485   3486     1  0.0000000  1.0460000  1
   3464   3465   3485   3486     1  0.0000000  0.6694400  3
   3464   3475   3480   3481     1  0.0000000  1.0460000  1
   3464   3475   3480   3481     1  0.0000000  0.6694400  3
   3464   3482   3469   3472     1  0.0000000  1.6038667  3
   3465   3464   3475   3478     1  0.0000000  0.6508444  3
   3465   3464   3475   3479     1  0.0000000  0.6508444  3
   3465   3467   3468   3470     1  0.0000000  0.6508444  3
   3465   3467   3474   3476     1  0.0000000  1.0460000  1
   3465   3467   3474   3476     1  0.0000000  0.6694400  3
   3466   3464   3465   3467     1  0.0000000  0.6508444  3
   3466   3464   3465   3485     1  0.0000000  1.0460000  1
   3466   3464   3465   3485     1  0.0000000  0.0000000  3
   3466   3464   3465   3484     1  0.0000000  0.6508444  3
   3466   3464   3475   3480     1  0.0000000  1.0460000  1
   3466   3464   3475   3480     1  0.0000000  0.0000000  3
   3466   3464   3475   3478     1  0.0000000  0.6508444  3
   3466   3464   3475   3479     1  0.0000000  0.6508444  3
   3466   3464   3482   3469     1  0.0000000  1.6038667  3
   3467   3465   3485   3486     1  0.0000000  1.0460000  1
   3467   3465   3485   3486     1  0.0000000  0.6694400  3
   3467   3468   3469   3472     1  0.0000000  0.6508444  3
   3467   3468   3487   3477     1  0.0000000  1.2552000  3
   3468   3467   3465   3484     1  0.0000000  0.6508444  3
   3468   3467   3474   3476     1  0.0000000  1.0460000  1
   3468   3467   3474   3476     1  0.0000000  0.6694400  3
   3468   3469   3473   3483     1  0.0000000  1.0460000  1
   3468   3469   3473   3483     1  0.0000000  0.6694400  3
   3469   3468   3467   3471     1  0.0000000  0.6508444  3
   3469   3468   3487   3477     1  0.0000000  1.2552000  3
   3470   3468   3467   3474     1  0.0000000  1.0460000  1
   3470   3468   3467   3474     1  0.0000000  0.0000000  3
   3470   3468   3467   3471     1  0.0000000  0.6508444  3
   3470   3468   3469   3473     1  0.0000000  1.0460000  1
   3470   3468   3469   3473     1  0.0000000  0.0000000  3
   3470   3468   3469   3482     1  0.0000000  1.0460000  1
   3470   3468   3469   3482     1  0.0000000  0.0000000  3
   3470   3468   3469   3472     1  0.0000000  0.6508444  3
   3470   3468   3487   3477     1  0.0000000  1.2552000  3
   3471   3467   3465   3485     1  0.0000000  1.0460000  1
   3471   3467   3465   3485     1  0.0000000  0.0000000  3
   3471   3467   3465   3484     1  0.0000000  0.6508444  3
   3471   3467   3468   3487     1  0.0000000  0.6508444  3
   3471   3467   3474   3476     1  0.0000000  0.6973333  3
   3472   3469   3468   3487     1  0.0000000  0.6508444  3
   3472   3469   3473   3483     1  0.0000000  0.6973333  3
   3474   3467   3465   3484     1  0.0000000  1.0460000  1
   3474   3467   3465   3484     1  0.0000000  0.0000000  3
   3475   3464   3465   3484     1  0.0000000  0.6508444  3
   3478   3475   3464   3482     1  0.0000000  1.0460000  1
   3478   3475   3464   3482     1  0.0000000  0.0000000  3
   3478   3475   3480   3481     1  0.0000000  0.6973333  3
   3479   3475   3464   3482     1  0.0000000  1.0460000  1
   3479   3475   3464   3482     1  0.0000000  0.0000000  3
   3479   3475   3480   3481     1  0.0000000  0.6973333  3
   3482   3464   3465   3484     1  0.0000000  1.0460000  1
   3482   3464   3465   3484     1  0.0000000  0.0000000  3
   3482   3469   3473   3483     1  0.0000000  0.6973333  3
   3484   3465   3485   3486     1  0.0000000  0.6973333  3
   3488   3489   3491   3495     1  0.0000000  0.6508444  3
   3488   3489   3509   3510     1  0.0000000  1.0460000  1
   3488   3489   3509   3510     1  0.0000000  0.6694400  3
   3488   3499   3504   3505     1  0.0000000  1.0460000  1
   3488   3499   3504   3505     1  0.0000000  0.6694400  3
   3488   3506   3493   3496     1  0.0000000  1.6038667  3
   3489   3488   3499   3502     1  0.0000000  0.6508444  3
   3489   3488   3499   3503     1  0.0000000  0.6508444  3
   3489   3491   3492   3494     1  0.0000000  0.6508444  3
   3489   3491   3498   3500     1  0.0000000  1.0460000  1
   3489   3491   3498   3500     1  0.0000000  0.6694400  3
   3490   3488   3489   3491     1  0.0000000  0.6508444  3
   3490   3488   3489   3509     1  0.0000000  1.0460000  1
   3490   3488   3489   3509     1  0.0000000  0.0000000  3
   3490   3488   3489   3508     1  0.0000000  0.6508444  3
   3490   3488   3499   3504     1  0.0000000  1.0460000  1
   3490   3488   3499   3504     1  0.0000000  0.0000000  3
   3490   3488   3499   3502     1  0.0000000  0.6508444  3
   3490   3488   3499   3503     1  0.0000000  0.6508444  3
   3490   3488   3506   3493     1  0.0000000  1.6038667  3
   3491   3489   3509   3510     1  0.0000000  1.0460000  1
   3491   3489   3509   3510     1  0.0000000  0.6694400  3
   3491   3492   3493   3496     1  0.0000000  0.6508444  3
   3491   3492   3511   3501     1  0.0000000  1.2552000  3
   3492   3491   3489   3508     1  0.0000000  0.6508444  3
   3492   3491   3498   3500     1  0.0000000  1.0460000  1
   3492   3491   3498   3500     1  0.0000000  0.6694400  3
   3492   3493   3497   3507     1  0.0000000  1.0460000  1
   3492   3493   3497   3507     1  0.0000000  0.6694400  3
   3493   3492   3491   3495     1  0.0000000  0.6508444  3
   3493   3492   3511   3501     1  0.0000000  1.2552000  3
   3494   3492   3491   3498     1  0.0000000  1.0460000  1
   3494   3492   3491   3498     1  0.0000000  0.0000000  3
   3494   3492   3491   3495     1  0.0000000  0.6508444  3
   3494   3492   3493   3497     1  0.0000000  1.0460000  1
   3494   3492   3493   3497     1  0.0000000  0.0000000  3
   3494   3492   3493   3506     1  0.0000000  1.0460000  1
   3494   3492   3493   3506     1  0.0000000  0.0000000  3
   3494   3492   3493   3496     1  0.0000000  0.6508444  3
   3494   3492   3511   3501     1  0.0000000  1.2552000  3
   3495   3491   3489   3509     1  0.0000000  1.0460000  1
   3495   3491   3489   3509     1  0.0000000  0.0000000  3
   3495   3491   3489   3508     1  0.0000000  0.6508444  3
   3495   3491   3492   3511     1  0.0000000  0.6508444  3
   3495   3491   3498   3500     1  0.0000000  0.6973333  3
   3496   3493   3492   3511     1  0.0000000  0.6508444  3
   3496   3493   3497   3507     1  0.0000000  0.6973333  3
   3498   3491   3489   3508     1  0.0000000  1.0460000  1
   3498   3491   3489   3508     1  0.0000000  0.0000000  3
   3499   3488   3489   3508     1  0.0000000  0.6508444  3
   3502   3499   3488   3506     1  0.0000000  1.0460000  1
   3502   3499   3488   3506     1  0.0000000  0.0000000  3
   3502   3499   3504   3505     1  0.0000000  0.6973333  3
   3503   3499   3488   3506     1  0.0000000  1.0460000  1
   3503   3499   3488   3506     1  0.0000000  0.0000000  3
   3503   3499   3504   3505     1  0.0000000  0.6973333  3
   3506   3488   3489   3508     1  0.0000000  1.0460000  1
   3506   3488   3489   3508     1  0.0000000  0.0000000  3
   3506   3493   3497   3507     1  0.0000000  0.6973333  3
   3508   3489   3509   3510     1  0.0000000  0.6973333  3
   3512   3514   3516   3518     1  0.0000000  0.6508444  3
   3512   3514   3516   3519     1  0.0000000  0.6508444  3
   3513   3512   3514   3516     1  0.0000000  0.0000000  2
   3513   3512   3514   3515     1  0.0000000  0.0000000  2
   3513   3512   3514   3517     1  0.0000000  0.0000000  2
   3515   3514   3516   3520     1  0.0000000  0.6508444  3
   3515   3514   3516   3518     1  0.0000000  0.6508444  3
   3515   3514   3516   3519     1  0.0000000  0.6508444  3
   3516   3520   3521   3530     1  0.0000000  1.2552000  3
   3516   3520   3521   3531     1  0.0000000  1.2552000  3
   3516   3520   3522   3523     1  0.0000000  1.2552000  3
   3516   3520   3522   3525     1  0.0000000  1.2552000  3
   3517   3514   3516   3520     1  0.0000000  0.6508444  3
   3517   3514   3516   3518     1  0.0000000  0.6508444  3
   3517   3514   3516   3519     1  0.0000000  0.6508444  3
   3518   3516   3520   3521     1  0.0000000  1.2552000  3
   3518   3516   3520   3522     1  0.0000000  1.2552000  3
   3519   3516   3520   3521     1  0.0000000  1.2552000  3
   3519   3516   3520   3522     1  0.0000000  1.2552000  3
   3520   3521   3532   3533     1  0.0000000  0.6508444  3
   3520   3521   3532   3534     1  0.0000000  0.6508444  3
   3520   3522   3524   3526     1  0.0000000  0.6508444  3
   3520   3522   3524   3527     1  0.0000000  0.6508444  3
   3521   3520   3522   3523     1  0.0000000  1.2552000  3
   3521   3520   3522   3525     1  0.0000000  1.2552000  3
   3522   3520   3521   3530     1  0.0000000  1.2552000  3
   3522   3520   3521   3531     1  0.0000000  1.2552000  3
   3523   3522   3524   3528     1  0.0000000  0.6508444  3
   3523   3522   3524   3526     1  0.0000000  0.6508444  3
   3523   3522   3524   3527     1  0.0000000  0.6508444  3
   3524   3528   3560   3550     1  180.0000771  6.0668000  2
   3524   3528   3560   3550     1  180.0000771  1.4644000  4
   3525   3522   3524   3528     1  0.0000000  0.6508444  3
   3525   3522   3524   3526     1  0.0000000  0.6508444  3
   3525   3522   3524   3527     1  0.0000000  0.6508444  3
   3526   3524   3528   3529     1  0.0000000  3.3472000  1
   3526   3524   3528   3529     1  0.0000000  0.0000000  2
   3526   3524   3528   3529     1  180.0000771  0.3347200  3
   3526   3524   3528   3560     1  180.0000771  0.0000000  2
   3527   3524   3528   3529     1  0.0000000  3.3472000  1
   3527   3524   3528   3529     1  0.0000000  0.0000000  2
   3527   3524   3528   3529     1  180.0000771  0.3347200  3
   3527   3524   3528   3560     1  180.0000771  0.0000000  2
   3528   3560   3541   3543     1  0.0000000  1.2552000  3
   3529   3528   3560   3550     1  180.0000771  6.0668000  2
   3529   3528   3560   3550     1  180.0000771  1.4644000  4
   3530   3521   3532   3535     1  0.0000000  0.6508444  3
   3530   3521   3532   3533     1  0.0000000  0.6508444  3
   3530   3521   3532   3534     1  0.0000000  0.6508444  3
   3531   3521   3532   3535     1  0.0000000  0.6508444  3
   3531   3521   3532   3533     1  0.0000000  0.6508444  3
   3531   3521   3532   3534     1  0.0000000  0.6508444  3
   3532   3535   3584   3574     1  180.0000771  6.0668000  2
   3532   3535   3584   3574     1  180.0000771  1.4644000  4
   3533   3532   3535   3536     1  0.0000000  3.3472000  1
   3533   3532   3535   3536     1  0.0000000  0.0000000  2
   3533   3532   3535   3536     1  180.0000771  0.3347200  3
   3533   3532   3535   3584     1  180.0000771  0.0000000  2
   3534   3532   3535   3536     1  0.0000000  3.3472000  1
   3534   3532   3535   3536     1  0.0000000  0.0000000  2
   3534   3532   3535   3536     1  180.0000771  0.3347200  3
   3534   3532   3535   3584     1  180.0000771  0.0000000  2
   3535   3584   3565   3567     1  0.0000000  1.2552000  3
   3536   3535   3584   3574     1  180.0000771  6.0668000  2
   3536   3535   3584   3574     1  180.0000771  1.4644000  4
   3537   3538   3540   3544     1  0.0000000  0.6508444  3
   3537   3538   3558   3559     1  0.0000000  1.0460000  1
   3537   3538   3558   3559     1  0.0000000  0.6694400  3
   3537   3548   3553   3554     1  0.0000000  1.0460000  1
   3537   3548   3553   3554     1  0.0000000  0.6694400  3
   3537   3555   3542   3545     1  0.0000000  1.6038667  3
   3538   3540   3541   3543     1  0.0000000  0.6508444  3
   3538   3540   3547   3549     1  0.0000000  1.0460000  1
   3538   3540   3547   3549     1  0.0000000  0.6694400  3
   3538   3537   3548   3551     1  0.0000000  0.6508444  3
   3538   3537   3548   3552     1  0.0000000  0.6508444  3
   3539   3537   3538   3540     1  0.0000000  0.6508444  3
   3539   3537   3538   3558     1  0.0000000  1.0460000  1
   3539   3537   3538   3558     1  0.0000000  0.0000000  3
   3539   3537   3538   3557     1  0.0000000  0.6508444  3
   3539   3537   3548   3553     1  0.0000000  1.0460000  1
   3539   3537   3548   3553     1  0.0000000  0.0000000  3
   3539   3537   3548   3551     1  0.0000000  0.6508444  3
   3539   3537   3548   3552     1  0.0000000  0.6508444  3
   3539   3537   3555   3542     1  0.0000000  1.6038667  3
   3540   3541   3542   3545     1  0.0000000  0.6508444  3
   3540   3541   3560   3550     1  0.0000000  1.2552000  3
   3540   3538   3558   3559     1  0.0000000  1.0460000  1
   3540   3538   3558   3559     1  0.0000000  0.6694400  3
   3541   3542   3546   3556     1  0.0000000  1.0460000  1
   3541   3542   3546   3556     1  0.0000000  0.6694400  3
   3541   3540   3547   3549     1  0.0000000  1.0460000  1
   3541   3540   3547   3549     1  0.0000000  0.6694400  3
   3541   3540   3538   3557     1  0.0000000  0.6508444  3
   3542   3541   3560   3550     1  0.0000000  1.2552000  3
   3542   3541   3540   3544     1  0.0000000  0.6508444  3
   3543   3541   3542   3546     1  0.0000000  1.0460000  1
   3543   3541   3542   3546     1  0.0000000  0.0000000  3
   3543   3541   3542   3555     1  0.0000000  1.0460000  1
   3543   3541   3542   3555     1  0.0000000  0.0000000  3
   3543   3541   3542   3545     1  0.0000000  0.6508444  3
   3543   3541   3560   3550     1  0.0000000  1.2552000  3
   3543   3541   3540   3547     1  0.0000000  1.0460000  1
   3543   3541   3540   3547     1  0.0000000  0.0000000  3
   3543   3541   3540   3544     1  0.0000000  0.6508444  3
   3544   3540   3541   3560     1  0.0000000  0.6508444  3
   3544   3540   3547   3549     1  0.0000000  0.6973333  3
   3544   3540   3538   3558     1  0.0000000  1.0460000  1
   3544   3540   3538   3558     1  0.0000000  0.0000000  3
   3544   3540   3538   3557     1  0.0000000  0.6508444  3
   3545   3542   3546   3556     1  0.0000000  0.6973333  3
   3545   3542   3541   3560     1  0.0000000  0.6508444  3
   3547   3540   3538   3557     1  0.0000000  1.0460000  1
   3547   3540   3538   3557     1  0.0000000  0.0000000  3
   3548   3537   3538   3557     1  0.0000000  0.6508444  3
   3551   3548   3553   3554     1  0.0000000  0.6973333  3
   3551   3548   3537   3555     1  0.0000000  1.0460000  1
   3551   3548   3537   3555     1  0.0000000  0.0000000  3
   3552   3548   3553   3554     1  0.0000000  0.6973333  3
   3552   3548   3537   3555     1  0.0000000  1.0460000  1
   3552   3548   3537   3555     1  0.0000000  0.0000000  3
   3555   3542   3546   3556     1  0.0000000  0.6973333  3
   3555   3537   3538   3557     1  0.0000000  1.0460000  1
   3555   3537   3538   3557     1  0.0000000  0.0000000  3
   3557   3538   3558   3559     1  0.0000000  0.6973333  3
   3561   3562   3564   3568     1  0.0000000  0.6508444  3
   3561   3562   3582   3583     1  0.0000000  1.0460000  1
   3561   3562   3582   3583     1  0.0000000  0.6694400  3
   3561   3572   3577   3578     1  0.0000000  1.0460000  1
   3561   3572   3577   3578     1  0.0000000  0.6694400  3
   3561   3579   3566   3569     1  0.0000000  1.6038667  3
   3562   3564   3565   3567     1  0.0000000  0.6508444  3
   3562   3564   3571   3573     1  0.0000000  1.0460000  1
   3562   3564   3571   3573     1  0.0000000  0.6694400  3
   3562   3561   3572   3575     1  0.0000000  0.6508444  3
   3562   3561   3572   3576     1  0.0000000  0.6508444  3
   3563   3561   3562   3564     1  0.0000000  0.6508444  3
   3563   3561   3562   3582     1  0.0000000  1.0460000  1
   3563   3561   3562   3582     1  0.0000000  0.0000000  3
   3563   3561   3562   3581     1  0.0000000  0.6508444  3
   3563   3561   3572   3577     1  0.0000000  1.0460000  1
   3563   3561   3572   3577     1  0.0000000  0.0000000  3
   3563   3561   3572   3575     1  0.0000000  0.6508444  3
   3563   3561   3572   3576     1  0.0000000  0.6508444  3
   3563   3561   3579   3566     1  0.0000000  1.6038667  3
   3564   3565   3566   3569     1  0.0000000  0.6508444  3
   3564   3565   3584   3574     1  0.0000000  1.2552000  3
   3564   3562   3582   3583     1  0.0000000  1.0460000  1
   3564   3562   3582   3583     1  0.0000000  0.6694400  3
   3565   3566   3570   3580     1  0.0000000  1.0460000  1
   3565   3566   3570   3580     1  0.0000000  0.6694400  3
   3565   3564   3571   3573     1  0.0000000  1.0460000  1
   3565   3564   3571   3573     1  0.0000000  0.6694400  3
   3565   3564   3562   3581     1  0.0000000  0.6508444  3
   3566   3565   3584   3574     1  0.0000000  1.2552000  3
   3566   3565   3564   3568     1  0.0000000  0.6508444  3
   3567   3565   3566   3570     1  0.0000000  1.0460000  1
   3567   3565   3566   3570     1  0.0000000  0.0000000  3
   3567   3565   3566   3579     1  0.0000000  1.0460000  1
   3567   3565   3566   3579     1  0.0000000  0.0000000  3
   3567   3565   3566   3569     1  0.0000000  0.6508444  3
   3567   3565   3584   3574     1  0.0000000  1.2552000  3
   3567   3565   3564   3571     1  0.0000000  1.0460000  1
   3567   3565   3564   3571     1  0.0000000  0.0000000  3
   3567   3565   3564   3568     1  0.0000000  0.6508444  3
   3568   3564   3565   3584     1  0.0000000  0.6508444  3
   3568   3564   3571   3573     1  0.0000000  0.6973333  3
   3568   3564   3562   3582     1  0.0000000  1.0460000  1
   3568   3564   3562   3582     1  0.0000000  0.0000000  3
   3568   3564   3562   3581     1  0.0000000  0.6508444  3
   3569   3566   3570   3580     1  0.0000000  0.6973333  3
   3569   3566   3565   3584     1  0.0000000  0.6508444  3
   3571   3564   3562   3581     1  0.0000000  1.0460000  1
   3571   3564   3562   3581     1  0.0000000  0.0000000  3
   3572   3561   3562   3581     1  0.0000000  0.6508444  3
   3575   3572   3577   3578     1  0.0000000  0.6973333  3
   3575   3572   3561   3579     1  0.0000000  1.0460000  1
   3575   3572   3561   3579     1  0.0000000  0.0000000  3
   3576   3572   3577   3578     1  0.0000000  0.6973333  3
   3576   3572   3561   3579     1  0.0000000  1.0460000  1
   3576   3572   3561   3579     1  0.0000000  0.0000000  3
   3579   3566   3570   3580     1  0.0000000  0.6973333  3
   3579   3561   3562   3581     1  0.0000000  1.0460000  1
   3579   3561   3562   3581     1  0.0000000  0.0000000  3
   3581   3562   3582   3583     1  0.0000000  0.6973333  3
   3585   3587   3589   3591     1  0.0000000  0.6508444  3
   3585   3587   3589   3592     1  0.0000000  0.6508444  3
   3586   3585   3587   3589     1  0.0000000  0.0000000  2
   3586   3585   3587   3588     1  0.0000000  0.0000000  2
   3586   3585   3587   3590     1  0.0000000  0.0000000  2
   3588   3587   3589   3593     1  0.0000000  0.6508444  3
   3588   3587   3589   3591     1  0.0000000  0.6508444  3
   3588   3587   3589   3592     1  0.0000000  0.6508444  3
   3589   3593   3594   3603     1  0.0000000  1.2552000  3
   3589   3593   3594   3604     1  0.0000000  1.2552000  3
   3589   3593   3595   3596     1  0.0000000  1.2552000  3
   3589   3593   3595   3598     1  0.0000000  1.2552000  3
   3590   3587   3589   3593     1  0.0000000  0.6508444  3
   3590   3587   3589   3591     1  0.0000000  0.6508444  3
   3590   3587   3589   3592     1  0.0000000  0.6508444  3
   3591   3589   3593   3594     1  0.0000000  1.2552000  3
   3591   3589   3593   3595     1  0.0000000  1.2552000  3
   3592   3589   3593   3594     1  0.0000000  1.2552000  3
   3592   3589   3593   3595     1  0.0000000  1.2552000  3
   3593   3594   3605   3606     1  0.0000000  0.6508444  3
   3593   3594   3605   3607     1  0.0000000  0.6508444  3
   3593   3595   3597   3599     1  0.0000000  0.6508444  3
   3593   3595   3597   3600     1  0.0000000  0.6508444  3
   3594   3593   3595   3596     1  0.0000000  1.2552000  3
   3594   3593   3595   3598     1  0.0000000  1.2552000  3
   3595   3593   3594   3603     1  0.0000000  1.2552000  3
   3595   3593   3594   3604     1  0.0000000  1.2552000  3
   3596   3595   3597   3601     1  0.0000000  0.6508444  3
   3596   3595   3597   3599     1  0.0000000  0.6508444  3
   3596   3595   3597   3600     1  0.0000000  0.6508444  3
   3597   3601   3633   3623     1  180.0000771  6.0668000  2
   3597   3601   3633   3623     1  180.0000771  1.4644000  4
   3598   3595   3597   3601     1  0.0000000  0.6508444  3
   3598   3595   3597   3599     1  0.0000000  0.6508444  3
   3598   3595   3597   3600     1  0.0000000  0.6508444  3
   3599   3597   3601   3602     1  0.0000000  3.3472000  1
   3599   3597   3601   3602     1  0.0000000  0.0000000  2
   3599   3597   3601   3602     1  180.0000771  0.3347200  3
   3599   3597   3601   3633     1  180.0000771  0.0000000  2
   3600   3597   3601   3602     1  0.0000000  3.3472000  1
   3600   3597   3601   3602     1  0.0000000  0.0000000  2
   3600   3597   3601   3602     1  180.0000771  0.3347200  3
   3600   3597   3601   3633     1  180.0000771  0.0000000  2
   3601   3633   3614   3616     1  0.0000000  1.2552000  3
   3602   3601   3633   3623     1  180.0000771  6.0668000  2
   3602   3601   3633   3623     1  180.0000771  1.4644000  4
   3603   3594   3605   3608     1  0.0000000  0.6508444  3
   3603   3594   3605   3606     1  0.0000000  0.6508444  3
   3603   3594   3605   3607     1  0.0000000  0.6508444  3
   3604   3594   3605   3608     1  0.0000000  0.6508444  3
   3604   3594   3605   3606     1  0.0000000  0.6508444  3
   3604   3594   3605   3607     1  0.0000000  0.6508444  3
   3605   3608   3657   3647     1  180.0000771  6.0668000  2
   3605   3608   3657   3647     1  180.0000771  1.4644000  4
   3606   3605   3608   3609     1  0.0000000  3.3472000  1
   3606   3605   3608   3609     1  0.0000000  0.0000000  2
   3606   3605   3608   3609     1  180.0000771  0.3347200  3
   3606   3605   3608   3657     1  180.0000771  0.0000000  2
   3607   3605   3608   3609     1  0.0000000  3.3472000  1
   3607   3605   3608   3609     1  0.0000000  0.0000000  2
   3607   3605   3608   3609     1  180.0000771  0.3347200  3
   3607   3605   3608   3657     1  180.0000771  0.0000000  2
   3608   3657   3638   3640     1  0.0000000  1.2552000  3
   3609   3608   3657   3647     1  180.0000771  6.0668000  2
   3609   3608   3657   3647     1  180.0000771  1.4644000  4
   3610   3611   3613   3617     1  0.0000000  0.6508444  3
   3610   3611   3631   3632     1  0.0000000  1.0460000  1
   3610   3611   3631   3632     1  0.0000000  0.6694400  3
   3610   3621   3626   3627     1  0.0000000  1.0460000  1
   3610   3621   3626   3627     1  0.0000000  0.6694400  3
   3610   3628   3615   3618     1  0.0000000  1.6038667  3
   3611   3610   3621   3624     1  0.0000000  0.6508444  3
   3611   3610   3621   3625     1  0.0000000  0.6508444  3
   3611   3613   3614   3616     1  0.0000000  0.6508444  3
   3611   3613   3620   3622     1  0.0000000  1.0460000  1
   3611   3613   3620   3622     1  0.0000000  0.6694400  3
   3612   3610   3611   3613     1  0.0000000  0.6508444  3
   3612   3610   3611   3631     1  0.0000000  1.0460000  1
   3612   3610   3611   3631     1  0.0000000  0.0000000  3
   3612   3610   3611   3630     1  0.0000000  0.6508444  3
   3612   3610   3621   3626     1  0.0000000  1.0460000  1
   3612   3610   3621   3626     1  0.0000000  0.0000000  3
   3612   3610   3621   3624     1  0.0000000  0.6508444  3
   3612   3610   3621   3625     1  0.0000000  0.6508444  3
   3612   3610   3628   3615     1  0.0000000  1.6038667  3
   3613   3611   3631   3632     1  0.0000000  1.0460000  1
   3613   3611   3631   3632     1  0.0000000  0.6694400  3
   3613   3614   3615   3618     1  0.0000000  0.6508444  3
   3613   3614   3633   3623     1  0.0000000  1.2552000  3
   3614   3613   3611   3630     1  0.0000000  0.6508444  3
   3614   3613   3620   3622     1  0.0000000  1.0460000  1
   3614   3613   3620   3622     1  0.0000000  0.6694400  3
   3614   3615   3619   3629     1  0.0000000  1.0460000  1
   3614   3615   3619   3629     1  0.0000000  0.6694400  3
   3615   3614   3613   3617     1  0.0000000  0.6508444  3
   3615   3614   3633   3623     1  0.0000000  1.2552000  3
   3616   3614   3613   3620     1  0.0000000  1.0460000  1
   3616   3614   3613   3620     1  0.0000000  0.0000000  3
   3616   3614   3613   3617     1  0.0000000  0.6508444  3
   3616   3614   3615   3619     1  0.0000000  1.0460000  1
   3616   3614   3615   3619     1  0.0000000  0.0000000  3
   3616   3614   3615   3628     1  0.0000000  1.0460000  1
   3616   3614   3615   3628     1  0.0000000  0.0000000  3
   3616   3614   3615   3618     1  0.0000000  0.6508444  3
   3616   3614   3633   3623     1  0.0000000  1.2552000  3
   3617   3613   3611   3631     1  0.0000000  1.0460000  1
   3617   3613   3611   3631     1  0.0000000  0.0000000  3
   3617   3613   3611   3630     1  0.0000000  0.6508444  3
   3617   3613   3614   3633     1  0.0000000  0.6508444  3
   3617   3613   3620   3622     1  0.0000000  0.6973333  3
   3618   3615   3614   3633     1  0.0000000  0.6508444  3
   3618   3615   3619   3629     1  0.0000000  0.6973333  3
   3620   3613   3611   3630     1  0.0000000  1.0460000  1
   3620   3613   3611   3630     1  0.0000000  0.0000000  3
   3621   3610   3611   3630     1  0.0000000  0.6508444  3
   3624   3621   3610   3628     1  0.0000000  1.0460000  1
   3624   3621   3610   3628     1  0.0000000  0.0000000  3
   3624   3621   3626   3627     1  0.0000000  0.6973333  3
   3625   3621   3610   3628     1  0.0000000  1.0460000  1
   3625   3621   3610   3628     1  0.0000000  0.0000000  3
   3625   3621   3626   3627     1  0.0000000  0.6973333  3
   3628   3610   3611   3630     1  0.0000000  1.0460000  1
   3628   3610   3611   3630     1  0.0000000  0.0000000  3
   3628   3615   3619   3629     1  0.0000000  0.6973333  3
   3630   3611   3631   3632     1  0.0000000  0.6973333  3
   3634   3635   3637   3641     1  0.0000000  0.6508444  3
   3634   3635   3655   3656     1  0.0000000  1.0460000  1
   3634   3635   3655   3656     1  0.0000000  0.6694400  3
   3634   3645   3650   3651     1  0.0000000  1.0460000  1
   3634   3645   3650   3651     1  0.0000000  0.6694400  3
   3634   3652   3639   3642     1  0.0000000  1.6038667  3
   3635   3634   3645   3648     1  0.0000000  0.6508444  3
   3635   3634   3645   3649     1  0.0000000  0.6508444  3
   3635   3637   3638   3640     1  0.0000000  0.6508444  3
   3635   3637   3644   3646     1  0.0000000  1.0460000  1
   3635   3637   3644   3646     1  0.0000000  0.6694400  3
   3636   3634   3635   3637     1  0.0000000  0.6508444  3
   3636   3634   3635   3655     1  0.0000000  1.0460000  1
   3636   3634   3635   3655     1  0.0000000  0.0000000  3
   3636   3634   3635   3654     1  0.0000000  0.6508444  3
   3636   3634   3645   3650     1  0.0000000  1.0460000  1
   3636   3634   3645   3650     1  0.0000000  0.0000000  3
   3636   3634   3645   3648     1  0.0000000  0.6508444  3
   3636   3634   3645   3649     1  0.0000000  0.6508444  3
   3636   3634   3652   3639     1  0.0000000  1.6038667  3
   3637   3635   3655   3656     1  0.0000000  1.0460000  1
   3637   3635   3655   3656     1  0.0000000  0.6694400  3
   3637   3638   3639   3642     1  0.0000000  0.6508444  3
   3637   3638   3657   3647     1  0.0000000  1.2552000  3
   3638   3637   3635   3654     1  0.0000000  0.6508444  3
   3638   3637   3644   3646     1  0.0000000  1.0460000  1
   3638   3637   3644   3646     1  0.0000000  0.6694400  3
   3638   3639   3643   3653     1  0.0000000  1.0460000  1
   3638   3639   3643   3653     1  0.0000000  0.6694400  3
   3639   3638   3637   3641     1  0.0000000  0.6508444  3
   3639   3638   3657   3647     1  0.0000000  1.2552000  3
   3640   3638   3637   3644     1  0.0000000  1.0460000  1
   3640   3638   3637   3644     1  0.0000000  0.0000000  3
   3640   3638   3637   3641     1  0.0000000  0.6508444  3
   3640   3638   3639   3643     1  0.0000000  1.0460000  1
   3640   3638   3639   3643     1  0.0000000  0.0000000  3
   3640   3638   3639   3652     1  0.0000000  1.0460000  1
   3640   3638   3639   3652     1  0.0000000  0.0000000  3
   3640   3638   3639   3642     1  0.0000000  0.6508444  3
   3640   3638   3657   3647     1  0.0000000  1.2552000  3
   3641   3637   3635   3655     1  0.0000000  1.0460000  1
   3641   3637   3635   3655     1  0.0000000  0.0000000  3
   3641   3637   3635   3654     1  0.0000000  0.6508444  3
   3641   3637   3638   3657     1  0.0000000  0.6508444  3
   3641   3637   3644   3646     1  0.0000000  0.6973333  3
   3642   3639   3638   3657     1  0.0000000  0.6508444  3
   3642   3639   3643   3653     1  0.0000000  0.6973333  3
   3644   3637   3635   3654     1  0.0000000  1.0460000  1
   3644   3637   3635   3654     1  0.0000000  0.0000000  3
   3645   3634   3635   3654     1  0.0000000  0.6508444  3
   3648   3645   3634   3652     1  0.0000000  1.0460000  1
   3648   3645   3634   3652     1  0.0000000  0.0000000  3
   3648   3645   3650   3651     1  0.0000000  0.6973333  3
   3649   3645   3634   3652     1  0.0000000  1.0460000  1
   3649   3645   3634   3652     1  0.0000000  0.0000000  3
   3649   3645   3650   3651     1  0.0000000  0.6973333  3
   3652   3634   3635   3654     1  0.0000000  1.0460000  1
   3652   3634   3635   3654     1  0.0000000  0.0000000  3
   3652   3639   3643   3653     1  0.0000000  0.6973333  3
   3654   3635   3655   3656     1  0.0000000  0.6973333  3
   3658   3660   3662   3664     1  0.0000000  0.6508444  3
   3658   3660   3662   3665     1  0.0000000  0.6508444  3
   3659   3658   3660   3662     1  0.0000000  0.0000000  2
   3659   3658   3660   3661     1  0.0000000  0.0000000  2
   3659   3658   3660   3663     1  0.0000000  0.0000000  2
   3661   3660   3662   3666     1  0.0000000  0.6508444  3
   3661   3660   3662   3664     1  0.0000000  0.6508444  3
   3661   3660   3662   3665     1  0.0000000  0.6508444  3
   3662   3666   3667   3676     1  0.0000000  1.2552000  3
   3662   3666   3667   3677     1  0.0000000  1.2552000  3
   3662   3666   3668   3669     1  0.0000000  1.2552000  3
   3662   3666   3668   3671     1  0.0000000  1.2552000  3
   3663   3660   3662   3666     1  0.0000000  0.6508444  3
   3663   3660   3662   3664     1  0.0000000  0.6508444  3
   3663   3660   3662   3665     1  0.0000000  0.6508444  3
   3664   3662   3666   3667     1  0.0000000  1.2552000  3
   3664   3662   3666   3668     1  0.0000000  1.2552000  3
   3665   3662   3666   3667     1  0.0000000  1.2552000  3
   3665   3662   3666   3668     1  0.0000000  1.2552000  3
   3666   3667   3678   3679     1  0.0000000  0.6508444  3
   3666   3667   3678   3680     1  0.0000000  0.6508444  3
   3666   3668   3670   3672     1  0.0000000  0.6508444  3
   3666   3668   3670   3673     1  0.0000000  0.6508444  3
   3667   3666   3668   3669     1  0.0000000  1.2552000  3
   3667   3666   3668   3671     1  0.0000000  1.2552000  3
   3668   3666   3667   3676     1  0.0000000  1.2552000  3
   3668   3666   3667   3677     1  0.0000000  1.2552000  3
   3669   3668   3670   3674     1  0.0000000  0.6508444  3
   3669   3668   3670   3672     1  0.0000000  0.6508444  3
   3669   3668   3670   3673     1  0.0000000  0.6508444  3
   3670   3674   3706   3696     1  180.0000771  6.0668000  2
   3670   3674   3706   3696     1  180.0000771  1.4644000  4
   3671   3668   3670   3674     1  0.0000000  0.6508444  3
   3671   3668   3670   3672     1  0.0000000  0.6508444  3
   3671   3668   3670   3673     1  0.0000000  0.6508444  3
   3672   3670   3674   3675     1  0.0000000  3.3472000  1
   3672   3670   3674   3675     1  0.0000000  0.0000000  2
   3672   3670   3674   3675     1  180.0000771  0.3347200  3
   3672   3670   3674   3706     1  180.0000771  0.0000000  2
   3673   3670   3674   3675     1  0.0000000  3.3472000  1
   3673   3670   3674   3675     1  0.0000000  0.0000000  2
   3673   3670   3674   3675     1  180.0000771  0.3347200  3
   3673   3670   3674   3706     1  180.0000771  0.0000000  2
   3674   3706   3687   3689     1  0.0000000  1.2552000  3
   3675   3674   3706   3696     1  180.0000771  6.0668000  2
   3675   3674   3706   3696     1  180.0000771  1.4644000  4
   3676   3667   3678   3681     1  0.0000000  0.6508444  3
   3676   3667   3678   3679     1  0.0000000  0.6508444  3
   3676   3667   3678   3680     1  0.0000000  0.6508444  3
   3677   3667   3678   3681     1  0.0000000  0.6508444  3
   3677   3667   3678   3679     1  0.0000000  0.6508444  3
   3677   3667   3678   3680     1  0.0000000  0.6508444  3
   3678   3681   3730   3720     1  180.0000771  6.0668000  2
   3678   3681   3730   3720     1  180.0000771  1.4644000  4
   3679   3678   3681   3682     1  0.0000000  3.3472000  1
   3679   3678   3681   3682     1  0.0000000  0.0000000  2
   3679   3678   3681   3682     1  180.0000771  0.3347200  3
   3679   3678   3681   3730     1  180.0000771  0.0000000  2
   3680   3678   3681   3682     1  0.0000000  3.3472000  1
   3680   3678   3681   3682     1  0.0000000  0.0000000  2
   3680   3678   3681   3682     1  180.0000771  0.3347200  3
   3680   3678   3681   3730     1  180.0000771  0.0000000  2
   3681   3730   3711   3713     1  0.0000000  1.2552000  3
   3682   3681   3730   3720     1  180.0000771  6.0668000  2
   3682   3681   3730   3720     1  180.0000771  1.4644000  4
   3683   3684   3686   3690     1  0.0000000  0.6508444  3
   3683   3684   3704   3705     1  0.0000000  1.0460000  1
   3683   3684   3704   3705     1  0.0000000  0.6694400  3
   3683   3694   3699   3700     1  0.0000000  1.0460000  1
   3683   3694   3699   3700     1  0.0000000  0.6694400  3
   3683   3701   3688   3691     1  0.0000000  1.6038667  3
   3684   3686   3687   3689     1  0.0000000  0.6508444  3
   3684   3686   3693   3695     1  0.0000000  1.0460000  1
   3684   3686   3693   3695     1  0.0000000  0.6694400  3
   3684   3683   3694   3697     1  0.0000000  0.6508444  3
   3684   3683   3694   3698     1  0.0000000  0.6508444  3
   3685   3683   3684   3686     1  0.0000000  0.6508444  3
   3685   3683   3684   3704     1  0.0000000  1.0460000  1
   3685   3683   3684   3704     1  0.0000000  0.0000000  3
   3685   3683   3684   3703     1  0.0000000  0.6508444  3
   3685   3683   3694   3699     1  0.0000000  1.0460000  1
   3685   3683   3694   3699     1  0.0000000  0.0000000  3
   3685   3683   3694   3697     1  0.0000000  0.6508444  3
   3685   3683   3694   3698     1  0.0000000  0.6508444  3
   3685   3683   3701   3688     1  0.0000000  1.6038667  3
   3686   3687   3688   3691     1  0.0000000  0.6508444  3
   3686   3687   3706   3696     1  0.0000000  1.2552000  3
   3686   3684   3704   3705     1  0.0000000  1.0460000  1
   3686   3684   3704   3705     1  0.0000000  0.6694400  3
   3687   3688   3692   3702     1  0.0000000  1.0460000  1
   3687   3688   3692   3702     1  0.0000000  0.6694400  3
   3687   3686   3693   3695     1  0.0000000  1.0460000  1
   3687   3686   3693   3695     1  0.0000000  0.6694400  3
   3687   3686   3684   3703     1  0.0000000  0.6508444  3
   3688   3687   3706   3696     1  0.0000000  1.2552000  3
   3688   3687   3686   3690     1  0.0000000  0.6508444  3
   3689   3687   3688   3692     1  0.0000000  1.0460000  1
   3689   3687   3688   3692     1  0.0000000  0.0000000  3
   3689   3687   3688   3701     1  0.0000000  1.0460000  1
   3689   3687   3688   3701     1  0.0000000  0.0000000  3
   3689   3687   3688   3691     1  0.0000000  0.6508444  3
   3689   3687   3706   3696     1  0.0000000  1.2552000  3
   3689   3687   3686   3693     1  0.0000000  1.0460000  1
   3689   3687   3686   3693     1  0.0000000  0.0000000  3
   3689   3687   3686   3690     1  0.0000000  0.6508444  3
   3690   3686   3687   3706     1  0.0000000  0.6508444  3
   3690   3686   3693   3695     1  0.0000000  0.6973333  3
   3690   3686   3684   3704     1  0.0000000  1.0460000  1
   3690   3686   3684   3704     1  0.0000000  0.0000000  3
   3690   3686   3684   3703     1  0.0000000  0.6508444  3
   3691   3688   3692   3702     1  0.0000000  0.6973333  3
   3691   3688   3687   3706     1  0.0000000  0.6508444  3
   3693   3686   3684   3703     1  0.0000000  1.0460000  1
   3693   3686   3684   3703     1  0.0000000  0.0000000  3
   3694   3683   3684   3703     1  0.0000000  0.6508444  3
   3697   3694   3699   3700     1  0.0000000  0.6973333  3
   3697   3694   3683   3701     1  0.0000000  1.0460000  1
   3697   3694   3683   3701     1  0.0000000  0.0000000  3
   3698   3694   3699   3700     1  0.0000000  0.6973333  3
   3698   3694   3683   3701     1  0.0000000  1.0460000  1
   3698   3694   3683   3701     1  0.0000000  0.0000000  3
   3701   3688   3692   3702     1  0.0000000  0.6973333  3
   3701   3683   3684   3703     1  0.0000000  1.0460000  1
   3701   3683   3684   3703     1  0.0000000  0.0000000  3
   3703   3684   3704   3705     1  0.0000000  0.6973333  3
   3707   3708   3710   3714     1  0.0000000  0.6508444  3
   3707   3708   3728   3729     1  0.0000000  1.0460000  1
   3707   3708   3728   3729     1  0.0000000  0.6694400  3
   3707   3718   3723   3724     1  0.0000000  1.0460000  1
   3707   3718   3723   3724     1  0.0000000  0.6694400  3
   3707   3725   3712   3715     1  0.0000000  1.6038667  3
   3708   3710   3711   3713     1  0.0000000  0.6508444  3
   3708   3710   3717   3719     1  0.0000000  1.0460000  1
   3708   3710   3717   3719     1  0.0000000  0.6694400  3
   3708   3707   3718   3721     1  0.0000000  0.6508444  3
   3708   3707   3718   3722     1  0.0000000  0.6508444  3
   3709   3707   3708   3710     1  0.0000000  0.6508444  3
   3709   3707   3708   3728     1  0.0000000  1.0460000  1
   3709   3707   3708   3728     1  0.0000000  0.0000000  3
   3709   3707   3708   3727     1  0.0000000  0.6508444  3
   3709   3707   3718   3723     1  0.0000000  1.0460000  1
   3709   3707   3718   3723     1  0.0000000  0.0000000  3
   3709   3707   3718   3721     1  0.0000000  0.6508444  3
   3709   3707   3718   3722     1  0.0000000  0.6508444  3
   3709   3707   3725   3712     1  0.0000000  1.6038667  3
   3710   3711   3712   3715     1  0.0000000  0.6508444  3
   3710   3711   3730   3720     1  0.0000000  1.2552000  3
   3710   3708   3728   3729     1  0.0000000  1.0460000  1
   3710   3708   3728   3729     1  0.0000000  0.6694400  3
   3711   3712   3716   3726     1  0.0000000  1.0460000  1
   3711   3712   3716   3726     1  0.0000000  0.6694400  3
   3711   3710   3717   3719     1  0.0000000  1.0460000  1
   3711   3710   3717   3719     1  0.0000000  0.6694400  3
   3711   3710   3708   3727     1  0.0000000  0.6508444  3
   3712   3711   3730   3720     1  0.0000000  1.2552000  3
   3712   3711   3710   3714     1  0.0000000  0.6508444  3
   3713   3711   3712   3716     1  0.0000000  1.0460000  1
   3713   3711   3712   3716     1  0.0000000  0.0000000  3
   3713   3711   3712   3725     1  0.0000000  1.0460000  1
   3713   3711   3712   3725     1  0.0000000  0.0000000  3
   3713   3711   3712   3715     1  0.0000000  0.6508444  3
   3713   3711   3730   3720     1  0.0000000  1.2552000  3
   3713   3711   3710   3717     1  0.0000000  1.0460000  1
   3713   3711   3710   3717     1  0.0000000  0.0000000  3
   3713   3711   3710   3714     1  0.0000000  0.6508444  3
   3714   3710   3711   3730     1  0.0000000  0.6508444  3
   3714   3710   3717   3719     1  0.0000000  0.6973333  3
   3714   3710   3708   3728     1  0.0000000  1.0460000  1
   3714   3710   3708   3728     1  0.0000000  0.0000000  3
   3714   3710   3708   3727     1  0.0000000  0.6508444  3
   3715   3712   3716   3726     1  0.0000000  0.6973333  3
   3715   3712   3711   3730     1  0.0000000  0.6508444  3
   3717   3710   3708   3727     1  0.0000000  1.0460000  1
   3717   3710   3708   3727     1  0.0000000  0.0000000  3
   3718   3707   3708   3727     1  0.0000000  0.6508444  3
   3721   3718   3723   3724     1  0.0000000  0.6973333  3
   3721   3718   3707   3725     1  0.0000000  1.0460000  1
   3721   3718   3707   3725     1  0.0000000  0.0000000  3
   3722   3718   3723   3724     1  0.0000000  0.6973333  3
   3722   3718   3707   3725     1  0.0000000  1.0460000  1
   3722   3718   3707   3725     1  0.0000000  0.0000000  3
   3725   3712   3716   3726     1  0.0000000  0.6973333  3
   3725   3707   3708   3727     1  0.0000000  1.0460000  1
   3725   3707   3708   3727     1  0.0000000  0.0000000  3
   3727   3708   3728   3729     1  0.0000000  0.6973333  3
   3731   3733   3735   3737     1  0.0000000  0.6508444  3
   3731   3733   3735   3738     1  0.0000000  0.6508444  3
   3732   3731   3733   3735     1  0.0000000  0.0000000  2
   3732   3731   3733   3734     1  0.0000000  0.0000000  2
   3732   3731   3733   3736     1  0.0000000  0.0000000  2
   3734   3733   3735   3739     1  0.0000000  0.6508444  3
   3734   3733   3735   3737     1  0.0000000  0.6508444  3
   3734   3733   3735   3738     1  0.0000000  0.6508444  3
   3735   3739   3740   3749     1  0.0000000  1.2552000  3
   3735   3739   3740   3750     1  0.0000000  1.2552000  3
   3735   3739   3741   3742     1  0.0000000  1.2552000  3
   3735   3739   3741   3744     1  0.0000000  1.2552000  3
   3736   3733   3735   3739     1  0.0000000  0.6508444  3
   3736   3733   3735   3737     1  0.0000000  0.6508444  3
   3736   3733   3735   3738     1  0.0000000  0.6508444  3
   3737   3735   3739   3740     1  0.0000000  1.2552000  3
   3737   3735   3739   3741     1  0.0000000  1.2552000  3
   3738   3735   3739   3740     1  0.0000000  1.2552000  3
   3738   3735   3739   3741     1  0.0000000  1.2552000  3
   3739   3740   3751   3752     1  0.0000000  0.6508444  3
   3739   3740   3751   3753     1  0.0000000  0.6508444  3
   3739   3741   3743   3745     1  0.0000000  0.6508444  3
   3739   3741   3743   3746     1  0.0000000  0.6508444  3
   3740   3739   3741   3742     1  0.0000000  1.2552000  3
   3740   3739   3741   3744     1  0.0000000  1.2552000  3
   3741   3739   3740   3749     1  0.0000000  1.2552000  3
   3741   3739   3740   3750     1  0.0000000  1.2552000  3
   3742   3741   3743   3747     1  0.0000000  0.6508444  3
   3742   3741   3743   3745     1  0.0000000  0.6508444  3
   3742   3741   3743   3746     1  0.0000000  0.6508444  3
   3743   3747   3779   3769     1  180.0000771  6.0668000  2
   3743   3747   3779   3769     1  180.0000771  1.4644000  4
   3744   3741   3743   3747     1  0.0000000  0.6508444  3
   3744   3741   3743   3745     1  0.0000000  0.6508444  3
   3744   3741   3743   3746     1  0.0000000  0.6508444  3
   3745   3743   3747   3748     1  0.0000000  3.3472000  1
   3745   3743   3747   3748     1  0.0000000  0.0000000  2
   3745   3743   3747   3748     1  180.0000771  0.3347200  3
   3745   3743   3747   3779     1  180.0000771  0.0000000  2
   3746   3743   3747   3748     1  0.0000000  3.3472000  1
   3746   3743   3747   3748     1  0.0000000  0.0000000  2
   3746   3743   3747   3748     1  180.0000771  0.3347200  3
   3746   3743   3747   3779     1  180.0000771  0.0000000  2
   3747   3779   3760   3762     1  0.0000000  1.2552000  3
   3748   3747   3779   3769     1  180.0000771  6.0668000  2
   3748   3747   3779   3769     1  180.0000771  1.4644000  4
   3749   3740   3751   3754     1  0.0000000  0.6508444  3
   3749   3740   3751   3752     1  0.0000000  0.6508444  3
   3749   3740   3751   3753     1  0.0000000  0.6508444  3
   3750   3740   3751   3754     1  0.0000000  0.6508444  3
   3750   3740   3751   3752     1  0.0000000  0.6508444  3
   3750   3740   3751   3753     1  0.0000000  0.6508444  3
   3751   3754   3803   3793     1  180.0000771  6.0668000  2
   3751   3754   3803   3793     1  180.0000771  1.4644000  4
   3752   3751   3754   3755     1  0.0000000  3.3472000  1
   3752   3751   3754   3755     1  0.0000000  0.0000000  2
   3752   3751   3754   3755     1  180.0000771  0.3347200  3
   3752   3751   3754   3803     1  180.0000771  0.0000000  2
   3753   3751   3754   3755     1  0.0000000  3.3472000  1
   3753   3751   3754   3755     1  0.0000000  0.0000000  2
   3753   3751   3754   3755     1  180.0000771  0.3347200  3
   3753   3751   3754   3803     1  180.0000771  0.0000000  2
   3754   3803   3784   3786     1  0.0000000  1.2552000  3
   3755   3754   3803   3793     1  180.0000771  6.0668000  2
   3755   3754   3803   3793     1  180.0000771  1.4644000  4
   3756   3757   3759   3763     1  0.0000000  0.6508444  3
   3756   3757   3777   3778     1  0.0000000  1.0460000  1
   3756   3757   3777   3778     1  0.0000000  0.6694400  3
   3756   3767   3772   3773     1  0.0000000  1.0460000  1
   3756   3767   3772   3773     1  0.0000000  0.6694400  3
   3756   3774   3761   3764     1  0.0000000  1.6038667  3
   3757   3756   3767   3770     1  0.0000000  0.6508444  3
   3757   3756   3767   3771     1  0.0000000  0.6508444  3
   3757   3759   3760   3762     1  0.0000000  0.6508444  3
   3757   3759   3766   3768     1  0.0000000  1.0460000  1
   3757   3759   3766   3768     1  0.0000000  0.6694400  3
   3758   3756   3757   3759     1  0.0000000  0.6508444  3
   3758   3756   3757   3777     1  0.0000000  1.0460000  1
   3758   3756   3757   3777     1  0.0000000  0.0000000  3
   3758   3756   3757   3776     1  0.0000000  0.6508444  3
   3758   3756   3767   3772     1  0.0000000  1.0460000  1
   3758   3756   3767   3772     1  0.0000000  0.0000000  3
   3758   3756   3767   3770     1  0.0000000  0.6508444  3
   3758   3756   3767   3771     1  0.0000000  0.6508444  3
   3758   3756   3774   3761     1  0.0000000  1.6038667  3
   3759   3757   3777   3778     1  0.0000000  1.0460000  1
   3759   3757   3777   3778     1  0.0000000  0.6694400  3
   3759   3760   3761   3764     1  0.0000000  0.6508444  3
   3759   3760   3779   3769     1  0.0000000  1.2552000  3
   3760   3759   3757   3776     1  0.0000000  0.6508444  3
   3760   3759   3766   3768     1  0.0000000  1.0460000  1
   3760   3759   3766   3768     1  0.0000000  0.6694400  3
   3760   3761   3765   3775     1  0.0000000  1.0460000  1
   3760   3761   3765   3775     1  0.0000000  0.6694400  3
   3761   3760   3759   3763     1  0.0000000  0.6508444  3
   3761   3760   3779   3769     1  0.0000000  1.2552000  3
   3762   3760   3759   3766     1  0.0000000  1.0460000  1
   3762   3760   3759   3766     1  0.0000000  0.0000000  3
   3762   3760   3759   3763     1  0.0000000  0.6508444  3
   3762   3760   3761   3765     1  0.0000000  1.0460000  1
   3762   3760   3761   3765     1  0.0000000  0.0000000  3
   3762   3760   3761   3774     1  0.0000000  1.0460000  1
   3762   3760   3761   3774     1  0.0000000  0.0000000  3
   3762   3760   3761   3764     1  0.0000000  0.6508444  3
   3762   3760   3779   3769     1  0.0000000  1.2552000  3
   3763   3759   3757   3777     1  0.0000000  1.0460000  1
   3763   3759   3757   3777     1  0.0000000  0.0000000  3
   3763   3759   3757   3776     1  0.0000000  0.6508444  3
   3763   3759   3760   3779     1  0.0000000  0.6508444  3
   3763   3759   3766   3768     1  0.0000000  0.6973333  3
   3764   3761   3760   3779     1  0.0000000  0.6508444  3
   3764   3761   3765   3775     1  0.0000000  0.6973333  3
   3766   3759   3757   3776     1  0.0000000  1.0460000  1
   3766   3759   3757   3776     1  0.0000000  0.0000000  3
   3767   3756   3757   3776     1  0.0000000  0.6508444  3
   3770   3767   3756   3774     1  0.0000000  1.0460000  1
   3770   3767   3756   3774     1  0.0000000  0.0000000  3
   3770   3767   3772   3773     1  0.0000000  0.6973333  3
   3771   3767   3756   3774     1  0.0000000  1.0460000  1
   3771   3767   3756   3774     1  0.0000000  0.0000000  3
   3771   3767   3772   3773     1  0.0000000  0.6973333  3
   3774   3756   3757   3776     1  0.0000000  1.0460000  1
   3774   3756   3757   3776     1  0.0000000  0.0000000  3
   3774   3761   3765   3775     1  0.0000000  0.6973333  3
   3776   3757   3777   3778     1  0.0000000  0.6973333  3
   3780   3781   3783   3787     1  0.0000000  0.6508444  3
   3780   3781   3801   3802     1  0.0000000  1.0460000  1
   3780   3781   3801   3802     1  0.0000000  0.6694400  3
   3780   3791   3796   3797     1  0.0000000  1.0460000  1
   3780   3791   3796   3797     1  0.0000000  0.6694400  3
   3780   3798   3785   3788     1  0.0000000  1.6038667  3
   3781   3780   3791   3794     1  0.0000000  0.6508444  3
   3781   3780   3791   3795     1  0.0000000  0.6508444  3
   3781   3783   3784   3786     1  0.0000000  0.6508444  3
   3781   3783   3790   3792     1  0.0000000  1.0460000  1
   3781   3783   3790   3792     1  0.0000000  0.6694400  3
   3782   3780   3781   3783     1  0.0000000  0.6508444  3
   3782   3780   3781   3801     1  0.0000000  1.0460000  1
   3782   3780   3781   3801     1  0.0000000  0.0000000  3
   3782   3780   3781   3800     1  0.0000000  0.6508444  3
   3782   3780   3791   3796     1  0.0000000  1.0460000  1
   3782   3780   3791   3796     1  0.0000000  0.0000000  3
   3782   3780   3791   3794     1  0.0000000  0.6508444  3
   3782   3780   3791   3795     1  0.0000000  0.6508444  3
   3782   3780   3798   3785     1  0.0000000  1.6038667  3
   3783   3781   3801   3802     1  0.0000000  1.0460000  1
   3783   3781   3801   3802     1  0.0000000  0.6694400  3
   3783   3784   3785   3788     1  0.0000000  0.6508444  3
   3783   3784   3803   3793     1  0.0000000  1.2552000  3
   3784   3783   3781   3800     1  0.0000000  0.6508444  3
   3784   3783   3790   3792     1  0.0000000  1.0460000  1
   3784   3783   3790   3792     1  0.0000000  0.6694400  3
   3784   3785   3789   3799     1  0.0000000  1.0460000  1
   3784   3785   3789   3799     1  0.0000000  0.6694400  3
   3785   3784   3783   3787     1  0.0000000  0.6508444  3
   3785   3784   3803   3793     1  0.0000000  1.2552000  3
   3786   3784   3783   3790     1  0.0000000  1.0460000  1
   3786   3784   3783   3790     1  0.0000000  0.0000000  3
   3786   3784   3783   3787     1  0.0000000  0.6508444  3
   3786   3784   3785   3789     1  0.0000000  1.0460000  1
   3786   3784   3785   3789     1  0.0000000  0.0000000  3
   3786   3784   3785   3798     1  0.0000000  1.0460000  1
   3786   3784   3785   3798     1  0.0000000  0.0000000  3
   3786   3784   3785   3788     1  0.0000000  0.6508444  3
   3786   3784   3803   3793     1  0.0000000  1.2552000  3
   3787   3783   3781   3801     1  0.0000000  1.0460000  1
   3787   3783   3781   3801     1  0.0000000  0.0000000  3
   3787   3783   3781   3800     1  0.0000000  0.6508444  3
   3787   3783   3784   3803     1  0.0000000  0.6508444  3
   3787   3783   3790   3792     1  0.0000000  0.6973333  3
   3788   3785   3784   3803     1  0.0000000  0.6508444  3
   3788   3785   3789   3799     1  0.0000000  0.6973333  3
   3790   3783   3781   3800     1  0.0000000  1.0460000  1
   3790   3783   3781   3800     1  0.0000000  0.0000000  3
   3791   3780   3781   3800     1  0.0000000  0.6508444  3
   3794   3791   3780   3798     1  0.0000000  1.0460000  1
   3794   3791   3780   3798     1  0.0000000  0.0000000  3
   3794   3791   3796   3797     1  0.0000000  0.6973333  3
   3795   3791   3780   3798     1  0.0000000  1.0460000  1
   3795   3791   3780   3798     1  0.0000000  0.0000000  3
   3795   3791   3796   3797     1  0.0000000  0.6973333  3
   3798   3780   3781   3800     1  0.0000000  1.0460000  1
   3798   3780   3781   3800     1  0.0000000  0.0000000  3
   3798   3785   3789   3799     1  0.0000000  0.6973333  3
   3800   3781   3801   3802     1  0.0000000  0.6973333  3
   3804   3806   3808   3810     1  0.0000000  0.6508444  3
   3804   3806   3808   3811     1  0.0000000  0.6508444  3
   3805   3804   3806   3808     1  0.0000000  0.0000000  2
   3805   3804   3806   3807     1  0.0000000  0.0000000  2
   3805   3804   3806   3809     1  0.0000000  0.0000000  2
   3807   3806   3808   3812     1  0.0000000  0.6508444  3
   3807   3806   3808   3810     1  0.0000000  0.6508444  3
   3807   3806   3808   3811     1  0.0000000  0.6508444  3
   3808   3812   3813   3822     1  0.0000000  1.2552000  3
   3808   3812   3813   3823     1  0.0000000  1.2552000  3
   3808   3812   3814   3815     1  0.0000000  1.2552000  3
   3808   3812   3814   3817     1  0.0000000  1.2552000  3
   3809   3806   3808   3812     1  0.0000000  0.6508444  3
   3809   3806   3808   3810     1  0.0000000  0.6508444  3
   3809   3806   3808   3811     1  0.0000000  0.6508444  3
   3810   3808   3812   3813     1  0.0000000  1.2552000  3
   3810   3808   3812   3814     1  0.0000000  1.2552000  3
   3811   3808   3812   3813     1  0.0000000  1.2552000  3
   3811   3808   3812   3814     1  0.0000000  1.2552000  3
   3812   3813   3824   3825     1  0.0000000  0.6508444  3
   3812   3813   3824   3826     1  0.0000000  0.6508444  3
   3812   3814   3816   3818     1  0.0000000  0.6508444  3
   3812   3814   3816   3819     1  0.0000000  0.6508444  3
   3813   3812   3814   3815     1  0.0000000  1.2552000  3
   3813   3812   3814   3817     1  0.0000000  1.2552000  3
   3814   3812   3813   3822     1  0.0000000  1.2552000  3
   3814   3812   3813   3823     1  0.0000000  1.2552000  3
   3815   3814   3816   3820     1  0.0000000  0.6508444  3
   3815   3814   3816   3818     1  0.0000000  0.6508444  3
   3815   3814   3816   3819     1  0.0000000  0.6508444  3
   3816   3820   3852   3842     1  180.0000771  6.0668000  2
   3816   3820   3852   3842     1  180.0000771  1.4644000  4
   3817   3814   3816   3820     1  0.0000000  0.6508444  3
   3817   3814   3816   3818     1  0.0000000  0.6508444  3
   3817   3814   3816   3819     1  0.0000000  0.6508444  3
   3818   3816   3820   3821     1  0.0000000  3.3472000  1
   3818   3816   3820   3821     1  0.0000000  0.0000000  2
   3818   3816   3820   3821     1  180.0000771  0.3347200  3
   3818   3816   3820   3852     1  180.0000771  0.0000000  2
   3819   3816   3820   3821     1  0.0000000  3.3472000  1
   3819   3816   3820   3821     1  0.0000000  0.0000000  2
   3819   3816   3820   3821     1  180.0000771  0.3347200  3
   3819   3816   3820   3852     1  180.0000771  0.0000000  2
   3820   3852   3833   3835     1  0.0000000  1.2552000  3
   3821   3820   3852   3842     1  180.0000771  6.0668000  2
   3821   3820   3852   3842     1  180.0000771  1.4644000  4
   3822   3813   3824   3827     1  0.0000000  0.6508444  3
   3822   3813   3824   3825     1  0.0000000  0.6508444  3
   3822   3813   3824   3826     1  0.0000000  0.6508444  3
   3823   3813   3824   3827     1  0.0000000  0.6508444  3
   3823   3813   3824   3825     1  0.0000000  0.6508444  3
   3823   3813   3824   3826     1  0.0000000  0.6508444  3
   3824   3827   3876   3866     1  180.0000771  6.0668000  2
   3824   3827   3876   3866     1  180.0000771  1.4644000  4
   3825   3824   3827   3828     1  0.0000000  3.3472000  1
   3825   3824   3827   3828     1  0.0000000  0.0000000  2
   3825   3824   3827   3828     1  180.0000771  0.3347200  3
   3825   3824   3827   3876     1  180.0000771  0.0000000  2
   3826   3824   3827   3828     1  0.0000000  3.3472000  1
   3826   3824   3827   3828     1  0.0000000  0.0000000  2
   3826   3824   3827   3828     1  180.0000771  0.3347200  3
   3826   3824   3827   3876     1  180.0000771  0.0000000  2
   3827   3876   3857   3859     1  0.0000000  1.2552000  3
   3828   3827   3876   3866     1  180.0000771  6.0668000  2
   3828   3827   3876   3866     1  180.0000771  1.4644000  4
   3829   3830   3832   3836     1  0.0000000  0.6508444  3
   3829   3830   3850   3851     1  0.0000000  1.0460000  1
   3829   3830   3850   3851     1  0.0000000  0.6694400  3
   3829   3840   3845   3846     1  0.0000000  1.0460000  1
   3829   3840   3845   3846     1  0.0000000  0.6694400  3
   3829   3847   3834   3837     1  0.0000000  1.6038667  3
   3830   3832   3833   3835     1  0.0000000  0.6508444  3
   3830   3832   3839   3841     1  0.0000000  1.0460000  1
   3830   3832   3839   3841     1  0.0000000  0.6694400  3
   3830   3829   3840   3843     1  0.0000000  0.6508444  3
   3830   3829   3840   3844     1  0.0000000  0.6508444  3
   3831   3829   3830   3832     1  0.0000000  0.6508444  3
   3831   3829   3830   3850     1  0.0000000  1.0460000  1
   3831   3829   3830   3850     1  0.0000000  0.0000000  3
   3831   3829   3830   3849     1  0.0000000  0.6508444  3
   3831   3829   3840   3845     1  0.0000000  1.0460000  1
   3831   3829   3840   3845     1  0.0000000  0.0000000  3
   3831   3829   3840   3843     1  0.0000000  0.6508444  3
   3831   3829   3840   3844     1  0.0000000  0.6508444  3
   3831   3829   3847   3834     1  0.0000000  1.6038667  3
   3832   3833   3834   3837     1  0.0000000  0.6508444  3
   3832   3833   3852   3842     1  0.0000000  1.2552000  3
   3832   3830   3850   3851     1  0.0000000  1.0460000  1
   3832   3830   3850   3851     1  0.0000000  0.6694400  3
   3833   3834   3838   3848     1  0.0000000  1.0460000  1
   3833   3834   3838   3848     1  0.0000000  0.6694400  3
   3833   3832   3839   3841     1  0.0000000  1.0460000  1
   3833   3832   3839   3841     1  0.0000000  0.6694400  3
   3833   3832   3830   3849     1  0.0000000  0.6508444  3
   3834   3833   3852   3842     1  0.0000000  1.2552000  3
   3834   3833   3832   3836     1  0.0000000  0.6508444  3
   3835   3833   3834   3838     1  0.0000000  1.0460000  1
   3835   3833   3834   3838     1  0.0000000  0.0000000  3
   3835   3833   3834   3847     1  0.0000000  1.0460000  1
   3835   3833   3834   3847     1  0.0000000  0.0000000  3
   3835   3833   3834   3837     1  0.0000000  0.6508444  3
   3835   3833   3852   3842     1  0.0000000  1.2552000  3
   3835   3833   3832   3839     1  0.0000000  1.0460000  1
   3835   3833   3832   3839     1  0.0000000  0.0000000  3
   3835   3833   3832   3836     1  0.0000000  0.6508444  3
   3836   3832   3833   3852     1  0.0000000  0.6508444  3
   3836   3832   3839   3841     1  0.0000000  0.6973333  3
   3836   3832   3830   3850     1  0.0000000  1.0460000  1
   3836   3832   3830   3850     1  0.0000000  0.0000000  3
   3836   3832   3830   3849     1  0.0000000  0.6508444  3
   3837   3834   3838   3848     1  0.0000000  0.6973333  3
   3837   3834   3833   3852     1  0.0000000  0.6508444  3
   3839   3832   3830   3849     1  0.0000000  1.0460000  1
   3839   3832   3830   3849     1  0.0000000  0.0000000  3
   3840   3829   3830   3849     1  0.0000000  0.6508444  3
   3843   3840   3845   3846     1  0.0000000  0.6973333  3
   3843   3840   3829   3847     1  0.0000000  1.0460000  1
   3843   3840   3829   3847     1  0.0000000  0.0000000  3
   3844   3840   3845   3846     1  0.0000000  0.6973333  3
   3844   3840   3829   3847     1  0.0000000  1.0460000  1
   3844   3840   3829   3847     1  0.0000000  0.0000000  3
   3847   3834   3838   3848     1  0.0000000  0.6973333  3
   3847   3829   3830   3849     1  0.0000000  1.0460000  1
   3847   3829   3830   3849     1  0.0000000  0.0000000  3
   3849   3830   3850   3851     1  0.0000000  0.6973333  3
   3853   3854   3856   3860     1  0.0000000  0.6508444  3
   3853   3854   3874   3875     1  0.0000000  1.0460000  1
   3853   3854   3874   3875     1  0.0000000  0.6694400  3
   3853   3864   3869   3870     1  0.0000000  1.0460000  1
   3853   3864   3869   3870     1  0.0000000  0.6694400  3
   3853   3871   3858   3861     1  0.0000000  1.6038667  3
   3854   3856   3857   3859     1  0.0000000  0.6508444  3
   3854   3856   3863   3865     1  0.0000000  1.0460000  1
   3854   3856   3863   3865     1  0.0000000  0.6694400  3
   3854   3853   3864   3867     1  0.0000000  0.6508444  3
   3854   3853   3864   3868     1  0.0000000  0.6508444  3
   3855   3853   3854   3856     1  0.0000000  0.6508444  3
   3855   3853   3854   3874     1  0.0000000  1.0460000  1
   3855   3853   3854   3874     1  0.0000000  0.0000000  3
   3855   3853   3854   3873     1  0.0000000  0.6508444  3
   3855   3853   3864   3869     1  0.0000000  1.0460000  1
   3855   3853   3864   3869     1  0.0000000  0.0000000  3
   3855   3853   3864   3867     1  0.0000000  0.6508444  3
   3855   3853   3864   3868     1  0.0000000  0.6508444  3
   3855   3853   3871   3858     1  0.0000000  1.6038667  3
   3856   3857   3858   3861     1  0.0000000  0.6508444  3
   3856   3857   3876   3866     1  0.0000000  1.2552000  3
   3856   3854   3874   3875     1  0.0000000  1.0460000  1
   3856   3854   3874   3875     1  0.0000000  0.6694400  3
   3857   3858   3862   3872     1  0.0000000  1.0460000  1
   3857   3858   3862   3872     1  0.0000000  0.6694400  3
   3857   3856   3863   3865     1  0.0000000  1.0460000  1
   3857   3856   3863   3865     1  0.0000000  0.6694400  3
   3857   3856   3854   3873     1  0.0000000  0.6508444  3
   3858   3857   3876   3866     1  0.0000000  1.2552000  3
   3858   3857   3856   3860     1  0.0000000  0.6508444  3
   3859   3857   3858   3862     1  0.0000000  1.0460000  1
   3859   3857   3858   3862     1  0.0000000  0.0000000  3
   3859   3857   3858   3871     1  0.0000000  1.0460000  1
   3859   3857   3858   3871     1  0.0000000  0.0000000  3
   3859   3857   3858   3861     1  0.0000000  0.6508444  3
   3859   3857   3876   3866     1  0.0000000  1.2552000  3
   3859   3857   3856   3863     1  0.0000000  1.0460000  1
   3859   3857   3856   3863     1  0.0000000  0.0000000  3
   3859   3857   3856   3860     1  0.0000000  0.6508444  3
   3860   3856   3857   3876     1  0.0000000  0.6508444  3
   3860   3856   3863   3865     1  0.0000000  0.6973333  3
   3860   3856   3854   3874     1  0.0000000  1.0460000  1
   3860   3856   3854   3874     1  0.0000000  0.0000000  3
   3860   3856   3854   3873     1  0.0000000  0.6508444  3
   3861   3858   3862   3872     1  0.0000000  0.6973333  3
   3861   3858   3857   3876     1  0.0000000  0.6508444  3
   3863   3856   3854   3873     1  0.0000000  1.0460000  1
   3863   3856   3854   3873     1  0.0000000  0.0000000  3
   3864   3853   3854   3873     1  0.0000000  0.6508444  3
   3867   3864   3869   3870     1  0.0000000  0.6973333  3
   3867   3864   3853   3871     1  0.0000000  1.0460000  1
   3867   3864   3853   3871     1  0.0000000  0.0000000  3
   3868   3864   3869   3870     1  0.0000000  0.6973333  3
   3868   3864   3853   3871     1  0.0000000  1.0460000  1
   3868   3864   3853   3871     1  0.0000000  0.0000000  3
   3871   3858   3862   3872     1  0.0000000  0.6973333  3
   3871   3853   3854   3873     1  0.0000000  1.0460000  1
   3871   3853   3854   3873     1  0.0000000  0.0000000  3
   3873   3854   3874   3875     1  0.0000000  0.6973333  3
   3877   3879   3881   3883     1  0.0000000  0.6508444  3
   3877   3879   3881   3884     1  0.0000000  0.6508444  3
   3878   3877   3879   3881     1  0.0000000  0.0000000  2
   3878   3877   3879   3880     1  0.0000000  0.0000000  2
   3878   3877   3879   3882     1  0.0000000  0.0000000  2
   3880   3879   3881   3885     1  0.0000000  0.6508444  3
   3880   3879   3881   3883     1  0.0000000  0.6508444  3
   3880   3879   3881   3884     1  0.0000000  0.6508444  3
   3881   3885   3886   3895     1  0.0000000  1.2552000  3
   3881   3885   3886   3896     1  0.0000000  1.2552000  3
   3881   3885   3887   3888     1  0.0000000  1.2552000  3
   3881   3885   3887   3890     1  0.0000000  1.2552000  3
   3882   3879   3881   3885     1  0.0000000  0.6508444  3
   3882   3879   3881   3883     1  0.0000000  0.6508444  3
   3882   3879   3881   3884     1  0.0000000  0.6508444  3
   3883   3881   3885   3886     1  0.0000000  1.2552000  3
   3883   3881   3885   3887     1  0.0000000  1.2552000  3
   3884   3881   3885   3886     1  0.0000000  1.2552000  3
   3884   3881   3885   3887     1  0.0000000  1.2552000  3
   3885   3886   3897   3898     1  0.0000000  0.6508444  3
   3885   3886   3897   3899     1  0.0000000  0.6508444  3
   3885   3887   3889   3891     1  0.0000000  0.6508444  3
   3885   3887   3889   3892     1  0.0000000  0.6508444  3
   3886   3885   3887   3888     1  0.0000000  1.2552000  3
   3886   3885   3887   3890     1  0.0000000  1.2552000  3
   3887   3885   3886   3895     1  0.0000000  1.2552000  3
   3887   3885   3886   3896     1  0.0000000  1.2552000  3
   3888   3887   3889   3893     1  0.0000000  0.6508444  3
   3888   3887   3889   3891     1  0.0000000  0.6508444  3
   3888   3887   3889   3892     1  0.0000000  0.6508444  3
   3889   3893   3925   3915     1  180.0000771  6.0668000  2
   3889   3893   3925   3915     1  180.0000771  1.4644000  4
   3890   3887   3889   3893     1  0.0000000  0.6508444  3
   3890   3887   3889   3891     1  0.0000000  0.6508444  3
   3890   3887   3889   3892     1  0.0000000  0.6508444  3
   3891   3889   3893   3894     1  0.0000000  3.3472000  1
   3891   3889   3893   3894     1  0.0000000  0.0000000  2
   3891   3889   3893   3894     1  180.0000771  0.3347200  3
   3891   3889   3893   3925     1  180.0000771  0.0000000  2
   3892   3889   3893   3894     1  0.0000000  3.3472000  1
   3892   3889   3893   3894     1  0.0000000  0.0000000  2
   3892   3889   3893   3894     1  180.0000771  0.3347200  3
   3892   3889   3893   3925     1  180.0000771  0.0000000  2
   3893   3925   3906   3908     1  0.0000000  1.2552000  3
   3894   3893   3925   3915     1  180.0000771  6.0668000  2
   3894   3893   3925   3915     1  180.0000771  1.4644000  4
   3895   3886   3897   3900     1  0.0000000  0.6508444  3
   3895   3886   3897   3898     1  0.0000000  0.6508444  3
   3895   3886   3897   3899     1  0.0000000  0.6508444  3
   3896   3886   3897   3900     1  0.0000000  0.6508444  3
   3896   3886   3897   3898     1  0.0000000  0.6508444  3
   3896   3886   3897   3899     1  0.0000000  0.6508444  3
   3897   3900   3949   3939     1  180.0000771  6.0668000  2
   3897   3900   3949   3939     1  180.0000771  1.4644000  4
   3898   3897   3900   3901     1  0.0000000  3.3472000  1
   3898   3897   3900   3901     1  0.0000000  0.0000000  2
   3898   3897   3900   3901     1  180.0000771  0.3347200  3
   3898   3897   3900   3949     1  180.0000771  0.0000000  2
   3899   3897   3900   3901     1  0.0000000  3.3472000  1
   3899   3897   3900   3901     1  0.0000000  0.0000000  2
   3899   3897   3900   3901     1  180.0000771  0.3347200  3
   3899   3897   3900   3949     1  180.0000771  0.0000000  2
   3900   3949   3930   3932     1  0.0000000  1.2552000  3
   3901   3900   3949   3939     1  180.0000771  6.0668000  2
   3901   3900   3949   3939     1  180.0000771  1.4644000  4
   3902   3903   3905   3909     1  0.0000000  0.6508444  3
   3902   3903   3923   3924     1  0.0000000  1.0460000  1
   3902   3903   3923   3924     1  0.0000000  0.6694400  3
   3902   3913   3918   3919     1  0.0000000  1.0460000  1
   3902   3913   3918   3919     1  0.0000000  0.6694400  3
   3902   3920   3907   3910     1  0.0000000  1.6038667  3
   3903   3902   3913   3916     1  0.0000000  0.6508444  3
   3903   3902   3913   3917     1  0.0000000  0.6508444  3
   3903   3905   3906   3908     1  0.0000000  0.6508444  3
   3903   3905   3912   3914     1  0.0000000  1.0460000  1
   3903   3905   3912   3914     1  0.0000000  0.6694400  3
   3904   3902   3903   3905     1  0.0000000  0.6508444  3
   3904   3902   3903   3923     1  0.0000000  1.0460000  1
   3904   3902   3903   3923     1  0.0000000  0.0000000  3
   3904   3902   3903   3922     1  0.0000000  0.6508444  3
   3904   3902   3913   3918     1  0.0000000  1.0460000  1
   3904   3902   3913   3918     1  0.0000000  0.0000000  3
   3904   3902   3913   3916     1  0.0000000  0.6508444  3
   3904   3902   3913   3917     1  0.0000000  0.6508444  3
   3904   3902   3920   3907     1  0.0000000  1.6038667  3
   3905   3903   3923   3924     1  0.0000000  1.0460000  1
   3905   3903   3923   3924     1  0.0000000  0.6694400  3
   3905   3906   3907   3910     1  0.0000000  0.6508444  3
   3905   3906   3925   3915     1  0.0000000  1.2552000  3
   3906   3905   3903   3922     1  0.0000000  0.6508444  3
   3906   3905   3912   3914     1  0.0000000  1.0460000  1
   3906   3905   3912   3914     1  0.0000000  0.6694400  3
   3906   3907   3911   3921     1  0.0000000  1.0460000  1
   3906   3907   3911   3921     1  0.0000000  0.6694400  3
   3907   3906   3905   3909     1  0.0000000  0.6508444  3
   3907   3906   3925   3915     1  0.0000000  1.2552000  3
   3908   3906   3905   3912     1  0.0000000  1.0460000  1
   3908   3906   3905   3912     1  0.0000000  0.0000000  3
   3908   3906   3905   3909     1  0.0000000  0.6508444  3
   3908   3906   3907   3911     1  0.0000000  1.0460000  1
   3908   3906   3907   3911     1  0.0000000  0.0000000  3
   3908   3906   3907   3920     1  0.0000000  1.0460000  1
   3908   3906   3907   3920     1  0.0000000  0.0000000  3
   3908   3906   3907   3910     1  0.0000000  0.6508444  3
   3908   3906   3925   3915     1  0.0000000  1.2552000  3
   3909   3905   3903   3923     1  0.0000000  1.0460000  1
   3909   3905   3903   3923     1  0.0000000  0.0000000  3
   3909   3905   3903   3922     1  0.0000000  0.6508444  3
   3909   3905   3906   3925     1  0.0000000  0.6508444  3
   3909   3905   3912   3914     1  0.0000000  0.6973333  3
   3910   3907   3906   3925     1  0.0000000  0.6508444  3
   3910   3907   3911   3921     1  0.0000000  0.6973333  3
   3912   3905   3903   3922     1  0.0000000  1.0460000  1
   3912   3905   3903   3922     1  0.0000000  0.0000000  3
   3913   3902   3903   3922     1  0.0000000  0.6508444  3
   3916   3913   3902   3920     1  0.0000000  1.0460000  1
   3916   3913   3902   3920     1  0.0000000  0.0000000  3
   3916   3913   3918   3919     1  0.0000000  0.6973333  3
   3917   3913   3902   3920     1  0.0000000  1.0460000  1
   3917   3913   3902   3920     1  0.0000000  0.0000000  3
   3917   3913   3918   3919     1  0.0000000  0.6973333  3
   3920   3902   3903   3922     1  0.0000000  1.0460000  1
   3920   3902   3903   3922     1  0.0000000  0.0000000  3
   3920   3907   3911   3921     1  0.0000000  0.6973333  3
   3922   3903   3923   3924     1  0.0000000  0.6973333  3
   3926   3927   3929   3933     1  0.0000000  0.6508444  3
   3926   3927   3947   3948     1  0.0000000  1.0460000  1
   3926   3927   3947   3948     1  0.0000000  0.6694400  3
   3926   3937   3942   3943     1  0.0000000  1.0460000  1
   3926   3937   3942   3943     1  0.0000000  0.6694400  3
   3926   3944   3931   3934     1  0.0000000  1.6038667  3
   3927   3926   3937   3940     1  0.0000000  0.6508444  3
   3927   3926   3937   3941     1  0.0000000  0.6508444  3
   3927   3929   3930   3932     1  0.0000000  0.6508444  3
   3927   3929   3936   3938     1  0.0000000  1.0460000  1
   3927   3929   3936   3938     1  0.0000000  0.6694400  3
   3928   3926   3927   3929     1  0.0000000  0.6508444  3
   3928   3926   3927   3947     1  0.0000000  1.0460000  1
   3928   3926   3927   3947     1  0.0000000  0.0000000  3
   3928   3926   3927   3946     1  0.0000000  0.6508444  3
   3928   3926   3937   3942     1  0.0000000  1.0460000  1
   3928   3926   3937   3942     1  0.0000000  0.0000000  3
   3928   3926   3937   3940     1  0.0000000  0.6508444  3
   3928   3926   3937   3941     1  0.0000000  0.6508444  3
   3928   3926   3944   3931     1  0.0000000  1.6038667  3
   3929   3927   3947   3948     1  0.0000000  1.0460000  1
   3929   3927   3947   3948     1  0.0000000  0.6694400  3
   3929   3930   3931   3934     1  0.0000000  0.6508444  3
   3929   3930   3949   3939     1  0.0000000  1.2552000  3
   3930   3929   3927   3946     1  0.0000000  0.6508444  3
   3930   3929   3936   3938     1  0.0000000  1.0460000  1
   3930   3929   3936   3938     1  0.0000000  0.6694400  3
   3930   3931   3935   3945     1  0.0000000  1.0460000  1
   3930   3931   3935   3945     1  0.0000000  0.6694400  3
   3931   3930   3929   3933     1  0.0000000  0.6508444  3
   3931   3930   3949   3939     1  0.0000000  1.2552000  3
   3932   3930   3929   3936     1  0.0000000  1.0460000  1
   3932   3930   3929   3936     1  0.0000000  0.0000000  3
   3932   3930   3929   3933     1  0.0000000  0.6508444  3
   3932   3930   3931   3935     1  0.0000000  1.0460000  1
   3932   3930   3931   3935     1  0.0000000  0.0000000  3
   3932   3930   3931   3944     1  0.0000000  1.0460000  1
   3932   3930   3931   3944     1  0.0000000  0.0000000  3
   3932   3930   3931   3934     1  0.0000000  0.6508444  3
   3932   3930   3949   3939     1  0.0000000  1.2552000  3
   3933   3929   3927   3947     1  0.0000000  1.0460000  1
   3933   3929   3927   3947     1  0.0000000  0.0000000  3
   3933   3929   3927   3946     1  0.0000000  0.6508444  3
   3933   3929   3930   3949     1  0.0000000  0.6508444  3
   3933   3929   3936   3938     1  0.0000000  0.6973333  3
   3934   3931   3930   3949     1  0.0000000  0.6508444  3
   3934   3931   3935   3945     1  0.0000000  0.6973333  3
   3936   3929   3927   3946     1  0.0000000  1.0460000  1
   3936   3929   3927   3946     1  0.0000000  0.0000000  3
   3937   3926   3927   3946     1  0.0000000  0.6508444  3
   3940   3937   3926   3944     1  0.0000000  1.0460000  1
   3940   3937   3926   3944     1  0.0000000  0.0000000  3
   3940   3937   3942   3943     1  0.0000000  0.6973333  3
   3941   3937   3926   3944     1  0.0000000  1.0460000  1
   3941   3937   3926   3944     1  0.0000000  0.0000000  3
   3941   3937   3942   3943     1  0.0000000  0.6973333  3
   3944   3926   3927   3946     1  0.0000000  1.0460000  1
   3944   3926   3927   3946     1  0.0000000  0.0000000  3
   3944   3931   3935   3945     1  0.0000000  0.6973333  3
   3946   3927   3947   3948     1  0.0000000  0.6973333  3
   3950   3952   3954   3956     1  0.0000000  0.6508444  3
   3950   3952   3954   3957     1  0.0000000  0.6508444  3
   3951   3950   3952   3954     1  0.0000000  0.0000000  2
   3951   3950   3952   3953     1  0.0000000  0.0000000  2
   3951   3950   3952   3955     1  0.0000000  0.0000000  2
   3953   3952   3954   3958     1  0.0000000  0.6508444  3
   3953   3952   3954   3956     1  0.0000000  0.6508444  3
   3953   3952   3954   3957     1  0.0000000  0.6508444  3
   3954   3958   3959   3968     1  0.0000000  1.2552000  3
   3954   3958   3959   3969     1  0.0000000  1.2552000  3
   3954   3958   3960   3961     1  0.0000000  1.2552000  3
   3954   3958   3960   3963     1  0.0000000  1.2552000  3
   3955   3952   3954   3958     1  0.0000000  0.6508444  3
   3955   3952   3954   3956     1  0.0000000  0.6508444  3
   3955   3952   3954   3957     1  0.0000000  0.6508444  3
   3956   3954   3958   3959     1  0.0000000  1.2552000  3
   3956   3954   3958   3960     1  0.0000000  1.2552000  3
   3957   3954   3958   3959     1  0.0000000  1.2552000  3
   3957   3954   3958   3960     1  0.0000000  1.2552000  3
   3958   3959   3970   3971     1  0.0000000  0.6508444  3
   3958   3959   3970   3972     1  0.0000000  0.6508444  3
   3958   3960   3962   3964     1  0.0000000  0.6508444  3
   3958   3960   3962   3965     1  0.0000000  0.6508444  3
   3959   3958   3960   3961     1  0.0000000  1.2552000  3
   3959   3958   3960   3963     1  0.0000000  1.2552000  3
   3960   3958   3959   3968     1  0.0000000  1.2552000  3
   3960   3958   3959   3969     1  0.0000000  1.2552000  3
   3961   3960   3962   3966     1  0.0000000  0.6508444  3
   3961   3960   3962   3964     1  0.0000000  0.6508444  3
   3961   3960   3962   3965     1  0.0000000  0.6508444  3
   3962   3966   3998   3988     1  180.0000771  6.0668000  2
   3962   3966   3998   3988     1  180.0000771  1.4644000  4
   3963   3960   3962   3966     1  0.0000000  0.6508444  3
   3963   3960   3962   3964     1  0.0000000  0.6508444  3
   3963   3960   3962   3965     1  0.0000000  0.6508444  3
   3964   3962   3966   3967     1  0.0000000  3.3472000  1
   3964   3962   3966   3967     1  0.0000000  0.0000000  2
   3964   3962   3966   3967     1  180.0000771  0.3347200  3
   3964   3962   3966   3998     1  180.0000771  0.0000000  2
   3965   3962   3966   3967     1  0.0000000  3.3472000  1
   3965   3962   3966   3967     1  0.0000000  0.0000000  2
   3965   3962   3966   3967     1  180.0000771  0.3347200  3
   3965   3962   3966   3998     1  180.0000771  0.0000000  2
   3966   3998   3979   3981     1  0.0000000  1.2552000  3
   3967   3966   3998   3988     1  180.0000771  6.0668000  2
   3967   3966   3998   3988     1  180.0000771  1.4644000  4
   3968   3959   3970   3973     1  0.0000000  0.6508444  3
   3968   3959   3970   3971     1  0.0000000  0.6508444  3
   3968   3959   3970   3972     1  0.0000000  0.6508444  3
   3969   3959   3970   3973     1  0.0000000  0.6508444  3
   3969   3959   3970   3971     1  0.0000000  0.6508444  3
   3969   3959   3970   3972     1  0.0000000  0.6508444  3
   3970   3973   4022   4012     1  180.0000771  6.0668000  2
   3970   3973   4022   4012     1  180.0000771  1.4644000  4
   3971   3970   3973   3974     1  0.0000000  3.3472000  1
   3971   3970   3973   3974     1  0.0000000  0.0000000  2
   3971   3970   3973   3974     1  180.0000771  0.3347200  3
   3971   3970   3973   4022     1  180.0000771  0.0000000  2
   3972   3970   3973   3974     1  0.0000000  3.3472000  1
   3972   3970   3973   3974     1  0.0000000  0.0000000  2
   3972   3970   3973   3974     1  180.0000771  0.3347200  3
   3972   3970   3973   4022     1  180.0000771  0.0000000  2
   3973   4022   4003   4005     1  0.0000000  1.2552000  3
   3974   3973   4022   4012     1  180.0000771  6.0668000  2
   3974   3973   4022   4012     1  180.0000771  1.4644000  4
   3975   3976   3978   3982     1  0.0000000  0.6508444  3
   3975   3976   3996   3997     1  0.0000000  1.0460000  1
   3975   3976   3996   3997     1  0.0000000  0.6694400  3
   3975   3986   3991   3992     1  0.0000000  1.0460000  1
   3975   3986   3991   3992     1  0.0000000  0.6694400  3
   3975   3993   3980   3983     1  0.0000000  1.6038667  3
   3976   3978   3979   3981     1  0.0000000  0.6508444  3
   3976   3978   3985   3987     1  0.0000000  1.0460000  1
   3976   3978   3985   3987     1  0.0000000  0.6694400  3
   3976   3975   3986   3989     1  0.0000000  0.6508444  3
   3976   3975   3986   3990     1  0.0000000  0.6508444  3
   3977   3975   3976   3978     1  0.0000000  0.6508444  3
   3977   3975   3976   3996     1  0.0000000  1.0460000  1
   3977   3975   3976   3996     1  0.0000000  0.0000000  3
   3977   3975   3976   3995     1  0.0000000  0.6508444  3
   3977   3975   3986   3991     1  0.0000000  1.0460000  1
   3977   3975   3986   3991     1  0.0000000  0.0000000  3
   3977   3975   3986   3989     1  0.0000000  0.6508444  3
   3977   3975   3986   3990     1  0.0000000  0.6508444  3
   3977   3975   3993   3980     1  0.0000000  1.6038667  3
   3978   3979   3980   3983     1  0.0000000  0.6508444  3
   3978   3979   3998   3988     1  0.0000000  1.2552000  3
   3978   3976   3996   3997     1  0.0000000  1.0460000  1
   3978   3976   3996   3997     1  0.0000000  0.6694400  3
   3979   3980   3984   3994     1  0.0000000  1.0460000  1
   3979   3980   3984   3994     1  0.0000000  0.6694400  3
   3979   3978   3985   3987     1  0.0000000  1.0460000  1
   3979   3978   3985   3987     1  0.0000000  0.6694400  3
   3979   3978   3976   3995     1  0.0000000  0.6508444  3
   3980   3979   3998   3988     1  0.0000000  1.2552000  3
   3980   3979   3978   3982     1  0.0000000  0.6508444  3
   3981   3979   3980   3984     1  0.0000000  1.0460000  1
   3981   3979   3980   3984     1  0.0000000  0.0000000  3
   3981   3979   3980   3993     1  0.0000000  1.0460000  1
   3981   3979   3980   3993     1  0.0000000  0.0000000  3
   3981   3979   3980   3983     1  0.0000000  0.6508444  3
   3981   3979   3998   3988     1  0.0000000  1.2552000  3
   3981   3979   3978   3985     1  0.0000000  1.0460000  1
   3981   3979   3978   3985     1  0.0000000  0.0000000  3
   3981   3979   3978   3982     1  0.0000000  0.6508444  3
   3982   3978   3979   3998     1  0.0000000  0.6508444  3
   3982   3978   3985   3987     1  0.0000000  0.6973333  3
   3982   3978   3976   3996     1  0.0000000  1.0460000  1
   3982   3978   3976   3996     1  0.0000000  0.0000000  3
   3982   3978   3976   3995     1  0.0000000  0.6508444  3
   3983   3980   3984   3994     1  0.0000000  0.6973333  3
   3983   3980   3979   3998     1  0.0000000  0.6508444  3
   3985   3978   3976   3995     1  0.0000000  1.0460000  1
   3985   3978   3976   3995     1  0.0000000  0.0000000  3
   3986   3975   3976   3995     1  0.0000000  0.6508444  3
   3989   3986   3991   3992     1  0.0000000  0.6973333  3
   3989   3986   3975   3993     1  0.0000000  1.0460000  1
   3989   3986   3975   3993     1  0.0000000  0.0000000  3
   3990   3986   3991   3992     1  0.0000000  0.6973333  3
   3990   3986   3975   3993     1  0.0000000  1.0460000  1
   3990   3986   3975   3993     1  0.0000000  0.0000000  3
   3993   3980   3984   3994     1  0.0000000  0.6973333  3
   3993   3975   3976   3995     1  0.0000000  1.0460000  1
   3993   3975   3976   3995     1  0.0000000  0.0000000  3
   3995   3976   3996   3997     1  0.0000000  0.6973333  3
   3999   4000   4002   4006     1  0.0000000  0.6508444  3
   3999   4000   4020   4021     1  0.0000000  1.0460000  1
   3999   4000   4020   4021     1  0.0000000  0.6694400  3
   3999   4010   4015   4016     1  0.0000000  1.0460000  1
   3999   4010   4015   4016     1  0.0000000  0.6694400  3
   3999   4017   4004   4007     1  0.0000000  1.6038667  3
   4000   4002   4003   4005     1  0.0000000  0.6508444  3
   4000   4002   4009   4011     1  0.0000000  1.0460000  1
   4000   4002   4009   4011     1  0.0000000  0.6694400  3
   4000   3999   4010   4013     1  0.0000000  0.6508444  3
   4000   3999   4010   4014     1  0.0000000  0.6508444  3
   4001   3999   4000   4002     1  0.0000000  0.6508444  3
   4001   3999   4000   4020     1  0.0000000  1.0460000  1
   4001   3999   4000   4020     1  0.0000000  0.0000000  3
   4001   3999   4000   4019     1  0.0000000  0.6508444  3
   4001   3999   4010   4015     1  0.0000000  1.0460000  1
   4001   3999   4010   4015     1  0.0000000  0.0000000  3
   4001   3999   4010   4013     1  0.0000000  0.6508444  3
   4001   3999   4010   4014     1  0.0000000  0.6508444  3
   4001   3999   4017   4004     1  0.0000000  1.6038667  3
   4002   4003   4004   4007     1  0.0000000  0.6508444  3
   4002   4003   4022   4012     1  0.0000000  1.2552000  3
   4002   4000   4020   4021     1  0.0000000  1.0460000  1
   4002   4000   4020   4021     1  0.0000000  0.6694400  3
   4003   4004   4008   4018     1  0.0000000  1.0460000  1
   4003   4004   4008   4018     1  0.0000000  0.6694400  3
   4003   4002   4009   4011     1  0.0000000  1.0460000  1
   4003   4002   4009   4011     1  0.0000000  0.6694400  3
   4003   4002   4000   4019     1  0.0000000  0.6508444  3
   4004   4003   4022   4012     1  0.0000000  1.2552000  3
   4004   4003   4002   4006     1  0.0000000  0.6508444  3
   4005   4003   4004   4008     1  0.0000000  1.0460000  1
   4005   4003   4004   4008     1  0.0000000  0.0000000  3
   4005   4003   4004   4017     1  0.0000000  1.0460000  1
   4005   4003   4004   4017     1  0.0000000  0.0000000  3
   4005   4003   4004   4007     1  0.0000000  0.6508444  3
   4005   4003   4022   4012     1  0.0000000  1.2552000  3
   4005   4003   4002   4009     1  0.0000000  1.0460000  1
   4005   4003   4002   4009     1  0.0000000  0.0000000  3
   4005   4003   4002   4006     1  0.0000000  0.6508444  3
   4006   4002   4003   4022     1  0.0000000  0.6508444  3
   4006   4002   4009   4011     1  0.0000000  0.6973333  3
   4006   4002   4000   4020     1  0.0000000  1.0460000  1
   4006   4002   4000   4020     1  0.0000000  0.0000000  3
   4006   4002   4000   4019     1  0.0000000  0.6508444  3
   4007   4004   4008   4018     1  0.0000000  0.6973333  3
   4007   4004   4003   4022     1  0.0000000  0.6508444  3
   4009   4002   4000   4019     1  0.0000000  1.0460000  1
   4009   4002   4000   4019     1  0.0000000  0.0000000  3
   4010   3999   4000   4019     1  0.0000000  0.6508444  3
   4013   4010   4015   4016     1  0.0000000  0.6973333  3
   4013   4010   3999   4017     1  0.0000000  1.0460000  1
   4013   4010   3999   4017     1  0.0000000  0.0000000  3
   4014   4010   4015   4016     1  0.0000000  0.6973333  3
   4014   4010   3999   4017     1  0.0000000  1.0460000  1
   4014   4010   3999   4017     1  0.0000000  0.0000000  3
   4017   4004   4008   4018     1  0.0000000  0.6973333  3
   4017   3999   4000   4019     1  0.0000000  1.0460000  1
   4017   3999   4000   4019     1  0.0000000  0.0000000  3
   4019   4000   4020   4021     1  0.0000000  0.6973333  3
   4023   4025   4027   4029     1  0.0000000  0.6508444  3
   4023   4025   4027   4030     1  0.0000000  0.6508444  3
   4024   4023   4025   4027     1  0.0000000  0.0000000  2
   4024   4023   4025   4026     1  0.0000000  0.0000000  2
   4024   4023   4025   4028     1  0.0000000  0.0000000  2
   4026   4025   4027   4031     1  0.0000000  0.6508444  3
   4026   4025   4027   4029     1  0.0000000  0.6508444  3
   4026   4025   4027   4030     1  0.0000000  0.6508444  3
   4027   4031   4032   4041     1  0.0000000  1.2552000  3
   4027   4031   4032   4042     1  0.0000000  1.2552000  3
   4027   4031   4033   4034     1  0.0000000  1.2552000  3
   4027   4031   4033   4036     1  0.0000000  1.2552000  3
   4028   4025   4027   4031     1  0.0000000  0.6508444  3
   4028   4025   4027   4029     1  0.0000000  0.6508444  3
   4028   4025   4027   4030     1  0.0000000  0.6508444  3
   4029   4027   4031   4032     1  0.0000000  1.2552000  3
   4029   4027   4031   4033     1  0.0000000  1.2552000  3
   4030   4027   4031   4032     1  0.0000000  1.2552000  3
   4030   4027   4031   4033     1  0.0000000  1.2552000  3
   4031   4032   4043   4044     1  0.0000000  0.6508444  3
   4031   4032   4043   4045     1  0.0000000  0.6508444  3
   4031   4033   4035   4037     1  0.0000000  0.6508444  3
   4031   4033   4035   4038     1  0.0000000  0.6508444  3
   4032   4031   4033   4034     1  0.0000000  1.2552000  3
   4032   4031   4033   4036     1  0.0000000  1.2552000  3
   4033   4031   4032   4041     1  0.0000000  1.2552000  3
   4033   4031   4032   4042     1  0.0000000  1.2552000  3
   4034   4033   4035   4039     1  0.0000000  0.6508444  3
   4034   4033   4035   4037     1  0.0000000  0.6508444  3
   4034   4033   4035   4038     1  0.0000000  0.6508444  3
   4035   4039   4071   4061     1  180.0000771  6.0668000  2
   4035   4039   4071   4061     1  180.0000771  1.4644000  4
   4036   4033   4035   4039     1  0.0000000  0.6508444  3
   4036   4033   4035   4037     1  0.0000000  0.6508444  3
   4036   4033   4035   4038     1  0.0000000  0.6508444  3
   4037   4035   4039   4040     1  0.0000000  3.3472000  1
   4037   4035   4039   4040     1  0.0000000  0.0000000  2
   4037   4035   4039   4040     1  180.0000771  0.3347200  3
   4037   4035   4039   4071     1  180.0000771  0.0000000  2
   4038   4035   4039   4040     1  0.0000000  3.3472000  1
   4038   4035   4039   4040     1  0.0000000  0.0000000  2
   4038   4035   4039   4040     1  180.0000771  0.3347200  3
   4038   4035   4039   4071     1  180.0000771  0.0000000  2
   4039   4071   4052   4054     1  0.0000000  1.2552000  3
   4040   4039   4071   4061     1  180.0000771  6.0668000  2
   4040   4039   4071   4061     1  180.0000771  1.4644000  4
   4041   4032   4043   4046     1  0.0000000  0.6508444  3
   4041   4032   4043   4044     1  0.0000000  0.6508444  3
   4041   4032   4043   4045     1  0.0000000  0.6508444  3
   4042   4032   4043   4046     1  0.0000000  0.6508444  3
   4042   4032   4043   4044     1  0.0000000  0.6508444  3
   4042   4032   4043   4045     1  0.0000000  0.6508444  3
   4043   4046   4095   4085     1  180.0000771  6.0668000  2
   4043   4046   4095   4085     1  180.0000771  1.4644000  4
   4044   4043   4046   4047     1  0.0000000  3.3472000  1
   4044   4043   4046   4047     1  0.0000000  0.0000000  2
   4044   4043   4046   4047     1  180.0000771  0.3347200  3
   4044   4043   4046   4095     1  180.0000771  0.0000000  2
   4045   4043   4046   4047     1  0.0000000  3.3472000  1
   4045   4043   4046   4047     1  0.0000000  0.0000000  2
   4045   4043   4046   4047     1  180.0000771  0.3347200  3
   4045   4043   4046   4095     1  180.0000771  0.0000000  2
   4046   4095   4076   4078     1  0.0000000  1.2552000  3
   4047   4046   4095   4085     1  180.0000771  6.0668000  2
   4047   4046   4095   4085     1  180.0000771  1.4644000  4
   4048   4049   4051   4055     1  0.0000000  0.6508444  3
   4048   4049   4069   4070     1  0.0000000  1.0460000  1
   4048   4049   4069   4070     1  0.0000000  0.6694400  3
   4048   4059   4064   4065     1  0.0000000  1.0460000  1
   4048   4059   4064   4065     1  0.0000000  0.6694400  3
   4048   4066   4053   4056     1  0.0000000  1.6038667  3
   4049   4048   4059   4062     1  0.0000000  0.6508444  3
   4049   4048   4059   4063     1  0.0000000  0.6508444  3
   4049   4051   4052   4054     1  0.0000000  0.6508444  3
   4049   4051   4058   4060     1  0.0000000  1.0460000  1
   4049   4051   4058   4060     1  0.0000000  0.6694400  3
   4050   4048   4049   4051     1  0.0000000  0.6508444  3
   4050   4048   4049   4069     1  0.0000000  1.0460000  1
   4050   4048   4049   4069     1  0.0000000  0.0000000  3
   4050   4048   4049   4068     1  0.0000000  0.6508444  3
   4050   4048   4059   4064     1  0.0000000  1.0460000  1
   4050   4048   4059   4064     1  0.0000000  0.0000000  3
   4050   4048   4059   4062     1  0.0000000  0.6508444  3
   4050   4048   4059   4063     1  0.0000000  0.6508444  3
   4050   4048   4066   4053     1  0.0000000  1.6038667  3
   4051   4049   4069   4070     1  0.0000000  1.0460000  1
   4051   4049   4069   4070     1  0.0000000  0.6694400  3
   4051   4052   4053   4056     1  0.0000000  0.6508444  3
   4051   4052   4071   4061     1  0.0000000  1.2552000  3
   4052   4051   4049   4068     1  0.0000000  0.6508444  3
   4052   4051   4058   4060     1  0.0000000  1.0460000  1
   4052   4051   4058   4060     1  0.0000000  0.6694400  3
   4052   4053   4057   4067     1  0.0000000  1.0460000  1
   4052   4053   4057   4067     1  0.0000000  0.6694400  3
   4053   4052   4051   4055     1  0.0000000  0.6508444  3
   4053   4052   4071   4061     1  0.0000000  1.2552000  3
   4054   4052   4051   4058     1  0.0000000  1.0460000  1
   4054   4052   4051   4058     1  0.0000000  0.0000000  3
   4054   4052   4051   4055     1  0.0000000  0.6508444  3
   4054   4052   4053   4057     1  0.0000000  1.0460000  1
   4054   4052   4053   4057     1  0.0000000  0.0000000  3
   4054   4052   4053   4066     1  0.0000000  1.0460000  1
   4054   4052   4053   4066     1  0.0000000  0.0000000  3
   4054   4052   4053   4056     1  0.0000000  0.6508444  3
   4054   4052   4071   4061     1  0.0000000  1.2552000  3
   4055   4051   4049   4069     1  0.0000000  1.0460000  1
   4055   4051   4049   4069     1  0.0000000  0.0000000  3
   4055   4051   4049   4068     1  0.0000000  0.6508444  3
   4055   4051   4052   4071     1  0.0000000  0.6508444  3
   4055   4051   4058   4060     1  0.0000000  0.6973333  3
   4056   4053   4052   4071     1  0.0000000  0.6508444  3
   4056   4053   4057   4067     1  0.0000000  0.6973333  3
   4058   4051   4049   4068     1  0.0000000  1.0460000  1
   4058   4051   4049   4068     1  0.0000000  0.0000000  3
   4059   4048   4049   4068     1  0.0000000  0.6508444  3
   4062   4059   4048   4066     1  0.0000000  1.0460000  1
   4062   4059   4048   4066     1  0.0000000  0.0000000  3
   4062   4059   4064   4065     1  0.0000000  0.6973333  3
   4063   4059   4048   4066     1  0.0000000  1.0460000  1
   4063   4059   4048   4066     1  0.0000000  0.0000000  3
   4063   4059   4064   4065     1  0.0000000  0.6973333  3
   4066   4048   4049   4068     1  0.0000000  1.0460000  1
   4066   4048   4049   4068     1  0.0000000  0.0000000  3
   4066   4053   4057   4067     1  0.0000000  0.6973333  3
   4068   4049   4069   4070     1  0.0000000  0.6973333  3
   4072   4073   4075   4079     1  0.0000000  0.6508444  3
   4072   4073   4093   4094     1  0.0000000  1.0460000  1
   4072   4073   4093   4094     1  0.0000000  0.6694400  3
   4072   4083   4088   4089     1  0.0000000  1.0460000  1
   4072   4083   4088   4089     1  0.0000000  0.6694400  3
   4072   4090   4077   4080     1  0.0000000  1.6038667  3
   4073   4072   4083   4086     1  0.0000000  0.6508444  3
   4073   4072   4083   4087     1  0.0000000  0.6508444  3
   4073   4075   4076   4078     1  0.0000000  0.6508444  3
   4073   4075   4082   4084     1  0.0000000  1.0460000  1
   4073   4075   4082   4084     1  0.0000000  0.6694400  3
   4074   4072   4073   4075     1  0.0000000  0.6508444  3
   4074   4072   4073   4093     1  0.0000000  1.0460000  1
   4074   4072   4073   4093     1  0.0000000  0.0000000  3
   4074   4072   4073   4092     1  0.0000000  0.6508444  3
   4074   4072   4083   4088     1  0.0000000  1.0460000  1
   4074   4072   4083   4088     1  0.0000000  0.0000000  3
   4074   4072   4083   4086     1  0.0000000  0.6508444  3
   4074   4072   4083   4087     1  0.0000000  0.6508444  3
   4074   4072   4090   4077     1  0.0000000  1.6038667  3
   4075   4073   4093   4094     1  0.0000000  1.0460000  1
   4075   4073   4093   4094     1  0.0000000  0.6694400  3
   4075   4076   4077   4080     1  0.0000000  0.6508444  3
   4075   4076   4095   4085     1  0.0000000  1.2552000  3
   4076   4075   4073   4092     1  0.0000000  0.6508444  3
   4076   4075   4082   4084     1  0.0000000  1.0460000  1
   4076   4075   4082   4084     1  0.0000000  0.6694400  3
   4076   4077   4081   4091     1  0.0000000  1.0460000  1
   4076   4077   4081   4091     1  0.0000000  0.6694400  3
   4077   4076   4075   4079     1  0.0000000  0.6508444  3
   4077   4076   4095   4085     1  0.0000000  1.2552000  3
   4078   4076   4075   4082     1  0.0000000  1.0460000  1
   4078   4076   4075   4082     1  0.0000000  0.0000000  3
   4078   4076   4075   4079     1  0.0000000  0.6508444  3
   4078   4076   4077   4081     1  0.0000000  1.0460000  1
   4078   4076   4077   4081     1  0.0000000  0.0000000  3
   4078   4076   4077   4090     1  0.0000000  1.0460000  1
   4078   4076   4077   4090     1  0.0000000  0.0000000  3
   4078   4076   4077   4080     1  0.0000000  0.6508444  3
   4078   4076   4095   4085     1  0.0000000  1.2552000  3
   4079   4075   4073   4093     1  0.0000000  1.0460000  1
   4079   4075   4073   4093     1  0.0000000  0.0000000  3
   4079   4075   4073   4092     1  0.0000000  0.6508444  3
   4079   4075   4076   4095     1  0.0000000  0.6508444  3
   4079   4075   4082   4084     1  0.0000000  0.6973333  3
   4080   4077   4076   4095     1  0.0000000  0.6508444  3
   4080   4077   4081   4091     1  0.0000000  0.6973333  3
   4082   4075   4073   4092     1  0.0000000  1.0460000  1
   4082   4075   4073   4092     1  0.0000000  0.0000000  3
   4083   4072   4073   4092     1  0.0000000  0.6508444  3
   4086   4083   4072   4090     1  0.0000000  1.0460000  1
   4086   4083   4072   4090     1  0.0000000  0.0000000  3
   4086   4083   4088   4089     1  0.0000000  0.6973333  3
   4087   4083   4072   4090     1  0.0000000  1.0460000  1
   4087   4083   4072   4090     1  0.0000000  0.0000000  3
   4087   4083   4088   4089     1  0.0000000  0.6973333  3
   4090   4072   4073   4092     1  0.0000000  1.0460000  1
   4090   4072   4073   4092     1  0.0000000  0.0000000  3
   4090   4077   4081   4091     1  0.0000000  0.6973333  3
   4092   4073   4093   4094     1  0.0000000  0.6973333  3
   4096   4098   4100   4102     1  0.0000000  0.6508444  3
   4096   4098   4100   4103     1  0.0000000  0.6508444  3
   4097   4096   4098   4100     1  0.0000000  0.0000000  2
   4097   4096   4098   4099     1  0.0000000  0.0000000  2
   4097   4096   4098   4101     1  0.0000000  0.0000000  2
   4099   4098   4100   4104     1  0.0000000  0.6508444  3
   4099   4098   4100   4102     1  0.0000000  0.6508444  3
   4099   4098   4100   4103     1  0.0000000  0.6508444  3
   4100   4104   4105   4114     1  0.0000000  1.2552000  3
   4100   4104   4105   4115     1  0.0000000  1.2552000  3
   4100   4104   4106   4107     1  0.0000000  1.2552000  3
   4100   4104   4106   4109     1  0.0000000  1.2552000  3
   4101   4098   4100   4104     1  0.0000000  0.6508444  3
   4101   4098   4100   4102     1  0.0000000  0.6508444  3
   4101   4098   4100   4103     1  0.0000000  0.6508444  3
   4102   4100   4104   4105     1  0.0000000  1.2552000  3
   4102   4100   4104   4106     1  0.0000000  1.2552000  3
   4103   4100   4104   4105     1  0.0000000  1.2552000  3
   4103   4100   4104   4106     1  0.0000000  1.2552000  3
   4104   4105   4116   4117     1  0.0000000  0.6508444  3
   4104   4105   4116   4118     1  0.0000000  0.6508444  3
   4104   4106   4108   4110     1  0.0000000  0.6508444  3
   4104   4106   4108   4111     1  0.0000000  0.6508444  3
   4105   4104   4106   4107     1  0.0000000  1.2552000  3
   4105   4104   4106   4109     1  0.0000000  1.2552000  3
   4106   4104   4105   4114     1  0.0000000  1.2552000  3
   4106   4104   4105   4115     1  0.0000000  1.2552000  3
   4107   4106   4108   4112     1  0.0000000  0.6508444  3
   4107   4106   4108   4110     1  0.0000000  0.6508444  3
   4107   4106   4108   4111     1  0.0000000  0.6508444  3
   4108   4112   4144   4134     1  180.0000771  6.0668000  2
   4108   4112   4144   4134     1  180.0000771  1.4644000  4
   4109   4106   4108   4112     1  0.0000000  0.6508444  3
   4109   4106   4108   4110     1  0.0000000  0.6508444  3
   4109   4106   4108   4111     1  0.0000000  0.6508444  3
   4110   4108   4112   4113     1  0.0000000  3.3472000  1
   4110   4108   4112   4113     1  0.0000000  0.0000000  2
   4110   4108   4112   4113     1  180.0000771  0.3347200  3
   4110   4108   4112   4144     1  180.0000771  0.0000000  2
   4111   4108   4112   4113     1  0.0000000  3.3472000  1
   4111   4108   4112   4113     1  0.0000000  0.0000000  2
   4111   4108   4112   4113     1  180.0000771  0.3347200  3
   4111   4108   4112   4144     1  180.0000771  0.0000000  2
   4112   4144   4125   4127     1  0.0000000  1.2552000  3
   4113   4112   4144   4134     1  180.0000771  6.0668000  2
   4113   4112   4144   4134     1  180.0000771  1.4644000  4
   4114   4105   4116   4119     1  0.0000000  0.6508444  3
   4114   4105   4116   4117     1  0.0000000  0.6508444  3
   4114   4105   4116   4118     1  0.0000000  0.6508444  3
   4115   4105   4116   4119     1  0.0000000  0.6508444  3
   4115   4105   4116   4117     1  0.0000000  0.6508444  3
   4115   4105   4116   4118     1  0.0000000  0.6508444  3
   4116   4119   4168   4158     1  180.0000771  6.0668000  2
   4116   4119   4168   4158     1  180.0000771  1.4644000  4
   4117   4116   4119   4120     1  0.0000000  3.3472000  1
   4117   4116   4119   4120     1  0.0000000  0.0000000  2
   4117   4116   4119   4120     1  180.0000771  0.3347200  3
   4117   4116   4119   4168     1  180.0000771  0.0000000  2
   4118   4116   4119   4120     1  0.0000000  3.3472000  1
   4118   4116   4119   4120     1  0.0000000  0.0000000  2
   4118   4116   4119   4120     1  180.0000771  0.3347200  3
   4118   4116   4119   4168     1  180.0000771  0.0000000  2
   4119   4168   4149   4151     1  0.0000000  1.2552000  3
   4120   4119   4168   4158     1  180.0000771  6.0668000  2
   4120   4119   4168   4158     1  180.0000771  1.4644000  4
   4121   4122   4124   4128     1  0.0000000  0.6508444  3
   4121   4122   4142   4143     1  0.0000000  1.0460000  1
   4121   4122   4142   4143     1  0.0000000  0.6694400  3
   4121   4132   4137   4138     1  0.0000000  1.0460000  1
   4121   4132   4137   4138     1  0.0000000  0.6694400  3
   4121   4139   4126   4129     1  0.0000000  1.6038667  3
   4122   4124   4125   4127     1  0.0000000  0.6508444  3
   4122   4124   4131   4133     1  0.0000000  1.0460000  1
   4122   4124   4131   4133     1  0.0000000  0.6694400  3
   4122   4121   4132   4135     1  0.0000000  0.6508444  3
   4122   4121   4132   4136     1  0.0000000  0.6508444  3
   4123   4121   4122   4124     1  0.0000000  0.6508444  3
   4123   4121   4122   4142     1  0.0000000  1.0460000  1
   4123   4121   4122   4142     1  0.0000000  0.0000000  3
   4123   4121   4122   4141     1  0.0000000  0.6508444  3
   4123   4121   4132   4137     1  0.0000000  1.0460000  1
   4123   4121   4132   4137     1  0.0000000  0.0000000  3
   4123   4121   4132   4135     1  0.0000000  0.6508444  3
   4123   4121   4132   4136     1  0.0000000  0.6508444  3
   4123   4121   4139   4126     1  0.0000000  1.6038667  3
   4124   4125   4126   4129     1  0.0000000  0.6508444  3
   4124   4125   4144   4134     1  0.0000000  1.2552000  3
   4124   4122   4142   4143     1  0.0000000  1.0460000  1
   4124   4122   4142   4143     1  0.0000000  0.6694400  3
   4125   4126   4130   4140     1  0.0000000  1.0460000  1
   4125   4126   4130   4140     1  0.0000000  0.6694400  3
   4125   4124   4131   4133     1  0.0000000  1.0460000  1
   4125   4124   4131   4133     1  0.0000000  0.6694400  3
   4125   4124   4122   4141     1  0.0000000  0.6508444  3
   4126   4125   4144   4134     1  0.0000000  1.2552000  3
   4126   4125   4124   4128     1  0.0000000  0.6508444  3
   4127   4125   4126   4130     1  0.0000000  1.0460000  1
   4127   4125   4126   4130     1  0.0000000  0.0000000  3
   4127   4125   4126   4139     1  0.0000000  1.0460000  1
   4127   4125   4126   4139     1  0.0000000  0.0000000  3
   4127   4125   4126   4129     1  0.0000000  0.6508444  3
   4127   4125   4144   4134     1  0.0000000  1.2552000  3
   4127   4125   4124   4131     1  0.0000000  1.0460000  1
   4127   4125   4124   4131     1  0.0000000  0.0000000  3
   4127   4125   4124   4128     1  0.0000000  0.6508444  3
   4128   4124   4125   4144     1  0.0000000  0.6508444  3
   4128   4124   4131   4133     1  0.0000000  0.6973333  3
   4128   4124   4122   4142     1  0.0000000  1.0460000  1
   4128   4124   4122   4142     1  0.0000000  0.0000000  3
   4128   4124   4122   4141     1  0.0000000  0.6508444  3
   4129   4126   4130   4140     1  0.0000000  0.6973333  3
   4129   4126   4125   4144     1  0.0000000  0.6508444  3
   4131   4124   4122   4141     1  0.0000000  1.0460000  1
   4131   4124   4122   4141     1  0.0000000  0.0000000  3
   4132   4121   4122   4141     1  0.0000000  0.6508444  3
   4135   4132   4137   4138     1  0.0000000  0.6973333  3
   4135   4132   4121   4139     1  0.0000000  1.0460000  1
   4135   4132   4121   4139     1  0.0000000  0.0000000  3
   4136   4132   4137   4138     1  0.0000000  0.6973333  3
   4136   4132   4121   4139     1  0.0000000  1.0460000  1
   4136   4132   4121   4139     1  0.0000000  0.0000000  3
   4139   4126   4130   4140     1  0.0000000  0.6973333  3
   4139   4121   4122   4141     1  0.0000000  1.0460000  1
   4139   4121   4122   4141     1  0.0000000  0.0000000  3
   4141   4122   4142   4143     1  0.0000000  0.6973333  3
   4145   4146   4148   4152     1  0.0000000  0.6508444  3
   4145   4146   4166   4167     1  0.0000000  1.0460000  1
   4145   4146   4166   4167     1  0.0000000  0.6694400  3
   4145   4156   4161   4162     1  0.0000000  1.0460000  1
   4145   4156   4161   4162     1  0.0000000  0.6694400  3
   4145   4163   4150   4153     1  0.0000000  1.6038667  3
   4146   4148   4149   4151     1  0.0000000  0.6508444  3
   4146   4148   4155   4157     1  0.0000000  1.0460000  1
   4146   4148   4155   4157     1  0.0000000  0.6694400  3
   4146   4145   4156   4159     1  0.0000000  0.6508444  3
   4146   4145   4156   4160     1  0.0000000  0.6508444  3
   4147   4145   4146   4148     1  0.0000000  0.6508444  3
   4147   4145   4146   4166     1  0.0000000  1.0460000  1
   4147   4145   4146   4166     1  0.0000000  0.0000000  3
   4147   4145   4146   4165     1  0.0000000  0.6508444  3
   4147   4145   4156   4161     1  0.0000000  1.0460000  1
   4147   4145   4156   4161     1  0.0000000  0.0000000  3
   4147   4145   4156   4159     1  0.0000000  0.6508444  3
   4147   4145   4156   4160     1  0.0000000  0.6508444  3
   4147   4145   4163   4150     1  0.0000000  1.6038667  3
   4148   4149   4150   4153     1  0.0000000  0.6508444  3
   4148   4149   4168   4158     1  0.0000000  1.2552000  3
   4148   4146   4166   4167     1  0.0000000  1.0460000  1
   4148   4146   4166   4167     1  0.0000000  0.6694400  3
   4149   4150   4154   4164     1  0.0000000  1.0460000  1
   4149   4150   4154   4164     1  0.0000000  0.6694400  3
   4149   4148   4155   4157     1  0.0000000  1.0460000  1
   4149   4148   4155   4157     1  0.0000000  0.6694400  3
   4149   4148   4146   4165     1  0.0000000  0.6508444  3
   4150   4149   4168   4158     1  0.0000000  1.2552000  3
   4150   4149   4148   4152     1  0.0000000  0.6508444  3
   4151   4149   4150   4154     1  0.0000000  1.0460000  1
   4151   4149   4150   4154     1  0.0000000  0.0000000  3
   4151   4149   4150   4163     1  0.0000000  1.0460000  1
   4151   4149   4150   4163     1  0.0000000  0.0000000  3
   4151   4149   4150   4153     1  0.0000000  0.6508444  3
   4151   4149   4168   4158     1  0.0000000  1.2552000  3
   4151   4149   4148   4155     1  0.0000000  1.0460000  1
   4151   4149   4148   4155     1  0.0000000  0.0000000  3
   4151   4149   4148   4152     1  0.0000000  0.6508444  3
   4152   4148   4149   4168     1  0.0000000  0.6508444  3
   4152   4148   4155   4157     1  0.0000000  0.6973333  3
   4152   4148   4146   4166     1  0.0000000  1.0460000  1
   4152   4148   4146   4166     1  0.0000000  0.0000000  3
   4152   4148   4146   4165     1  0.0000000  0.6508444  3
   4153   4150   4154   4164     1  0.0000000  0.6973333  3
   4153   4150   4149   4168     1  0.0000000  0.6508444  3
   4155   4148   4146   4165     1  0.0000000  1.0460000  1
   4155   4148   4146   4165     1  0.0000000  0.0000000  3
   4156   4145   4146   4165     1  0.0000000  0.6508444  3
   4159   4156   4161   4162     1  0.0000000  0.6973333  3
   4159   4156   4145   4163     1  0.0000000  1.0460000  1
   4159   4156   4145   4163     1  0.0000000  0.0000000  3
   4160   4156   4161   4162     1  0.0000000  0.6973333  3
   4160   4156   4145   4163     1  0.0000000  1.0460000  1
   4160   4156   4145   4163     1  0.0000000  0.0000000  3
   4163   4150   4154   4164     1  0.0000000  0.6973333  3
   4163   4145   4146   4165     1  0.0000000  1.0460000  1
   4163   4145   4146   4165     1  0.0000000  0.0000000  3
   4165   4146   4166   4167     1  0.0000000  0.6973333  3
   4169   4171   4173   4175     1  0.0000000  0.6508444  3
   4169   4171   4173   4176     1  0.0000000  0.6508444  3
   4170   4169   4171   4173     1  0.0000000  0.0000000  2
   4170   4169   4171   4172     1  0.0000000  0.0000000  2
   4170   4169   4171   4174     1  0.0000000  0.0000000  2
   4172   4171   4173   4177     1  0.0000000  0.6508444  3
   4172   4171   4173   4175     1  0.0000000  0.6508444  3
   4172   4171   4173   4176     1  0.0000000  0.6508444  3
   4173   4177   4178   4187     1  0.0000000  1.2552000  3
   4173   4177   4178   4188     1  0.0000000  1.2552000  3
   4173   4177   4179   4180     1  0.0000000  1.2552000  3
   4173   4177   4179   4182     1  0.0000000  1.2552000  3
   4174   4171   4173   4177     1  0.0000000  0.6508444  3
   4174   4171   4173   4175     1  0.0000000  0.6508444  3
   4174   4171   4173   4176     1  0.0000000  0.6508444  3
   4175   4173   4177   4178     1  0.0000000  1.2552000  3
   4175   4173   4177   4179     1  0.0000000  1.2552000  3
   4176   4173   4177   4178     1  0.0000000  1.2552000  3
   4176   4173   4177   4179     1  0.0000000  1.2552000  3
   4177   4178   4189   4190     1  0.0000000  0.6508444  3
   4177   4178   4189   4191     1  0.0000000  0.6508444  3
   4177   4179   4181   4183     1  0.0000000  0.6508444  3
   4177   4179   4181   4184     1  0.0000000  0.6508444  3
   4178   4177   4179   4180     1  0.0000000  1.2552000  3
   4178   4177   4179   4182     1  0.0000000  1.2552000  3
   4179   4177   4178   4187     1  0.0000000  1.2552000  3
   4179   4177   4178   4188     1  0.0000000  1.2552000  3
   4180   4179   4181   4185     1  0.0000000  0.6508444  3
   4180   4179   4181   4183     1  0.0000000  0.6508444  3
   4180   4179   4181   4184     1  0.0000000  0.6508444  3
   4181   4185   4217   4207     1  180.0000771  6.0668000  2
   4181   4185   4217   4207     1  180.0000771  1.4644000  4
   4182   4179   4181   4185     1  0.0000000  0.6508444  3
   4182   4179   4181   4183     1  0.0000000  0.6508444  3
   4182   4179   4181   4184     1  0.0000000  0.6508444  3
   4183   4181   4185   4186     1  0.0000000  3.3472000  1
   4183   4181   4185   4186     1  0.0000000  0.0000000  2
   4183   4181   4185   4186     1  180.0000771  0.3347200  3
   4183   4181   4185   4217     1  180.0000771  0.0000000  2
   4184   4181   4185   4186     1  0.0000000  3.3472000  1
   4184   4181   4185   4186     1  0.0000000  0.0000000  2
   4184   4181   4185   4186     1  180.0000771  0.3347200  3
   4184   4181   4185   4217     1  180.0000771  0.0000000  2
   4185   4217   4198   4200     1  0.0000000  1.2552000  3
   4186   4185   4217   4207     1  180.0000771  6.0668000  2
   4186   4185   4217   4207     1  180.0000771  1.4644000  4
   4187   4178   4189   4192     1  0.0000000  0.6508444  3
   4187   4178   4189   4190     1  0.0000000  0.6508444  3
   4187   4178   4189   4191     1  0.0000000  0.6508444  3
   4188   4178   4189   4192     1  0.0000000  0.6508444  3
   4188   4178   4189   4190     1  0.0000000  0.6508444  3
   4188   4178   4189   4191     1  0.0000000  0.6508444  3
   4189   4192   4241   4231     1  180.0000771  6.0668000  2
   4189   4192   4241   4231     1  180.0000771  1.4644000  4
   4190   4189   4192   4193     1  0.0000000  3.3472000  1
   4190   4189   4192   4193     1  0.0000000  0.0000000  2
   4190   4189   4192   4193     1  180.0000771  0.3347200  3
   4190   4189   4192   4241     1  180.0000771  0.0000000  2
   4191   4189   4192   4193     1  0.0000000  3.3472000  1
   4191   4189   4192   4193     1  0.0000000  0.0000000  2
   4191   4189   4192   4193     1  180.0000771  0.3347200  3
   4191   4189   4192   4241     1  180.0000771  0.0000000  2
   4192   4241   4222   4224     1  0.0000000  1.2552000  3
   4193   4192   4241   4231     1  180.0000771  6.0668000  2
   4193   4192   4241   4231     1  180.0000771  1.4644000  4
   4194   4195   4197   4201     1  0.0000000  0.6508444  3
   4194   4195   4215   4216     1  0.0000000  1.0460000  1
   4194   4195   4215   4216     1  0.0000000  0.6694400  3
   4194   4205   4210   4211     1  0.0000000  1.0460000  1
   4194   4205   4210   4211     1  0.0000000  0.6694400  3
   4194   4212   4199   4202     1  0.0000000  1.6038667  3
   4195   4194   4205   4208     1  0.0000000  0.6508444  3
   4195   4194   4205   4209     1  0.0000000  0.6508444  3
   4195   4197   4198   4200     1  0.0000000  0.6508444  3
   4195   4197   4204   4206     1  0.0000000  1.0460000  1
   4195   4197   4204   4206     1  0.0000000  0.6694400  3
   4196   4194   4195   4197     1  0.0000000  0.6508444  3
   4196   4194   4195   4215     1  0.0000000  1.0460000  1
   4196   4194   4195   4215     1  0.0000000  0.0000000  3
   4196   4194   4195   4214     1  0.0000000  0.6508444  3
   4196   4194   4205   4210     1  0.0000000  1.0460000  1
   4196   4194   4205   4210     1  0.0000000  0.0000000  3
   4196   4194   4205   4208     1  0.0000000  0.6508444  3
   4196   4194   4205   4209     1  0.0000000  0.6508444  3
   4196   4194   4212   4199     1  0.0000000  1.6038667  3
   4197   4195   4215   4216     1  0.0000000  1.0460000  1
   4197   4195   4215   4216     1  0.0000000  0.6694400  3
   4197   4198   4199   4202     1  0.0000000  0.6508444  3
   4197   4198   4217   4207     1  0.0000000  1.2552000  3
   4198   4197   4195   4214     1  0.0000000  0.6508444  3
   4198   4197   4204   4206     1  0.0000000  1.0460000  1
   4198   4197   4204   4206     1  0.0000000  0.6694400  3
   4198   4199   4203   4213     1  0.0000000  1.0460000  1
   4198   4199   4203   4213     1  0.0000000  0.6694400  3
   4199   4198   4197   4201     1  0.0000000  0.6508444  3
   4199   4198   4217   4207     1  0.0000000  1.2552000  3
   4200   4198   4197   4204     1  0.0000000  1.0460000  1
   4200   4198   4197   4204     1  0.0000000  0.0000000  3
   4200   4198   4197   4201     1  0.0000000  0.6508444  3
   4200   4198   4199   4203     1  0.0000000  1.0460000  1
   4200   4198   4199   4203     1  0.0000000  0.0000000  3
   4200   4198   4199   4212     1  0.0000000  1.0460000  1
   4200   4198   4199   4212     1  0.0000000  0.0000000  3
   4200   4198   4199   4202     1  0.0000000  0.6508444  3
   4200   4198   4217   4207     1  0.0000000  1.2552000  3
   4201   4197   4195   4215     1  0.0000000  1.0460000  1
   4201   4197   4195   4215     1  0.0000000  0.0000000  3
   4201   4197   4195   4214     1  0.0000000  0.6508444  3
   4201   4197   4198   4217     1  0.0000000  0.6508444  3
   4201   4197   4204   4206     1  0.0000000  0.6973333  3
   4202   4199   4198   4217     1  0.0000000  0.6508444  3
   4202   4199   4203   4213     1  0.0000000  0.6973333  3
   4204   4197   4195   4214     1  0.0000000  1.0460000  1
   4204   4197   4195   4214     1  0.0000000  0.0000000  3
   4205   4194   4195   4214     1  0.0000000  0.6508444  3
   4208   4205   4194   4212     1  0.0000000  1.0460000  1
   4208   4205   4194   4212     1  0.0000000  0.0000000  3
   4208   4205   4210   4211     1  0.0000000  0.6973333  3
   4209   4205   4194   4212     1  0.0000000  1.0460000  1
   4209   4205   4194   4212     1  0.0000000  0.0000000  3
   4209   4205   4210   4211     1  0.0000000  0.6973333  3
   4212   4194   4195   4214     1  0.0000000  1.0460000  1
   4212   4194   4195   4214     1  0.0000000  0.0000000  3
   4212   4199   4203   4213     1  0.0000000  0.6973333  3
   4214   4195   4215   4216     1  0.0000000  0.6973333  3
   4218   4219   4221   4225     1  0.0000000  0.6508444  3
   4218   4219   4239   4240     1  0.0000000  1.0460000  1
   4218   4219   4239   4240     1  0.0000000  0.6694400  3
   4218   4229   4234   4235     1  0.0000000  1.0460000  1
   4218   4229   4234   4235     1  0.0000000  0.6694400  3
   4218   4236   4223   4226     1  0.0000000  1.6038667  3
   4219   4218   4229   4232     1  0.0000000  0.6508444  3
   4219   4218   4229   4233     1  0.0000000  0.6508444  3
   4219   4221   4222   4224     1  0.0000000  0.6508444  3
   4219   4221   4228   4230     1  0.0000000  1.0460000  1
   4219   4221   4228   4230     1  0.0000000  0.6694400  3
   4220   4218   4219   4221     1  0.0000000  0.6508444  3
   4220   4218   4219   4239     1  0.0000000  1.0460000  1
   4220   4218   4219   4239     1  0.0000000  0.0000000  3
   4220   4218   4219   4238     1  0.0000000  0.6508444  3
   4220   4218   4229   4234     1  0.0000000  1.0460000  1
   4220   4218   4229   4234     1  0.0000000  0.0000000  3
   4220   4218   4229   4232     1  0.0000000  0.6508444  3
   4220   4218   4229   4233     1  0.0000000  0.6508444  3
   4220   4218   4236   4223     1  0.0000000  1.6038667  3
   4221   4219   4239   4240     1  0.0000000  1.0460000  1
   4221   4219   4239   4240     1  0.0000000  0.6694400  3
   4221   4222   4223   4226     1  0.0000000  0.6508444  3
   4221   4222   4241   4231     1  0.0000000  1.2552000  3
   4222   4221   4219   4238     1  0.0000000  0.6508444  3
   4222   4221   4228   4230     1  0.0000000  1.0460000  1
   4222   4221   4228   4230     1  0.0000000  0.6694400  3
   4222   4223   4227   4237     1  0.0000000  1.0460000  1
   4222   4223   4227   4237     1  0.0000000  0.6694400  3
   4223   4222   4221   4225     1  0.0000000  0.6508444  3
   4223   4222   4241   4231     1  0.0000000  1.2552000  3
   4224   4222   4221   4228     1  0.0000000  1.0460000  1
   4224   4222   4221   4228     1  0.0000000  0.0000000  3
   4224   4222   4221   4225     1  0.0000000  0.6508444  3
   4224   4222   4223   4227     1  0.0000000  1.0460000  1
   4224   4222   4223   4227     1  0.0000000  0.0000000  3
   4224   4222   4223   4236     1  0.0000000  1.0460000  1
   4224   4222   4223   4236     1  0.0000000  0.0000000  3
   4224   4222   4223   4226     1  0.0000000  0.6508444  3
   4224   4222   4241   4231     1  0.0000000  1.2552000  3
   4225   4221   4219   4239     1  0.0000000  1.0460000  1
   4225   4221   4219   4239     1  0.0000000  0.0000000  3
   4225   4221   4219   4238     1  0.0000000  0.6508444  3
   4225   4221   4222   4241     1  0.0000000  0.6508444  3
   4225   4221   4228   4230     1  0.0000000  0.6973333  3
   4226   4223   4222   4241     1  0.0000000  0.6508444  3
   4226   4223   4227   4237     1  0.0000000  0.6973333  3
   4228   4221   4219   4238     1  0.0000000  1.0460000  1
   4228   4221   4219   4238     1  0.0000000  0.0000000  3
   4229   4218   4219   4238     1  0.0000000  0.6508444  3
   4232   4229   4218   4236     1  0.0000000  1.0460000  1
   4232   4229   4218   4236     1  0.0000000  0.0000000  3
   4232   4229   4234   4235     1  0.0000000  0.6973333  3
   4233   4229   4218   4236     1  0.0000000  1.0460000  1
   4233   4229   4218   4236     1  0.0000000  0.0000000  3
   4233   4229   4234   4235     1  0.0000000  0.6973333  3
   4236   4218   4219   4238     1  0.0000000  1.0460000  1
   4236   4218   4219   4238     1  0.0000000  0.0000000  3
   4236   4223   4227   4237     1  0.0000000  0.6973333  3
   4238   4219   4239   4240     1  0.0000000  0.6973333  3
   4242   4244   4246   4248     1  0.0000000  0.6508444  3
   4242   4244   4246   4249     1  0.0000000  0.6508444  3
   4243   4242   4244   4246     1  0.0000000  0.0000000  2
   4243   4242   4244   4245     1  0.0000000  0.0000000  2
   4243   4242   4244   4247     1  0.0000000  0.0000000  2
   4245   4244   4246   4250     1  0.0000000  0.6508444  3
   4245   4244   4246   4248     1  0.0000000  0.6508444  3
   4245   4244   4246   4249     1  0.0000000  0.6508444  3
   4246   4250   4251   4260     1  0.0000000  1.2552000  3
   4246   4250   4251   4261     1  0.0000000  1.2552000  3
   4246   4250   4252   4253     1  0.0000000  1.2552000  3
   4246   4250   4252   4255     1  0.0000000  1.2552000  3
   4247   4244   4246   4250     1  0.0000000  0.6508444  3
   4247   4244   4246   4248     1  0.0000000  0.6508444  3
   4247   4244   4246   4249     1  0.0000000  0.6508444  3
   4248   4246   4250   4251     1  0.0000000  1.2552000  3
   4248   4246   4250   4252     1  0.0000000  1.2552000  3
   4249   4246   4250   4251     1  0.0000000  1.2552000  3
   4249   4246   4250   4252     1  0.0000000  1.2552000  3
   4250   4251   4262   4263     1  0.0000000  0.6508444  3
   4250   4251   4262   4264     1  0.0000000  0.6508444  3
   4250   4252   4254   4256     1  0.0000000  0.6508444  3
   4250   4252   4254   4257     1  0.0000000  0.6508444  3
   4251   4250   4252   4253     1  0.0000000  1.2552000  3
   4251   4250   4252   4255     1  0.0000000  1.2552000  3
   4252   4250   4251   4260     1  0.0000000  1.2552000  3
   4252   4250   4251   4261     1  0.0000000  1.2552000  3
   4253   4252   4254   4258     1  0.0000000  0.6508444  3
   4253   4252   4254   4256     1  0.0000000  0.6508444  3
   4253   4252   4254   4257     1  0.0000000  0.6508444  3
   4254   4258   4290   4280     1  180.0000771  6.0668000  2
   4254   4258   4290   4280     1  180.0000771  1.4644000  4
   4255   4252   4254   4258     1  0.0000000  0.6508444  3
   4255   4252   4254   4256     1  0.0000000  0.6508444  3
   4255   4252   4254   4257     1  0.0000000  0.6508444  3
   4256   4254   4258   4259     1  0.0000000  3.3472000  1
   4256   4254   4258   4259     1  0.0000000  0.0000000  2
   4256   4254   4258   4259     1  180.0000771  0.3347200  3
   4256   4254   4258   4290     1  180.0000771  0.0000000  2
   4257   4254   4258   4259     1  0.0000000  3.3472000  1
   4257   4254   4258   4259     1  0.0000000  0.0000000  2
   4257   4254   4258   4259     1  180.0000771  0.3347200  3
   4257   4254   4258   4290     1  180.0000771  0.0000000  2
   4258   4290   4271   4273     1  0.0000000  1.2552000  3
   4259   4258   4290   4280     1  180.0000771  6.0668000  2
   4259   4258   4290   4280     1  180.0000771  1.4644000  4
   4260   4251   4262   4265     1  0.0000000  0.6508444  3
   4260   4251   4262   4263     1  0.0000000  0.6508444  3
   4260   4251   4262   4264     1  0.0000000  0.6508444  3
   4261   4251   4262   4265     1  0.0000000  0.6508444  3
   4261   4251   4262   4263     1  0.0000000  0.6508444  3
   4261   4251   4262   4264     1  0.0000000  0.6508444  3
   4262   4265   4314   4304     1  180.0000771  6.0668000  2
   4262   4265   4314   4304     1  180.0000771  1.4644000  4
   4263   4262   4265   4266     1  0.0000000  3.3472000  1
   4263   4262   4265   4266     1  0.0000000  0.0000000  2
   4263   4262   4265   4266     1  180.0000771  0.3347200  3
   4263   4262   4265   4314     1  180.0000771  0.0000000  2
   4264   4262   4265   4266     1  0.0000000  3.3472000  1
   4264   4262   4265   4266     1  0.0000000  0.0000000  2
   4264   4262   4265   4266     1  180.0000771  0.3347200  3
   4264   4262   4265   4314     1  180.0000771  0.0000000  2
   4265   4314   4295   4297     1  0.0000000  1.2552000  3
   4266   4265   4314   4304     1  180.0000771  6.0668000  2
   4266   4265   4314   4304     1  180.0000771  1.4644000  4
   4267   4268   4270   4274     1  0.0000000  0.6508444  3
   4267   4268   4288   4289     1  0.0000000  1.0460000  1
   4267   4268   4288   4289     1  0.0000000  0.6694400  3
   4267   4278   4283   4284     1  0.0000000  1.0460000  1
   4267   4278   4283   4284     1  0.0000000  0.6694400  3
   4267   4285   4272   4275     1  0.0000000  1.6038667  3
   4268   4270   4271   4273     1  0.0000000  0.6508444  3
   4268   4270   4277   4279     1  0.0000000  1.0460000  1
   4268   4270   4277   4279     1  0.0000000  0.6694400  3
   4268   4267   4278   4281     1  0.0000000  0.6508444  3
   4268   4267   4278   4282     1  0.0000000  0.6508444  3
   4269   4267   4268   4270     1  0.0000000  0.6508444  3
   4269   4267   4268   4288     1  0.0000000  1.0460000  1
   4269   4267   4268   4288     1  0.0000000  0.0000000  3
   4269   4267   4268   4287     1  0.0000000  0.6508444  3
   4269   4267   4278   4283     1  0.0000000  1.0460000  1
   4269   4267   4278   4283     1  0.0000000  0.0000000  3
   4269   4267   4278   4281     1  0.0000000  0.6508444  3
   4269   4267   4278   4282     1  0.0000000  0.6508444  3
   4269   4267   4285   4272     1  0.0000000  1.6038667  3
   4270   4271   4272   4275     1  0.0000000  0.6508444  3
   4270   4271   4290   4280     1  0.0000000  1.2552000  3
   4270   4268   4288   4289     1  0.0000000  1.0460000  1
   4270   4268   4288   4289     1  0.0000000  0.6694400  3
   4271   4272   4276   4286     1  0.0000000  1.0460000  1
   4271   4272   4276   4286     1  0.0000000  0.6694400  3
   4271   4270   4277   4279     1  0.0000000  1.0460000  1
   4271   4270   4277   4279     1  0.0000000  0.6694400  3
   4271   4270   4268   4287     1  0.0000000  0.6508444  3
   4272   4271   4290   4280     1  0.0000000  1.2552000  3
   4272   4271   4270   4274     1  0.0000000  0.6508444  3
   4273   4271   4272   4276     1  0.0000000  1.0460000  1
   4273   4271   4272   4276     1  0.0000000  0.0000000  3
   4273   4271   4272   4285     1  0.0000000  1.0460000  1
   4273   4271   4272   4285     1  0.0000000  0.0000000  3
   4273   4271   4272   4275     1  0.0000000  0.6508444  3
   4273   4271   4290   4280     1  0.0000000  1.2552000  3
   4273   4271   4270   4277     1  0.0000000  1.0460000  1
   4273   4271   4270   4277     1  0.0000000  0.0000000  3
   4273   4271   4270   4274     1  0.0000000  0.6508444  3
   4274   4270   4271   4290     1  0.0000000  0.6508444  3
   4274   4270   4277   4279     1  0.0000000  0.6973333  3
   4274   4270   4268   4288     1  0.0000000  1.0460000  1
   4274   4270   4268   4288     1  0.0000000  0.0000000  3
   4274   4270   4268   4287     1  0.0000000  0.6508444  3
   4275   4272   4276   4286     1  0.0000000  0.6973333  3
   4275   4272   4271   4290     1  0.0000000  0.6508444  3
   4277   4270   4268   4287     1  0.0000000  1.0460000  1
   4277   4270   4268   4287     1  0.0000000  0.0000000  3
   4278   4267   4268   4287     1  0.0000000  0.6508444  3
   4281   4278   4283   4284     1  0.0000000  0.6973333  3
   4281   4278   4267   4285     1  0.0000000  1.0460000  1
   4281   4278   4267   4285     1  0.0000000  0.0000000  3
   4282   4278   4283   4284     1  0.0000000  0.6973333  3
   4282   4278   4267   4285     1  0.0000000  1.0460000  1
   4282   4278   4267   4285     1  0.0000000  0.0000000  3
   4285   4272   4276   4286     1  0.0000000  0.6973333  3
   4285   4267   4268   4287     1  0.0000000  1.0460000  1
   4285   4267   4268   4287     1  0.0000000  0.0000000  3
   4287   4268   4288   4289     1  0.0000000  0.6973333  3
   4291   4292   4294   4298     1  0.0000000  0.6508444  3
   4291   4292   4312   4313     1  0.0000000  1.0460000  1
   4291   4292   4312   4313     1  0.0000000  0.6694400  3
   4291   4302   4307   4308     1  0.0000000  1.0460000  1
   4291   4302   4307   4308     1  0.0000000  0.6694400  3
   4291   4309   4296   4299     1  0.0000000  1.6038667  3
   4292   4294   4295   4297     1  0.0000000  0.6508444  3
   4292   4294   4301   4303     1  0.0000000  1.0460000  1
   4292   4294   4301   4303     1  0.0000000  0.6694400  3
   4292   4291   4302   4305     1  0.0000000  0.6508444  3
   4292   4291   4302   4306     1  0.0000000  0.6508444  3
   4293   4291   4292   4294     1  0.0000000  0.6508444  3
   4293   4291   4292   4312     1  0.0000000  1.0460000  1
   4293   4291   4292   4312     1  0.0000000  0.0000000  3
   4293   4291   4292   4311     1  0.0000000  0.6508444  3
   4293   4291   4302   4307     1  0.0000000  1.0460000  1
   4293   4291   4302   4307     1  0.0000000  0.0000000  3
   4293   4291   4302   4305     1  0.0000000  0.6508444  3
   4293   4291   4302   4306     1  0.0000000  0.6508444  3
   4293   4291   4309   4296     1  0.0000000  1.6038667  3
   4294   4295   4296   4299     1  0.0000000  0.6508444  3
   4294   4295   4314   4304     1  0.0000000  1.2552000  3
   4294   4292   4312   4313     1  0.0000000  1.0460000  1
   4294   4292   4312   4313     1  0.0000000  0.6694400  3
   4295   4296   4300   4310     1  0.0000000  1.0460000  1
   4295   4296   4300   4310     1  0.0000000  0.6694400  3
   4295   4294   4301   4303     1  0.0000000  1.0460000  1
   4295   4294   4301   4303     1  0.0000000  0.6694400  3
   4295   4294   4292   4311     1  0.0000000  0.6508444  3
   4296   4295   4314   4304     1  0.0000000  1.2552000  3
   4296   4295   4294   4298     1  0.0000000  0.6508444  3
   4297   4295   4296   4300     1  0.0000000  1.0460000  1
   4297   4295   4296   4300     1  0.0000000  0.0000000  3
   4297   4295   4296   4309     1  0.0000000  1.0460000  1
   4297   4295   4296   4309     1  0.0000000  0.0000000  3
   4297   4295   4296   4299     1  0.0000000  0.6508444  3
   4297   4295   4314   4304     1  0.0000000  1.2552000  3
   4297   4295   4294   4301     1  0.0000000  1.0460000  1
   4297   4295   4294   4301     1  0.0000000  0.0000000  3
   4297   4295   4294   4298     1  0.0000000  0.6508444  3
   4298   4294   4295   4314     1  0.0000000  0.6508444  3
   4298   4294   4301   4303     1  0.0000000  0.6973333  3
   4298   4294   4292   4312     1  0.0000000  1.0460000  1
   4298   4294   4292   4312     1  0.0000000  0.0000000  3
   4298   4294   4292   4311     1  0.0000000  0.6508444  3
   4299   4296   4300   4310     1  0.0000000  0.6973333  3
   4299   4296   4295   4314     1  0.0000000  0.6508444  3
   4301   4294   4292   4311     1  0.0000000  1.0460000  1
   4301   4294   4292   4311     1  0.0000000  0.0000000  3
   4302   4291   4292   4311     1  0.0000000  0.6508444  3
   4305   4302   4307   4308     1  0.0000000  0.6973333  3
   4305   4302   4291   4309     1  0.0000000  1.0460000  1
   4305   4302   4291   4309     1  0.0000000  0.0000000  3
   4306   4302   4307   4308     1  0.0000000  0.6973333  3
   4306   4302   4291   4309     1  0.0000000  1.0460000  1
   4306   4302   4291   4309     1  0.0000000  0.0000000  3
   4309   4296   4300   4310     1  0.0000000  0.6973333  3
   4309   4291   4292   4311     1  0.0000000  1.0460000  1
   4309   4291   4292   4311     1  0.0000000  0.0000000  3
   4311   4292   4312   4313     1  0.0000000  0.6973333  3
   4315   4317   4319   4321     1  0.0000000  0.6508444  3
   4315   4317   4319   4322     1  0.0000000  0.6508444  3
   4316   4315   4317   4319     1  0.0000000  0.0000000  2
   4316   4315   4317   4318     1  0.0000000  0.0000000  2
   4316   4315   4317   4320     1  0.0000000  0.0000000  2
   4318   4317   4319   4323     1  0.0000000  0.6508444  3
   4318   4317   4319   4321     1  0.0000000  0.6508444  3
   4318   4317   4319   4322     1  0.0000000  0.6508444  3
   4319   4323   4324   4333     1  0.0000000  1.2552000  3
   4319   4323   4324   4334     1  0.0000000  1.2552000  3
   4319   4323   4325   4326     1  0.0000000  1.2552000  3
   4319   4323   4325   4328     1  0.0000000  1.2552000  3
   4320   4317   4319   4323     1  0.0000000  0.6508444  3
   4320   4317   4319   4321     1  0.0000000  0.6508444  3
   4320   4317   4319   4322     1  0.0000000  0.6508444  3
   4321   4319   4323   4324     1  0.0000000  1.2552000  3
   4321   4319   4323   4325     1  0.0000000  1.2552000  3
   4322   4319   4323   4324     1  0.0000000  1.2552000  3
   4322   4319   4323   4325     1  0.0000000  1.2552000  3
   4323   4324   4335   4336     1  0.0000000  0.6508444  3
   4323   4324   4335   4337     1  0.0000000  0.6508444  3
   4323   4325   4327   4329     1  0.0000000  0.6508444  3
   4323   4325   4327   4330     1  0.0000000  0.6508444  3
   4324   4323   4325   4326     1  0.0000000  1.2552000  3
   4324   4323   4325   4328     1  0.0000000  1.2552000  3
   4325   4323   4324   4333     1  0.0000000  1.2552000  3
   4325   4323   4324   4334     1  0.0000000  1.2552000  3
   4326   4325   4327   4331     1  0.0000000  0.6508444  3
   4326   4325   4327   4329     1  0.0000000  0.6508444  3
   4326   4325   4327   4330     1  0.0000000  0.6508444  3
   4327   4331   4363   4353     1  180.0000771  6.0668000  2
   4327   4331   4363   4353     1  180.0000771  1.4644000  4
   4328   4325   4327   4331     1  0.0000000  0.6508444  3
   4328   4325   4327   4329     1  0.0000000  0.6508444  3
   4328   4325   4327   4330     1  0.0000000  0.6508444  3
   4329   4327   4331   4332     1  0.0000000  3.3472000  1
   4329   4327   4331   4332     1  0.0000000  0.0000000  2
   4329   4327   4331   4332     1  180.0000771  0.3347200  3
   4329   4327   4331   4363     1  180.0000771  0.0000000  2
   4330   4327   4331   4332     1  0.0000000  3.3472000  1
   4330   4327   4331   4332     1  0.0000000  0.0000000  2
   4330   4327   4331   4332     1  180.0000771  0.3347200  3
   4330   4327   4331   4363     1  180.0000771  0.0000000  2
   4331   4363   4344   4346     1  0.0000000  1.2552000  3
   4332   4331   4363   4353     1  180.0000771  6.0668000  2
   4332   4331   4363   4353     1  180.0000771  1.4644000  4
   4333   4324   4335   4338     1  0.0000000  0.6508444  3
   4333   4324   4335   4336     1  0.0000000  0.6508444  3
   4333   4324   4335   4337     1  0.0000000  0.6508444  3
   4334   4324   4335   4338     1  0.0000000  0.6508444  3
   4334   4324   4335   4336     1  0.0000000  0.6508444  3
   4334   4324   4335   4337     1  0.0000000  0.6508444  3
   4335   4338   4387   4377     1  180.0000771  6.0668000  2
   4335   4338   4387   4377     1  180.0000771  1.4644000  4
   4336   4335   4338   4339     1  0.0000000  3.3472000  1
   4336   4335   4338   4339     1  0.0000000  0.0000000  2
   4336   4335   4338   4339     1  180.0000771  0.3347200  3
   4336   4335   4338   4387     1  180.0000771  0.0000000  2
   4337   4335   4338   4339     1  0.0000000  3.3472000  1
   4337   4335   4338   4339     1  0.0000000  0.0000000  2
   4337   4335   4338   4339     1  180.0000771  0.3347200  3
   4337   4335   4338   4387     1  180.0000771  0.0000000  2
   4338   4387   4368   4370     1  0.0000000  1.2552000  3
   4339   4338   4387   4377     1  180.0000771  6.0668000  2
   4339   4338   4387   4377     1  180.0000771  1.4644000  4
   4340   4341   4343   4347     1  0.0000000  0.6508444  3
   4340   4341   4361   4362     1  0.0000000  1.0460000  1
   4340   4341   4361   4362     1  0.0000000  0.6694400  3
   4340   4351   4356   4357     1  0.0000000  1.0460000  1
   4340   4351   4356   4357     1  0.0000000  0.6694400  3
   4340   4358   4345   4348     1  0.0000000  1.6038667  3
   4341   4340   4351   4354     1  0.0000000  0.6508444  3
   4341   4340   4351   4355     1  0.0000000  0.6508444  3
   4341   4343   4344   4346     1  0.0000000  0.6508444  3
   4341   4343   4350   4352     1  0.0000000  1.0460000  1
   4341   4343   4350   4352     1  0.0000000  0.6694400  3
   4342   4340   4341   4343     1  0.0000000  0.6508444  3
   4342   4340   4341   4361     1  0.0000000  1.0460000  1
   4342   4340   4341   4361     1  0.0000000  0.0000000  3
   4342   4340   4341   4360     1  0.0000000  0.6508444  3
   4342   4340   4351   4356     1  0.0000000  1.0460000  1
   4342   4340   4351   4356     1  0.0000000  0.0000000  3
   4342   4340   4351   4354     1  0.0000000  0.6508444  3
   4342   4340   4351   4355     1  0.0000000  0.6508444  3
   4342   4340   4358   4345     1  0.0000000  1.6038667  3
   4343   4341   4361   4362     1  0.0000000  1.0460000  1
   4343   4341   4361   4362     1  0.0000000  0.6694400  3
   4343   4344   4345   4348     1  0.0000000  0.6508444  3
   4343   4344   4363   4353     1  0.0000000  1.2552000  3
   4344   4343   4341   4360     1  0.0000000  0.6508444  3
   4344   4343   4350   4352     1  0.0000000  1.0460000  1
   4344   4343   4350   4352     1  0.0000000  0.6694400  3
   4344   4345   4349   4359     1  0.0000000  1.0460000  1
   4344   4345   4349   4359     1  0.0000000  0.6694400  3
   4345   4344   4343   4347     1  0.0000000  0.6508444  3
   4345   4344   4363   4353     1  0.0000000  1.2552000  3
   4346   4344   4343   4350     1  0.0000000  1.0460000  1
   4346   4344   4343   4350     1  0.0000000  0.0000000  3
   4346   4344   4343   4347     1  0.0000000  0.6508444  3
   4346   4344   4345   4349     1  0.0000000  1.0460000  1
   4346   4344   4345   4349     1  0.0000000  0.0000000  3
   4346   4344   4345   4358     1  0.0000000  1.0460000  1
   4346   4344   4345   4358     1  0.0000000  0.0000000  3
   4346   4344   4345   4348     1  0.0000000  0.6508444  3
   4346   4344   4363   4353     1  0.0000000  1.2552000  3
   4347   4343   4341   4361     1  0.0000000  1.0460000  1
   4347   4343   4341   4361     1  0.0000000  0.0000000  3
   4347   4343   4341   4360     1  0.0000000  0.6508444  3
   4347   4343   4344   4363     1  0.0000000  0.6508444  3
   4347   4343   4350   4352     1  0.0000000  0.6973333  3
   4348   4345   4344   4363     1  0.0000000  0.6508444  3
   4348   4345   4349   4359     1  0.0000000  0.6973333  3
   4350   4343   4341   4360     1  0.0000000  1.0460000  1
   4350   4343   4341   4360     1  0.0000000  0.0000000  3
   4351   4340   4341   4360     1  0.0000000  0.6508444  3
   4354   4351   4340   4358     1  0.0000000  1.0460000  1
   4354   4351   4340   4358     1  0.0000000  0.0000000  3
   4354   4351   4356   4357     1  0.0000000  0.6973333  3
   4355   4351   4340   4358     1  0.0000000  1.0460000  1
   4355   4351   4340   4358     1  0.0000000  0.0000000  3
   4355   4351   4356   4357     1  0.0000000  0.6973333  3
   4358   4340   4341   4360     1  0.0000000  1.0460000  1
   4358   4340   4341   4360     1  0.0000000  0.0000000  3
   4358   4345   4349   4359     1  0.0000000  0.6973333  3
   4360   4341   4361   4362     1  0.0000000  0.6973333  3
   4364   4365   4367   4371     1  0.0000000  0.6508444  3
   4364   4365   4385   4386     1  0.0000000  1.0460000  1
   4364   4365   4385   4386     1  0.0000000  0.6694400  3
   4364   4375   4380   4381     1  0.0000000  1.0460000  1
   4364   4375   4380   4381     1  0.0000000  0.6694400  3
   4364   4382   4369   4372     1  0.0000000  1.6038667  3
   4365   4364   4375   4378     1  0.0000000  0.6508444  3
   4365   4364   4375   4379     1  0.0000000  0.6508444  3
   4365   4367   4368   4370     1  0.0000000  0.6508444  3
   4365   4367   4374   4376     1  0.0000000  1.0460000  1
   4365   4367   4374   4376     1  0.0000000  0.6694400  3
   4366   4364   4365   4367     1  0.0000000  0.6508444  3
   4366   4364   4365   4385     1  0.0000000  1.0460000  1
   4366   4364   4365   4385     1  0.0000000  0.0000000  3
   4366   4364   4365   4384     1  0.0000000  0.6508444  3
   4366   4364   4375   4380     1  0.0000000  1.0460000  1
   4366   4364   4375   4380     1  0.0000000  0.0000000  3
   4366   4364   4375   4378     1  0.0000000  0.6508444  3
   4366   4364   4375   4379     1  0.0000000  0.6508444  3
   4366   4364   4382   4369     1  0.0000000  1.6038667  3
   4367   4365   4385   4386     1  0.0000000  1.0460000  1
   4367   4365   4385   4386     1  0.0000000  0.6694400  3
   4367   4368   4369   4372     1  0.0000000  0.6508444  3
   4367   4368   4387   4377     1  0.0000000  1.2552000  3
   4368   4367   4365   4384     1  0.0000000  0.6508444  3
   4368   4367   4374   4376     1  0.0000000  1.0460000  1
   4368   4367   4374   4376     1  0.0000000  0.6694400  3
   4368   4369   4373   4383     1  0.0000000  1.0460000  1
   4368   4369   4373   4383     1  0.0000000  0.6694400  3
   4369   4368   4367   4371     1  0.0000000  0.6508444  3
   4369   4368   4387   4377     1  0.0000000  1.2552000  3
   4370   4368   4367   4374     1  0.0000000  1.0460000  1
   4370   4368   4367   4374     1  0.0000000  0.0000000  3
   4370   4368   4367   4371     1  0.0000000  0.6508444  3
   4370   4368   4369   4373     1  0.0000000  1.0460000  1
   4370   4368   4369   4373     1  0.0000000  0.0000000  3
   4370   4368   4369   4382     1  0.0000000  1.0460000  1
   4370   4368   4369   4382     1  0.0000000  0.0000000  3
   4370   4368   4369   4372     1  0.0000000  0.6508444  3
   4370   4368   4387   4377     1  0.0000000  1.2552000  3
   4371   4367   4365   4385     1  0.0000000  1.0460000  1
   4371   4367   4365   4385     1  0.0000000  0.0000000  3
   4371   4367   4365   4384     1  0.0000000  0.6508444  3
   4371   4367   4368   4387     1  0.0000000  0.6508444  3
   4371   4367   4374   4376     1  0.0000000  0.6973333  3
   4372   4369   4368   4387     1  0.0000000  0.6508444  3
   4372   4369   4373   4383     1  0.0000000  0.6973333  3
   4374   4367   4365   4384     1  0.0000000  1.0460000  1
   4374   4367   4365   4384     1  0.0000000  0.0000000  3
   4375   4364   4365   4384     1  0.0000000  0.6508444  3
   4378   4375   4364   4382     1  0.0000000  1.0460000  1
   4378   4375   4364   4382     1  0.0000000  0.0000000  3
   4378   4375   4380   4381     1  0.0000000  0.6973333  3
   4379   4375   4364   4382     1  0.0000000  1.0460000  1
   4379   4375   4364   4382     1  0.0000000  0.0000000  3
   4379   4375   4380   4381     1  0.0000000  0.6973333  3
   4382   4364   4365   4384     1  0.0000000  1.0460000  1
   4382   4364   4365   4384     1  0.0000000  0.0000000  3
   4382   4369   4373   4383     1  0.0000000  0.6973333  3
   4384   4365   4385   4386     1  0.0000000  0.6973333  3
   4388   4390   4392   4394     1  0.0000000  0.6508444  3
   4388   4390   4392   4395     1  0.0000000  0.6508444  3
   4389   4388   4390   4392     1  0.0000000  0.0000000  2
   4389   4388   4390   4391     1  0.0000000  0.0000000  2
   4389   4388   4390   4393     1  0.0000000  0.0000000  2
   4391   4390   4392   4396     1  0.0000000  0.6508444  3
   4391   4390   4392   4394     1  0.0000000  0.6508444  3
   4391   4390   4392   4395     1  0.0000000  0.6508444  3
   4392   4396   4397   4406     1  0.0000000  1.2552000  3
   4392   4396   4397   4407     1  0.0000000  1.2552000  3
   4392   4396   4398   4399     1  0.0000000  1.2552000  3
   4392   4396   4398   4401     1  0.0000000  1.2552000  3
   4393   4390   4392   4396     1  0.0000000  0.6508444  3
   4393   4390   4392   4394     1  0.0000000  0.6508444  3
   4393   4390   4392   4395     1  0.0000000  0.6508444  3
   4394   4392   4396   4397     1  0.0000000  1.2552000  3
   4394   4392   4396   4398     1  0.0000000  1.2552000  3
   4395   4392   4396   4397     1  0.0000000  1.2552000  3
   4395   4392   4396   4398     1  0.0000000  1.2552000  3
   4396   4397   4408   4409     1  0.0000000  0.6508444  3
   4396   4397   4408   4410     1  0.0000000  0.6508444  3
   4396   4398   4400   4402     1  0.0000000  0.6508444  3
   4396   4398   4400   4403     1  0.0000000  0.6508444  3
   4397   4396   4398   4399     1  0.0000000  1.2552000  3
   4397   4396   4398   4401     1  0.0000000  1.2552000  3
   4398   4396   4397   4406     1  0.0000000  1.2552000  3
   4398   4396   4397   4407     1  0.0000000  1.2552000  3
   4399   4398   4400   4404     1  0.0000000  0.6508444  3
   4399   4398   4400   4402     1  0.0000000  0.6508444  3
   4399   4398   4400   4403     1  0.0000000  0.6508444  3
   4400   4404   4436   4426     1  180.0000771  6.0668000  2
   4400   4404   4436   4426     1  180.0000771  1.4644000  4
   4401   4398   4400   4404     1  0.0000000  0.6508444  3
   4401   4398   4400   4402     1  0.0000000  0.6508444  3
   4401   4398   4400   4403     1  0.0000000  0.6508444  3
   4402   4400   4404   4405     1  0.0000000  3.3472000  1
   4402   4400   4404   4405     1  0.0000000  0.0000000  2
   4402   4400   4404   4405     1  180.0000771  0.3347200  3
   4402   4400   4404   4436     1  180.0000771  0.0000000  2
   4403   4400   4404   4405     1  0.0000000  3.3472000  1
   4403   4400   4404   4405     1  0.0000000  0.0000000  2
   4403   4400   4404   4405     1  180.0000771  0.3347200  3
   4403   4400   4404   4436     1  180.0000771  0.0000000  2
   4404   4436   4417   4419     1  0.0000000  1.2552000  3
   4405   4404   4436   4426     1  180.0000771  6.0668000  2
   4405   4404   4436   4426     1  180.0000771  1.4644000  4
   4406   4397   4408   4411     1  0.0000000  0.6508444  3
   4406   4397   4408   4409     1  0.0000000  0.6508444  3
   4406   4397   4408   4410     1  0.0000000  0.6508444  3
   4407   4397   4408   4411     1  0.0000000  0.6508444  3
   4407   4397   4408   4409     1  0.0000000  0.6508444  3
   4407   4397   4408   4410     1  0.0000000  0.6508444  3
   4408   4411   4460   4450     1  180.0000771  6.0668000  2
   4408   4411   4460   4450     1  180.0000771  1.4644000  4
   4409   4408   4411   4412     1  0.0000000  3.3472000  1
   4409   4408   4411   4412     1  0.0000000  0.0000000  2
   4409   4408   4411   4412     1  180.0000771  0.3347200  3
   4409   4408   4411   4460     1  180.0000771  0.0000000  2
   4410   4408   4411   4412     1  0.0000000  3.3472000  1
   4410   4408   4411   4412     1  0.0000000  0.0000000  2
   4410   4408   4411   4412     1  180.0000771  0.3347200  3
   4410   4408   4411   4460     1  180.0000771  0.0000000  2
   4411   4460   4441   4443     1  0.0000000  1.2552000  3
   4412   4411   4460   4450     1  180.0000771  6.0668000  2
   4412   4411   4460   4450     1  180.0000771  1.4644000  4
   4413   4414   4416   4420     1  0.0000000  0.6508444  3
   4413   4414   4434   4435     1  0.0000000  1.0460000  1
   4413   4414   4434   4435     1  0.0000000  0.6694400  3
   4413   4424   4429   4430     1  0.0000000  1.0460000  1
   4413   4424   4429   4430     1  0.0000000  0.6694400  3
   4413   4431   4418   4421     1  0.0000000  1.6038667  3
   4414   4416   4417   4419     1  0.0000000  0.6508444  3
   4414   4416   4423   4425     1  0.0000000  1.0460000  1
   4414   4416   4423   4425     1  0.0000000  0.6694400  3
   4414   4413   4424   4427     1  0.0000000  0.6508444  3
   4414   4413   4424   4428     1  0.0000000  0.6508444  3
   4415   4413   4414   4416     1  0.0000000  0.6508444  3
   4415   4413   4414   4434     1  0.0000000  1.0460000  1
   4415   4413   4414   4434     1  0.0000000  0.0000000  3
   4415   4413   4414   4433     1  0.0000000  0.6508444  3
   4415   4413   4424   4429     1  0.0000000  1.0460000  1
   4415   4413   4424   4429     1  0.0000000  0.0000000  3
   4415   4413   4424   4427     1  0.0000000  0.6508444  3
   4415   4413   4424   4428     1  0.0000000  0.6508444  3
   4415   4413   4431   4418     1  0.0000000  1.6038667  3
   4416   4417   4418   4421     1  0.0000000  0.6508444  3
   4416   4417   4436   4426     1  0.0000000  1.2552000  3
   4416   4414   4434   4435     1  0.0000000  1.0460000  1
   4416   4414   4434   4435     1  0.0000000  0.6694400  3
   4417   4418   4422   4432     1  0.0000000  1.0460000  1
   4417   4418   4422   4432     1  0.0000000  0.6694400  3
   4417   4416   4423   4425     1  0.0000000  1.0460000  1
   4417   4416   4423   4425     1  0.0000000  0.6694400  3
   4417   4416   4414   4433     1  0.0000000  0.6508444  3
   4418   4417   4436   4426     1  0.0000000  1.2552000  3
   4418   4417   4416   4420     1  0.0000000  0.6508444  3
   4419   4417   4418   4422     1  0.0000000  1.0460000  1
   4419   4417   4418   4422     1  0.0000000  0.0000000  3
   4419   4417   4418   4431     1  0.0000000  1.0460000  1
   4419   4417   4418   4431     1  0.0000000  0.0000000  3
   4419   4417   4418   4421     1  0.0000000  0.6508444  3
   4419   4417   4436   4426     1  0.0000000  1.2552000  3
   4419   4417   4416   4423     1  0.0000000  1.0460000  1
   4419   4417   4416   4423     1  0.0000000  0.0000000  3
   4419   4417   4416   4420     1  0.0000000  0.6508444  3
   4420   4416   4417   4436     1  0.0000000  0.6508444  3
   4420   4416   4423   4425     1  0.0000000  0.6973333  3
   4420   4416   4414   4434     1  0.0000000  1.0460000  1
   4420   4416   4414   4434     1  0.0000000  0.0000000  3
   4420   4416   4414   4433     1  0.0000000  0.6508444  3
   4421   4418   4422   4432     1  0.0000000  0.6973333  3
   4421   4418   4417   4436     1  0.0000000  0.6508444  3
   4423   4416   4414   4433     1  0.0000000  1.0460000  1
   4423   4416   4414   4433     1  0.0000000  0.0000000  3
   4424   4413   4414   4433     1  0.0000000  0.6508444  3
   4427   4424   4429   4430     1  0.0000000  0.6973333  3
   4427   4424   4413   4431     1  0.0000000  1.0460000  1
   4427   4424   4413   4431     1  0.0000000  0.0000000  3
   4428   4424   4429   4430     1  0.0000000  0.6973333  3
   4428   4424   4413   4431     1  0.0000000  1.0460000  1
   4428   4424   4413   4431     1  0.0000000  0.0000000  3
   4431   4418   4422   4432     1  0.0000000  0.6973333  3
   4431   4413   4414   4433     1  0.0000000  1.0460000  1
   4431   4413   4414   4433     1  0.0000000  0.0000000  3
   4433   4414   4434   4435     1  0.0000000  0.6973333  3
   4437   4438   4440   4444     1  0.0000000  0.6508444  3
   4437   4438   4458   4459     1  0.0000000  1.0460000  1
   4437   4438   4458   4459     1  0.0000000  0.6694400  3
   4437   4448   4453   4454     1  0.0000000  1.0460000  1
   4437   4448   4453   4454     1  0.0000000  0.6694400  3
   4437   4455   4442   4445     1  0.0000000  1.6038667  3
   4438   4440   4441   4443     1  0.0000000  0.6508444  3
   4438   4440   4447   4449     1  0.0000000  1.0460000  1
   4438   4440   4447   4449     1  0.0000000  0.6694400  3
   4438   4437   4448   4451     1  0.0000000  0.6508444  3
   4438   4437   4448   4452     1  0.0000000  0.6508444  3
   4439   4437   4438   4440     1  0.0000000  0.6508444  3
   4439   4437   4438   4458     1  0.0000000  1.0460000  1
   4439   4437   4438   4458     1  0.0000000  0.0000000  3
   4439   4437   4438   4457     1  0.0000000  0.6508444  3
   4439   4437   4448   4453     1  0.0000000  1.0460000  1
   4439   4437   4448   4453     1  0.0000000  0.0000000  3
   4439   4437   4448   4451     1  0.0000000  0.6508444  3
   4439   4437   4448   4452     1  0.0000000  0.6508444  3
   4439   4437   4455   4442     1  0.0000000  1.6038667  3
   4440   4441   4442   4445     1  0.0000000  0.6508444  3
   4440   4441   4460   4450     1  0.0000000  1.2552000  3
   4440   4438   4458   4459     1  0.0000000  1.0460000  1
   4440   4438   4458   4459     1  0.0000000  0.6694400  3
   4441   4442   4446   4456     1  0.0000000  1.0460000  1
   4441   4442   4446   4456     1  0.0000000  0.6694400  3
   4441   4440   4447   4449     1  0.0000000  1.0460000  1
   4441   4440   4447   4449     1  0.0000000  0.6694400  3
   4441   4440   4438   4457     1  0.0000000  0.6508444  3
   4442   4441   4460   4450     1  0.0000000  1.2552000  3
   4442   4441   4440   4444     1  0.0000000  0.6508444  3
   4443   4441   4442   4446     1  0.0000000  1.0460000  1
   4443   4441   4442   4446     1  0.0000000  0.0000000  3
   4443   4441   4442   4455     1  0.0000000  1.0460000  1
   4443   4441   4442   4455     1  0.0000000  0.0000000  3
   4443   4441   4442   4445     1  0.0000000  0.6508444  3
   4443   4441   4460   4450     1  0.0000000  1.2552000  3
   4443   4441   4440   4447     1  0.0000000  1.0460000  1
   4443   4441   4440   4447     1  0.0000000  0.0000000  3
   4443   4441   4440   4444     1  0.0000000  0.6508444  3
   4444   4440   4441   4460     1  0.0000000  0.6508444  3
   4444   4440   4447   4449     1  0.0000000  0.6973333  3
   4444   4440   4438   4458     1  0.0000000  1.0460000  1
   4444   4440   4438   4458     1  0.0000000  0.0000000  3
   4444   4440   4438   4457     1  0.0000000  0.6508444  3
   4445   4442   4446   4456     1  0.0000000  0.6973333  3
   4445   4442   4441   4460     1  0.0000000  0.6508444  3
   4447   4440   4438   4457     1  0.0000000  1.0460000  1
   4447   4440   4438   4457     1  0.0000000  0.0000000  3
   4448   4437   4438   4457     1  0.0000000  0.6508444  3
   4451   4448   4453   4454     1  0.0000000  0.6973333  3
   4451   4448   4437   4455     1  0.0000000  1.0460000  1
   4451   4448   4437   4455     1  0.0000000  0.0000000  3
   4452   4448   4453   4454     1  0.0000000  0.6973333  3
   4452   4448   4437   4455     1  0.0000000  1.0460000  1
   4452   4448   4437   4455     1  0.0000000  0.0000000  3
   4455   4442   4446   4456     1  0.0000000  0.6973333  3
   4455   4437   4438   4457     1  0.0000000  1.0460000  1
   4455   4437   4438   4457     1  0.0000000  0.0000000  3
   4457   4438   4458   4459     1  0.0000000  0.6973333  3
   4461   4463   4465   4467     1  0.0000000  0.6508444  3
   4461   4463   4465   4468     1  0.0000000  0.6508444  3
   4462   4461   4463   4465     1  0.0000000  0.0000000  2
   4462   4461   4463   4464     1  0.0000000  0.0000000  2
   4462   4461   4463   4466     1  0.0000000  0.0000000  2
   4464   4463   4465   4469     1  0.0000000  0.6508444  3
   4464   4463   4465   4467     1  0.0000000  0.6508444  3
   4464   4463   4465   4468     1  0.0000000  0.6508444  3
   4465   4469   4470   4479     1  0.0000000  1.2552000  3
   4465   4469   4470   4480     1  0.0000000  1.2552000  3
   4465   4469   4471   4472     1  0.0000000  1.2552000  3
   4465   4469   4471   4474     1  0.0000000  1.2552000  3
   4466   4463   4465   4469     1  0.0000000  0.6508444  3
   4466   4463   4465   4467     1  0.0000000  0.6508444  3
   4466   4463   4465   4468     1  0.0000000  0.6508444  3
   4467   4465   4469   4470     1  0.0000000  1.2552000  3
   4467   4465   4469   4471     1  0.0000000  1.2552000  3
   4468   4465   4469   4470     1  0.0000000  1.2552000  3
   4468   4465   4469   4471     1  0.0000000  1.2552000  3
   4469   4470   4481   4482     1  0.0000000  0.6508444  3
   4469   4470   4481   4483     1  0.0000000  0.6508444  3
   4469   4471   4473   4475     1  0.0000000  0.6508444  3
   4469   4471   4473   4476     1  0.0000000  0.6508444  3
   4470   4469   4471   4472     1  0.0000000  1.2552000  3
   4470   4469   4471   4474     1  0.0000000  1.2552000  3
   4471   4469   4470   4479     1  0.0000000  1.2552000  3
   4471   4469   4470   4480     1  0.0000000  1.2552000  3
   4472   4471   4473   4477     1  0.0000000  0.6508444  3
   4472   4471   4473   4475     1  0.0000000  0.6508444  3
   4472   4471   4473   4476     1  0.0000000  0.6508444  3
   4473   4477   4509   4499     1  180.0000771  6.0668000  2
   4473   4477   4509   4499     1  180.0000771  1.4644000  4
   4474   4471   4473   4477     1  0.0000000  0.6508444  3
   4474   4471   4473   4475     1  0.0000000  0.6508444  3
   4474   4471   4473   4476     1  0.0000000  0.6508444  3
   4475   4473   4477   4478     1  0.0000000  3.3472000  1
   4475   4473   4477   4478     1  0.0000000  0.0000000  2
   4475   4473   4477   4478     1  180.0000771  0.3347200  3
   4475   4473   4477   4509     1  180.0000771  0.0000000  2
   4476   4473   4477   4478     1  0.0000000  3.3472000  1
   4476   4473   4477   4478     1  0.0000000  0.0000000  2
   4476   4473   4477   4478     1  180.0000771  0.3347200  3
   4476   4473   4477   4509     1  180.0000771  0.0000000  2
   4477   4509   4490   4492     1  0.0000000  1.2552000  3
   4478   4477   4509   4499     1  180.0000771  6.0668000  2
   4478   4477   4509   4499     1  180.0000771  1.4644000  4
   4479   4470   4481   4484     1  0.0000000  0.6508444  3
   4479   4470   4481   4482     1  0.0000000  0.6508444  3
   4479   4470   4481   4483     1  0.0000000  0.6508444  3
   4480   4470   4481   4484     1  0.0000000  0.6508444  3
   4480   4470   4481   4482     1  0.0000000  0.6508444  3
   4480   4470   4481   4483     1  0.0000000  0.6508444  3
   4481   4484   4533   4523     1  180.0000771  6.0668000  2
   4481   4484   4533   4523     1  180.0000771  1.4644000  4
   4482   4481   4484   4485     1  0.0000000  3.3472000  1
   4482   4481   4484   4485     1  0.0000000  0.0000000  2
   4482   4481   4484   4485     1  180.0000771  0.3347200  3
   4482   4481   4484   4533     1  180.0000771  0.0000000  2
   4483   4481   4484   4485     1  0.0000000  3.3472000  1
   4483   4481   4484   4485     1  0.0000000  0.0000000  2
   4483   4481   4484   4485     1  180.0000771  0.3347200  3
   4483   4481   4484   4533     1  180.0000771  0.0000000  2
   4484   4533   4514   4516     1  0.0000000  1.2552000  3
   4485   4484   4533   4523     1  180.0000771  6.0668000  2
   4485   4484   4533   4523     1  180.0000771  1.4644000  4
   4486   4487   4489   4493     1  0.0000000  0.6508444  3
   4486   4487   4507   4508     1  0.0000000  1.0460000  1
   4486   4487   4507   4508     1  0.0000000  0.6694400  3
   4486   4497   4502   4503     1  0.0000000  1.0460000  1
   4486   4497   4502   4503     1  0.0000000  0.6694400  3
   4486   4504   4491   4494     1  0.0000000  1.6038667  3
   4487   4486   4497   4500     1  0.0000000  0.6508444  3
   4487   4486   4497   4501     1  0.0000000  0.6508444  3
   4487   4489   4490   4492     1  0.0000000  0.6508444  3
   4487   4489   4496   4498     1  0.0000000  1.0460000  1
   4487   4489   4496   4498     1  0.0000000  0.6694400  3
   4488   4486   4487   4489     1  0.0000000  0.6508444  3
   4488   4486   4487   4507     1  0.0000000  1.0460000  1
   4488   4486   4487   4507     1  0.0000000  0.0000000  3
   4488   4486   4487   4506     1  0.0000000  0.6508444  3
   4488   4486   4497   4502     1  0.0000000  1.0460000  1
   4488   4486   4497   4502     1  0.0000000  0.0000000  3
   4488   4486   4497   4500     1  0.0000000  0.6508444  3
   4488   4486   4497   4501     1  0.0000000  0.6508444  3
   4488   4486   4504   4491     1  0.0000000  1.6038667  3
   4489   4487   4507   4508     1  0.0000000  1.0460000  1
   4489   4487   4507   4508     1  0.0000000  0.6694400  3
   4489   4490   4491   4494     1  0.0000000  0.6508444  3
   4489   4490   4509   4499     1  0.0000000  1.2552000  3
   4490   4489   4487   4506     1  0.0000000  0.6508444  3
   4490   4489   4496   4498     1  0.0000000  1.0460000  1
   4490   4489   4496   4498     1  0.0000000  0.6694400  3
   4490   4491   4495   4505     1  0.0000000  1.0460000  1
   4490   4491   4495   4505     1  0.0000000  0.6694400  3
   4491   4490   4489   4493     1  0.0000000  0.6508444  3
   4491   4490   4509   4499     1  0.0000000  1.2552000  3
   4492   4490   4489   4496     1  0.0000000  1.0460000  1
   4492   4490   4489   4496     1  0.0000000  0.0000000  3
   4492   4490   4489   4493     1  0.0000000  0.6508444  3
   4492   4490   4491   4495     1  0.0000000  1.0460000  1
   4492   4490   4491   4495     1  0.0000000  0.0000000  3
   4492   4490   4491   4504     1  0.0000000  1.0460000  1
   4492   4490   4491   4504     1  0.0000000  0.0000000  3
   4492   4490   4491   4494     1  0.0000000  0.6508444  3
   4492   4490   4509   4499     1  0.0000000  1.2552000  3
   4493   4489   4487   4507     1  0.0000000  1.0460000  1
   4493   4489   4487   4507     1  0.0000000  0.0000000  3
   4493   4489   4487   4506     1  0.0000000  0.6508444  3
   4493   4489   4490   4509     1  0.0000000  0.6508444  3
   4493   4489   4496   4498     1  0.0000000  0.6973333  3
   4494   4491   4490   4509     1  0.0000000  0.6508444  3
   4494   4491   4495   4505     1  0.0000000  0.6973333  3
   4496   4489   4487   4506     1  0.0000000  1.0460000  1
   4496   4489   4487   4506     1  0.0000000  0.0000000  3
   4497   4486   4487   4506     1  0.0000000  0.6508444  3
   4500   4497   4486   4504     1  0.0000000  1.0460000  1
   4500   4497   4486   4504     1  0.0000000  0.0000000  3
   4500   4497   4502   4503     1  0.0000000  0.6973333  3
   4501   4497   4486   4504     1  0.0000000  1.0460000  1
   4501   4497   4486   4504     1  0.0000000  0.0000000  3
   4501   4497   4502   4503     1  0.0000000  0.6973333  3
   4504   4486   4487   4506     1  0.0000000  1.0460000  1
   4504   4486   4487   4506     1  0.0000000  0.0000000  3
   4504   4491   4495   4505     1  0.0000000  0.6973333  3
   4506   4487   4507   4508     1  0.0000000  0.6973333  3
   4510   4511   4513   4517     1  0.0000000  0.6508444  3
   4510   4511   4531   4532     1  0.0000000  1.0460000  1
   4510   4511   4531   4532     1  0.0000000  0.6694400  3
   4510   4521   4526   4527     1  0.0000000  1.0460000  1
   4510   4521   4526   4527     1  0.0000000  0.6694400  3
   4510   4528   4515   4518     1  0.0000000  1.6038667  3
   4511   4510   4521   4524     1  0.0000000  0.6508444  3
   4511   4510   4521   4525     1  0.0000000  0.6508444  3
   4511   4513   4514   4516     1  0.0000000  0.6508444  3
   4511   4513   4520   4522     1  0.0000000  1.0460000  1
   4511   4513   4520   4522     1  0.0000000  0.6694400  3
   4512   4510   4511   4513     1  0.0000000  0.6508444  3
   4512   4510   4511   4531     1  0.0000000  1.0460000  1
   4512   4510   4511   4531     1  0.0000000  0.0000000  3
   4512   4510   4511   4530     1  0.0000000  0.6508444  3
   4512   4510   4521   4526     1  0.0000000  1.0460000  1
   4512   4510   4521   4526     1  0.0000000  0.0000000  3
   4512   4510   4521   4524     1  0.0000000  0.6508444  3
   4512   4510   4521   4525     1  0.0000000  0.6508444  3
   4512   4510   4528   4515     1  0.0000000  1.6038667  3
   4513   4511   4531   4532     1  0.0000000  1.0460000  1
   4513   4511   4531   4532     1  0.0000000  0.6694400  3
   4513   4514   4515   4518     1  0.0000000  0.6508444  3
   4513   4514   4533   4523     1  0.0000000  1.2552000  3
   4514   4513   4511   4530     1  0.0000000  0.6508444  3
   4514   4513   4520   4522     1  0.0000000  1.0460000  1
   4514   4513   4520   4522     1  0.0000000  0.6694400  3
   4514   4515   4519   4529     1  0.0000000  1.0460000  1
   4514   4515   4519   4529     1  0.0000000  0.6694400  3
   4515   4514   4513   4517     1  0.0000000  0.6508444  3
   4515   4514   4533   4523     1  0.0000000  1.2552000  3
   4516   4514   4513   4520     1  0.0000000  1.0460000  1
   4516   4514   4513   4520     1  0.0000000  0.0000000  3
   4516   4514   4513   4517     1  0.0000000  0.6508444  3
   4516   4514   4515   4519     1  0.0000000  1.0460000  1
   4516   4514   4515   4519     1  0.0000000  0.0000000  3
   4516   4514   4515   4528     1  0.0000000  1.0460000  1
   4516   4514   4515   4528     1  0.0000000  0.0000000  3
   4516   4514   4515   4518     1  0.0000000  0.6508444  3
   4516   4514   4533   4523     1  0.0000000  1.2552000  3
   4517   4513   4511   4531     1  0.0000000  1.0460000  1
   4517   4513   4511   4531     1  0.0000000  0.0000000  3
   4517   4513   4511   4530     1  0.0000000  0.6508444  3
   4517   4513   4514   4533     1  0.0000000  0.6508444  3
   4517   4513   4520   4522     1  0.0000000  0.6973333  3
   4518   4515   4514   4533     1  0.0000000  0.6508444  3
   4518   4515   4519   4529     1  0.0000000  0.6973333  3
   4520   4513   4511   4530     1  0.0000000  1.0460000  1
   4520   4513   4511   4530     1  0.0000000  0.0000000  3
   4521   4510   4511   4530     1  0.0000000  0.6508444  3
   4524   4521   4510   4528     1  0.0000000  1.0460000  1
   4524   4521   4510   4528     1  0.0000000  0.0000000  3
   4524   4521   4526   4527     1  0.0000000  0.6973333  3
   4525   4521   4510   4528     1  0.0000000  1.0460000  1
   4525   4521   4510   4528     1  0.0000000  0.0000000  3
   4525   4521   4526   4527     1  0.0000000  0.6973333  3
   4528   4510   4511   4530     1  0.0000000  1.0460000  1
   4528   4510   4511   4530     1  0.0000000  0.0000000  3
   4528   4515   4519   4529     1  0.0000000  0.6973333  3
   4530   4511   4531   4532     1  0.0000000  0.6973333  3
   4534   4536   4538   4540     1  0.0000000  0.6508444  3
   4534   4536   4538   4541     1  0.0000000  0.6508444  3
   4535   4534   4536   4538     1  0.0000000  0.0000000  2
   4535   4534   4536   4537     1  0.0000000  0.0000000  2
   4535   4534   4536   4539     1  0.0000000  0.0000000  2
   4537   4536   4538   4542     1  0.0000000  0.6508444  3
   4537   4536   4538   4540     1  0.0000000  0.6508444  3
   4537   4536   4538   4541     1  0.0000000  0.6508444  3
   4538   4542   4543   4552     1  0.0000000  1.2552000  3
   4538   4542   4543   4553     1  0.0000000  1.2552000  3
   4538   4542   4544   4545     1  0.0000000  1.2552000  3
   4538   4542   4544   4547     1  0.0000000  1.2552000  3
   4539   4536   4538   4542     1  0.0000000  0.6508444  3
   4539   4536   4538   4540     1  0.0000000  0.6508444  3
   4539   4536   4538   4541     1  0.0000000  0.6508444  3
   4540   4538   4542   4543     1  0.0000000  1.2552000  3
   4540   4538   4542   4544     1  0.0000000  1.2552000  3
   4541   4538   4542   4543     1  0.0000000  1.2552000  3
   4541   4538   4542   4544     1  0.0000000  1.2552000  3
   4542   4543   4554   4555     1  0.0000000  0.6508444  3
   4542   4543   4554   4556     1  0.0000000  0.6508444  3
   4542   4544   4546   4548     1  0.0000000  0.6508444  3
   4542   4544   4546   4549     1  0.0000000  0.6508444  3
   4543   4542   4544   4545     1  0.0000000  1.2552000  3
   4543   4542   4544   4547     1  0.0000000  1.2552000  3
   4544   4542   4543   4552     1  0.0000000  1.2552000  3
   4544   4542   4543   4553     1  0.0000000  1.2552000  3
   4545   4544   4546   4550     1  0.0000000  0.6508444  3
   4545   4544   4546   4548     1  0.0000000  0.6508444  3
   4545   4544   4546   4549     1  0.0000000  0.6508444  3
   4546   4550   4582   4572     1  180.0000771  6.0668000  2
   4546   4550   4582   4572     1  180.0000771  1.4644000  4
   4547   4544   4546   4550     1  0.0000000  0.6508444  3
   4547   4544   4546   4548     1  0.0000000  0.6508444  3
   4547   4544   4546   4549     1  0.0000000  0.6508444  3
   4548   4546   4550   4551     1  0.0000000  3.3472000  1
   4548   4546   4550   4551     1  0.0000000  0.0000000  2
   4548   4546   4550   4551     1  180.0000771  0.3347200  3
   4548   4546   4550   4582     1  180.0000771  0.0000000  2
   4549   4546   4550   4551     1  0.0000000  3.3472000  1
   4549   4546   4550   4551     1  0.0000000  0.0000000  2
   4549   4546   4550   4551     1  180.0000771  0.3347200  3
   4549   4546   4550   4582     1  180.0000771  0.0000000  2
   4550   4582   4563   4565     1  0.0000000  1.2552000  3
   4551   4550   4582   4572     1  180.0000771  6.0668000  2
   4551   4550   4582   4572     1  180.0000771  1.4644000  4
   4552   4543   4554   4557     1  0.0000000  0.6508444  3
   4552   4543   4554   4555     1  0.0000000  0.6508444  3
   4552   4543   4554   4556     1  0.0000000  0.6508444  3
   4553   4543   4554   4557     1  0.0000000  0.6508444  3
   4553   4543   4554   4555     1  0.0000000  0.6508444  3
   4553   4543   4554   4556     1  0.0000000  0.6508444  3
   4554   4557   4606   4596     1  180.0000771  6.0668000  2
   4554   4557   4606   4596     1  180.0000771  1.4644000  4
   4555   4554   4557   4558     1  0.0000000  3.3472000  1
   4555   4554   4557   4558     1  0.0000000  0.0000000  2
   4555   4554   4557   4558     1  180.0000771  0.3347200  3
   4555   4554   4557   4606     1  180.0000771  0.0000000  2
   4556   4554   4557   4558     1  0.0000000  3.3472000  1
   4556   4554   4557   4558     1  0.0000000  0.0000000  2
   4556   4554   4557   4558     1  180.0000771  0.3347200  3
   4556   4554   4557   4606     1  180.0000771  0.0000000  2
   4557   4606   4587   4589     1  0.0000000  1.2552000  3
   4558   4557   4606   4596     1  180.0000771  6.0668000  2
   4558   4557   4606   4596     1  180.0000771  1.4644000  4
   4559   4560   4562   4566     1  0.0000000  0.6508444  3
   4559   4560   4580   4581     1  0.0000000  1.0460000  1
   4559   4560   4580   4581     1  0.0000000  0.6694400  3
   4559   4570   4575   4576     1  0.0000000  1.0460000  1
   4559   4570   4575   4576     1  0.0000000  0.6694400  3
   4559   4577   4564   4567     1  0.0000000  1.6038667  3
   4560   4562   4563   4565     1  0.0000000  0.6508444  3
   4560   4562   4569   4571     1  0.0000000  1.0460000  1
   4560   4562   4569   4571     1  0.0000000  0.6694400  3
   4560   4559   4570   4573     1  0.0000000  0.6508444  3
   4560   4559   4570   4574     1  0.0000000  0.6508444  3
   4561   4559   4560   4562     1  0.0000000  0.6508444  3
   4561   4559   4560   4580     1  0.0000000  1.0460000  1
   4561   4559   4560   4580     1  0.0000000  0.0000000  3
   4561   4559   4560   4579     1  0.0000000  0.6508444  3
   4561   4559   4570   4575     1  0.0000000  1.0460000  1
   4561   4559   4570   4575     1  0.0000000  0.0000000  3
   4561   4559   4570   4573     1  0.0000000  0.6508444  3
   4561   4559   4570   4574     1  0.0000000  0.6508444  3
   4561   4559   4577   4564     1  0.0000000  1.6038667  3
   4562   4563   4564   4567     1  0.0000000  0.6508444  3
   4562   4563   4582   4572     1  0.0000000  1.2552000  3
   4562   4560   4580   4581     1  0.0000000  1.0460000  1
   4562   4560   4580   4581     1  0.0000000  0.6694400  3
   4563   4564   4568   4578     1  0.0000000  1.0460000  1
   4563   4564   4568   4578     1  0.0000000  0.6694400  3
   4563   4562   4569   4571     1  0.0000000  1.0460000  1
   4563   4562   4569   4571     1  0.0000000  0.6694400  3
   4563   4562   4560   4579     1  0.0000000  0.6508444  3
   4564   4563   4582   4572     1  0.0000000  1.2552000  3
   4564   4563   4562   4566     1  0.0000000  0.6508444  3
   4565   4563   4564   4568     1  0.0000000  1.0460000  1
   4565   4563   4564   4568     1  0.0000000  0.0000000  3
   4565   4563   4564   4577     1  0.0000000  1.0460000  1
   4565   4563   4564   4577     1  0.0000000  0.0000000  3
   4565   4563   4564   4567     1  0.0000000  0.6508444  3
   4565   4563   4582   4572     1  0.0000000  1.2552000  3
   4565   4563   4562   4569     1  0.0000000  1.0460000  1
   4565   4563   4562   4569     1  0.0000000  0.0000000  3
   4565   4563   4562   4566     1  0.0000000  0.6508444  3
   4566   4562   4563   4582     1  0.0000000  0.6508444  3
   4566   4562   4569   4571     1  0.0000000  0.6973333  3
   4566   4562   4560   4580     1  0.0000000  1.0460000  1
   4566   4562   4560   4580     1  0.0000000  0.0000000  3
   4566   4562   4560   4579     1  0.0000000  0.6508444  3
   4567   4564   4568   4578     1  0.0000000  0.6973333  3
   4567   4564   4563   4582     1  0.0000000  0.6508444  3
   4569   4562   4560   4579     1  0.0000000  1.0460000  1
   4569   4562   4560   4579     1  0.0000000  0.0000000  3
   4570   4559   4560   4579     1  0.0000000  0.6508444  3
   4573   4570   4575   4576     1  0.0000000  0.6973333  3
   4573   4570   4559   4577     1  0.0000000  1.0460000  1
   4573   4570   4559   4577     1  0.0000000  0.0000000  3
   4574   4570   4575   4576     1  0.0000000  0.6973333  3
   4574   4570   4559   4577     1  0.0000000  1.0460000  1
   4574   4570   4559   4577     1  0.0000000  0.0000000  3
   4577   4564   4568   4578     1  0.0000000  0.6973333  3
   4577   4559   4560   4579     1  0.0000000  1.0460000  1
   4577   4559   4560   4579     1  0.0000000  0.0000000  3
   4579   4560   4580   4581     1  0.0000000  0.6973333  3
   4583   4584   4586   4590     1  0.0000000  0.6508444  3
   4583   4584   4604   4605     1  0.0000000  1.0460000  1
   4583   4584   4604   4605     1  0.0000000  0.6694400  3
   4583   4594   4599   4600     1  0.0000000  1.0460000  1
   4583   4594   4599   4600     1  0.0000000  0.6694400  3
   4583   4601   4588   4591     1  0.0000000  1.6038667  3
   4584   4586   4587   4589     1  0.0000000  0.6508444  3
   4584   4586   4593   4595     1  0.0000000  1.0460000  1
   4584   4586   4593   4595     1  0.0000000  0.6694400  3
   4584   4583   4594   4597     1  0.0000000  0.6508444  3
   4584   4583   4594   4598     1  0.0000000  0.6508444  3
   4585   4583   4584   4586     1  0.0000000  0.6508444  3
   4585   4583   4584   4604     1  0.0000000  1.0460000  1
   4585   4583   4584   4604     1  0.0000000  0.0000000  3
   4585   4583   4584   4603     1  0.0000000  0.6508444  3
   4585   4583   4594   4599     1  0.0000000  1.0460000  1
   4585   4583   4594   4599     1  0.0000000  0.0000000  3
   4585   4583   4594   4597     1  0.0000000  0.6508444  3
   4585   4583   4594   4598     1  0.0000000  0.6508444  3
   4585   4583   4601   4588     1  0.0000000  1.6038667  3
   4586   4587   4588   4591     1  0.0000000  0.6508444  3
   4586   4587   4606   4596     1  0.0000000  1.2552000  3
   4586   4584   4604   4605     1  0.0000000  1.0460000  1
   4586   4584   4604   4605     1  0.0000000  0.6694400  3
   4587   4588   4592   4602     1  0.0000000  1.0460000  1
   4587   4588   4592   4602     1  0.0000000  0.6694400  3
   4587   4586   4593   4595     1  0.0000000  1.0460000  1
   4587   4586   4593   4595     1  0.0000000  0.6694400  3
   4587   4586   4584   4603     1  0.0000000  0.6508444  3
   4588   4587   4606   4596     1  0.0000000  1.2552000  3
   4588   4587   4586   4590     1  0.0000000  0.6508444  3
   4589   4587   4588   4592     1  0.0000000  1.0460000  1
   4589   4587   4588   4592     1  0.0000000  0.0000000  3
   4589   4587   4588   4601     1  0.0000000  1.0460000  1
   4589   4587   4588   4601     1  0.0000000  0.0000000  3
   4589   4587   4588   4591     1  0.0000000  0.6508444  3
   4589   4587   4606   4596     1  0.0000000  1.2552000  3
   4589   4587   4586   4593     1  0.0000000  1.0460000  1
   4589   4587   4586   4593     1  0.0000000  0.0000000  3
   4589   4587   4586   4590     1  0.0000000  0.6508444  3
   4590   4586   4587   4606     1  0.0000000  0.6508444  3
   4590   4586   4593   4595     1  0.0000000  0.6973333  3
   4590   4586   4584   4604     1  0.0000000  1.0460000  1
   4590   4586   4584   4604     1  0.0000000  0.0000000  3
   4590   4586   4584   4603     1  0.0000000  0.6508444  3
   4591   4588   4592   4602     1  0.0000000  0.6973333  3
   4591   4588   4587   4606     1  0.0000000  0.6508444  3
   4593   4586   4584   4603     1  0.0000000  1.0460000  1
   4593   4586   4584   4603     1  0.0000000  0.0000000  3
   4594   4583   4584   4603     1  0.0000000  0.6508444  3
   4597   4594   4599   4600     1  0.0000000  0.6973333  3
   4597   4594   4583   4601     1  0.0000000  1.0460000  1
   4597   4594   4583   4601     1  0.0000000  0.0000000  3
   4598   4594   4599   4600     1  0.0000000  0.6973333  3
   4598   4594   4583   4601     1  0.0000000  1.0460000  1
   4598   4594   4583   4601     1  0.0000000  0.0000000  3
   4601   4588   4592   4602     1  0.0000000  0.6973333  3
   4601   4583   4584   4603     1  0.0000000  1.0460000  1
   4601   4583   4584   4603     1  0.0000000  0.0000000  3
   4603   4584   4604   4605     1  0.0000000  0.6973333  3
   4607   4609   4611   4613     1  0.0000000  0.6508444  3
   4607   4609   4611   4614     1  0.0000000  0.6508444  3
   4608   4607   4609   4611     1  0.0000000  0.0000000  2
   4608   4607   4609   4610     1  0.0000000  0.0000000  2
   4608   4607   4609   4612     1  0.0000000  0.0000000  2
   4610   4609   4611   4615     1  0.0000000  0.6508444  3
   4610   4609   4611   4613     1  0.0000000  0.6508444  3
   4610   4609   4611   4614     1  0.0000000  0.6508444  3
   4611   4615   4616   4625     1  0.0000000  1.2552000  3
   4611   4615   4616   4626     1  0.0000000  1.2552000  3
   4611   4615   4617   4618     1  0.0000000  1.2552000  3
   4611   4615   4617   4620     1  0.0000000  1.2552000  3
   4612   4609   4611   4615     1  0.0000000  0.6508444  3
   4612   4609   4611   4613     1  0.0000000  0.6508444  3
   4612   4609   4611   4614     1  0.0000000  0.6508444  3
   4613   4611   4615   4616     1  0.0000000  1.2552000  3
   4613   4611   4615   4617     1  0.0000000  1.2552000  3
   4614   4611   4615   4616     1  0.0000000  1.2552000  3
   4614   4611   4615   4617     1  0.0000000  1.2552000  3
   4615   4616   4627   4628     1  0.0000000  0.6508444  3
   4615   4616   4627   4629     1  0.0000000  0.6508444  3
   4615   4617   4619   4621     1  0.0000000  0.6508444  3
   4615   4617   4619   4622     1  0.0000000  0.6508444  3
   4616   4615   4617   4618     1  0.0000000  1.2552000  3
   4616   4615   4617   4620     1  0.0000000  1.2552000  3
   4617   4615   4616   4625     1  0.0000000  1.2552000  3
   4617   4615   4616   4626     1  0.0000000  1.2552000  3
   4618   4617   4619   4623     1  0.0000000  0.6508444  3
   4618   4617   4619   4621     1  0.0000000  0.6508444  3
   4618   4617   4619   4622     1  0.0000000  0.6508444  3
   4619   4623   4655   4645     1  180.0000771  6.0668000  2
   4619   4623   4655   4645     1  180.0000771  1.4644000  4
   4620   4617   4619   4623     1  0.0000000  0.6508444  3
   4620   4617   4619   4621     1  0.0000000  0.6508444  3
   4620   4617   4619   4622     1  0.0000000  0.6508444  3
   4621   4619   4623   4624     1  0.0000000  3.3472000  1
   4621   4619   4623   4624     1  0.0000000  0.0000000  2
   4621   4619   4623   4624     1  180.0000771  0.3347200  3
   4621   4619   4623   4655     1  180.0000771  0.0000000  2
   4622   4619   4623   4624     1  0.0000000  3.3472000  1
   4622   4619   4623   4624     1  0.0000000  0.0000000  2
   4622   4619   4623   4624     1  180.0000771  0.3347200  3
   4622   4619   4623   4655     1  180.0000771  0.0000000  2
   4623   4655   4636   4638     1  0.0000000  1.2552000  3
   4624   4623   4655   4645     1  180.0000771  6.0668000  2
   4624   4623   4655   4645     1  180.0000771  1.4644000  4
   4625   4616   4627   4630     1  0.0000000  0.6508444  3
   4625   4616   4627   4628     1  0.0000000  0.6508444  3
   4625   4616   4627   4629     1  0.0000000  0.6508444  3
   4626   4616   4627   4630     1  0.0000000  0.6508444  3
   4626   4616   4627   4628     1  0.0000000  0.6508444  3
   4626   4616   4627   4629     1  0.0000000  0.6508444  3
   4627   4630   4679   4669     1  180.0000771  6.0668000  2
   4627   4630   4679   4669     1  180.0000771  1.4644000  4
   4628   4627   4630   4631     1  0.0000000  3.3472000  1
   4628   4627   4630   4631     1  0.0000000  0.0000000  2
   4628   4627   4630   4631     1  180.0000771  0.3347200  3
   4628   4627   4630   4679     1  180.0000771  0.0000000  2
   4629   4627   4630   4631     1  0.0000000  3.3472000  1
   4629   4627   4630   4631     1  0.0000000  0.0000000  2
   4629   4627   4630   4631     1  180.0000771  0.3347200  3
   4629   4627   4630   4679     1  180.0000771  0.0000000  2
   4630   4679   4660   4662     1  0.0000000  1.2552000  3
   4631   4630   4679   4669     1  180.0000771  6.0668000  2
   4631   4630   4679   4669     1  180.0000771  1.4644000  4
   4632   4633   4635   4639     1  0.0000000  0.6508444  3
   4632   4633   4653   4654     1  0.0000000  1.0460000  1
   4632   4633   4653   4654     1  0.0000000  0.6694400  3
   4632   4643   4648   4649     1  0.0000000  1.0460000  1
   4632   4643   4648   4649     1  0.0000000  0.6694400  3
   4632   4650   4637   4640     1  0.0000000  1.6038667  3
   4633   4632   4643   4646     1  0.0000000  0.6508444  3
   4633   4632   4643   4647     1  0.0000000  0.6508444  3
   4633   4635   4636   4638     1  0.0000000  0.6508444  3
   4633   4635   4642   4644     1  0.0000000  1.0460000  1
   4633   4635   4642   4644     1  0.0000000  0.6694400  3
   4634   4632   4633   4635     1  0.0000000  0.6508444  3
   4634   4632   4633   4653     1  0.0000000  1.0460000  1
   4634   4632   4633   4653     1  0.0000000  0.0000000  3
   4634   4632   4633   4652     1  0.0000000  0.6508444  3
   4634   4632   4643   4648     1  0.0000000  1.0460000  1
   4634   4632   4643   4648     1  0.0000000  0.0000000  3
   4634   4632   4643   4646     1  0.0000000  0.6508444  3
   4634   4632   4643   4647     1  0.0000000  0.6508444  3
   4634   4632   4650   4637     1  0.0000000  1.6038667  3
   4635   4633   4653   4654     1  0.0000000  1.0460000  1
   4635   4633   4653   4654     1  0.0000000  0.6694400  3
   4635   4636   4637   4640     1  0.0000000  0.6508444  3
   4635   4636   4655   4645     1  0.0000000  1.2552000  3
   4636   4635   4633   4652     1  0.0000000  0.6508444  3
   4636   4635   4642   4644     1  0.0000000  1.0460000  1
   4636   4635   4642   4644     1  0.0000000  0.6694400  3
   4636   4637   4641   4651     1  0.0000000  1.0460000  1
   4636   4637   4641   4651     1  0.0000000  0.6694400  3
   4637   4636   4635   4639     1  0.0000000  0.6508444  3
   4637   4636   4655   4645     1  0.0000000  1.2552000  3
   4638   4636   4635   4642     1  0.0000000  1.0460000  1
   4638   4636   4635   4642     1  0.0000000  0.0000000  3
   4638   4636   4635   4639     1  0.0000000  0.6508444  3
   4638   4636   4637   4641     1  0.0000000  1.0460000  1
   4638   4636   4637   4641     1  0.0000000  0.0000000  3
   4638   4636   4637   4650     1  0.0000000  1.0460000  1
   4638   4636   4637   4650     1  0.0000000  0.0000000  3
   4638   4636   4637   4640     1  0.0000000  0.6508444  3
   4638   4636   4655   4645     1  0.0000000  1.2552000  3
   4639   4635   4633   4653     1  0.0000000  1.0460000  1
   4639   4635   4633   4653     1  0.0000000  0.0000000  3
   4639   4635   4633   4652     1  0.0000000  0.6508444  3
   4639   4635   4636   4655     1  0.0000000  0.6508444  3
   4639   4635   4642   4644     1  0.0000000  0.6973333  3
   4640   4637   4636   4655     1  0.0000000  0.6508444  3
   4640   4637   4641   4651     1  0.0000000  0.6973333  3
   4642   4635   4633   4652     1  0.0000000  1.0460000  1
   4642   4635   4633   4652     1  0.0000000  0.0000000  3
   4643   4632   4633   4652     1  0.0000000  0.6508444  3
   4646   4643   4632   4650     1  0.0000000  1.0460000  1
   4646   4643   4632   4650     1  0.0000000  0.0000000  3
   4646   4643   4648   4649     1  0.0000000  0.6973333  3
   4647   4643   4632   4650     1  0.0000000  1.0460000  1
   4647   4643   4632   4650     1  0.0000000  0.0000000  3
   4647   4643   4648   4649     1  0.0000000  0.6973333  3
   4650   4632   4633   4652     1  0.0000000  1.0460000  1
   4650   4632   4633   4652     1  0.0000000  0.0000000  3
   4650   4637   4641   4651     1  0.0000000  0.6973333  3
   4652   4633   4653   4654     1  0.0000000  0.6973333  3
   4656   4657   4659   4663     1  0.0000000  0.6508444  3
   4656   4657   4677   4678     1  0.0000000  1.0460000  1
   4656   4657   4677   4678     1  0.0000000  0.6694400  3
   4656   4667   4672   4673     1  0.0000000  1.0460000  1
   4656   4667   4672   4673     1  0.0000000  0.6694400  3
   4656   4674   4661   4664     1  0.0000000  1.6038667  3
   4657   4656   4667   4670     1  0.0000000  0.6508444  3
   4657   4656   4667   4671     1  0.0000000  0.6508444  3
   4657   4659   4660   4662     1  0.0000000  0.6508444  3
   4657   4659   4666   4668     1  0.0000000  1.0460000  1
   4657   4659   4666   4668     1  0.0000000  0.6694400  3
   4658   4656   4657   4659     1  0.0000000  0.6508444  3
   4658   4656   4657   4677     1  0.0000000  1.0460000  1
   4658   4656   4657   4677     1  0.0000000  0.0000000  3
   4658   4656   4657   4676     1  0.0000000  0.6508444  3
   4658   4656   4667   4672     1  0.0000000  1.0460000  1
   4658   4656   4667   4672     1  0.0000000  0.0000000  3
   4658   4656   4667   4670     1  0.0000000  0.6508444  3
   4658   4656   4667   4671     1  0.0000000  0.6508444  3
   4658   4656   4674   4661     1  0.0000000  1.6038667  3
   4659   4657   4677   4678     1  0.0000000  1.0460000  1
   4659   4657   4677   4678     1  0.0000000  0.6694400  3
   4659   4660   4661   4664     1  0.0000000  0.6508444  3
   4659   4660   4679   4669     1  0.0000000  1.2552000  3
   4660   4659   4657   4676     1  0.0000000  0.6508444  3
   4660   4659   4666   4668     1  0.0000000  1.0460000  1
   4660   4659   4666   4668     1  0.0000000  0.6694400  3
   4660   4661   4665   4675     1  0.0000000  1.0460000  1
   4660   4661   4665   4675     1  0.0000000  0.6694400  3
   4661   4660   4659   4663     1  0.0000000  0.6508444  3
   4661   4660   4679   4669     1  0.0000000  1.2552000  3
   4662   4660   4659   4666     1  0.0000000  1.0460000  1
   4662   4660   4659   4666     1  0.0000000  0.0000000  3
   4662   4660   4659   4663     1  0.0000000  0.6508444  3
   4662   4660   4661   4665     1  0.0000000  1.0460000  1
   4662   4660   4661   4665     1  0.0000000  0.0000000  3
   4662   4660   4661   4674     1  0.0000000  1.0460000  1
   4662   4660   4661   4674     1  0.0000000  0.0000000  3
   4662   4660   4661   4664     1  0.0000000  0.6508444  3
   4662   4660   4679   4669     1  0.0000000  1.2552000  3
   4663   4659   4657   4677     1  0.0000000  1.0460000  1
   4663   4659   4657   4677     1  0.0000000  0.0000000  3
   4663   4659   4657   4676     1  0.0000000  0.6508444  3
   4663   4659   4660   4679     1  0.0000000  0.6508444  3
   4663   4659   4666   4668     1  0.0000000  0.6973333  3
   4664   4661   4660   4679     1  0.0000000  0.6508444  3
   4664   4661   4665   4675     1  0.0000000  0.6973333  3
   4666   4659   4657   4676     1  0.0000000  1.0460000  1
   4666   4659   4657   4676     1  0.0000000  0.0000000  3
   4667   4656   4657   4676     1  0.0000000  0.6508444  3
   4670   4667   4656   4674     1  0.0000000  1.0460000  1
   4670   4667   4656   4674     1  0.0000000  0.0000000  3
   4670   4667   4672   4673     1  0.0000000  0.6973333  3
   4671   4667   4656   4674     1  0.0000000  1.0460000  1
   4671   4667   4656   4674     1  0.0000000  0.0000000  3
   4671   4667   4672   4673     1  0.0000000  0.6973333  3
   4674   4656   4657   4676     1  0.0000000  1.0460000  1
   4674   4656   4657   4676     1  0.0000000  0.0000000  3
   4674   4661   4665   4675     1  0.0000000  0.6973333  3
   4676   4657   4677   4678     1  0.0000000  0.6973333  3
   4680   4682   4684   4686     1  0.0000000  0.6508444  3
   4680   4682   4684   4687     1  0.0000000  0.6508444  3
   4681   4680   4682   4684     1  0.0000000  0.0000000  2
   4681   4680   4682   4683     1  0.0000000  0.0000000  2
   4681   4680   4682   4685     1  0.0000000  0.0000000  2
   4683   4682   4684   4688     1  0.0000000  0.6508444  3
   4683   4682   4684   4686     1  0.0000000  0.6508444  3
   4683   4682   4684   4687     1  0.0000000  0.6508444  3
   4684   4688   4689   4698     1  0.0000000  1.2552000  3
   4684   4688   4689   4699     1  0.0000000  1.2552000  3
   4684   4688   4690   4691     1  0.0000000  1.2552000  3
   4684   4688   4690   4693     1  0.0000000  1.2552000  3
   4685   4682   4684   4688     1  0.0000000  0.6508444  3
   4685   4682   4684   4686     1  0.0000000  0.6508444  3
   4685   4682   4684   4687     1  0.0000000  0.6508444  3
   4686   4684   4688   4689     1  0.0000000  1.2552000  3
   4686   4684   4688   4690     1  0.0000000  1.2552000  3
   4687   4684   4688   4689     1  0.0000000  1.2552000  3
   4687   4684   4688   4690     1  0.0000000  1.2552000  3
   4688   4689   4700   4701     1  0.0000000  0.6508444  3
   4688   4689   4700   4702     1  0.0000000  0.6508444  3
   4688   4690   4692   4694     1  0.0000000  0.6508444  3
   4688   4690   4692   4695     1  0.0000000  0.6508444  3
   4689   4688   4690   4691     1  0.0000000  1.2552000  3
   4689   4688   4690   4693     1  0.0000000  1.2552000  3
   4690   4688   4689   4698     1  0.0000000  1.2552000  3
   4690   4688   4689   4699     1  0.0000000  1.2552000  3
   4691   4690   4692   4696     1  0.0000000  0.6508444  3
   4691   4690   4692   4694     1  0.0000000  0.6508444  3
   4691   4690   4692   4695     1  0.0000000  0.6508444  3
   4692   4696   4728   4718     1  180.0000771  6.0668000  2
   4692   4696   4728   4718     1  180.0000771  1.4644000  4
   4693   4690   4692   4696     1  0.0000000  0.6508444  3
   4693   4690   4692   4694     1  0.0000000  0.6508444  3
   4693   4690   4692   4695     1  0.0000000  0.6508444  3
   4694   4692   4696   4697     1  0.0000000  3.3472000  1
   4694   4692   4696   4697     1  0.0000000  0.0000000  2
   4694   4692   4696   4697     1  180.0000771  0.3347200  3
   4694   4692   4696   4728     1  180.0000771  0.0000000  2
   4695   4692   4696   4697     1  0.0000000  3.3472000  1
   4695   4692   4696   4697     1  0.0000000  0.0000000  2
   4695   4692   4696   4697     1  180.0000771  0.3347200  3
   4695   4692   4696   4728     1  180.0000771  0.0000000  2
   4696   4728   4709   4711     1  0.0000000  1.2552000  3
   4697   4696   4728   4718     1  180.0000771  6.0668000  2
   4697   4696   4728   4718     1  180.0000771  1.4644000  4
   4698   4689   4700   4703     1  0.0000000  0.6508444  3
   4698   4689   4700   4701     1  0.0000000  0.6508444  3
   4698   4689   4700   4702     1  0.0000000  0.6508444  3
   4699   4689   4700   4703     1  0.0000000  0.6508444  3
   4699   4689   4700   4701     1  0.0000000  0.6508444  3
   4699   4689   4700   4702     1  0.0000000  0.6508444  3
   4700   4703   4752   4742     1  180.0000771  6.0668000  2
   4700   4703   4752   4742     1  180.0000771  1.4644000  4
   4701   4700   4703   4704     1  0.0000000  3.3472000  1
   4701   4700   4703   4704     1  0.0000000  0.0000000  2
   4701   4700   4703   4704     1  180.0000771  0.3347200  3
   4701   4700   4703   4752     1  180.0000771  0.0000000  2
   4702   4700   4703   4704     1  0.0000000  3.3472000  1
   4702   4700   4703   4704     1  0.0000000  0.0000000  2
   4702   4700   4703   4704     1  180.0000771  0.3347200  3
   4702   4700   4703   4752     1  180.0000771  0.0000000  2
   4703   4752   4733   4735     1  0.0000000  1.2552000  3
   4704   4703   4752   4742     1  180.0000771  6.0668000  2
   4704   4703   4752   4742     1  180.0000771  1.4644000  4
   4705   4706   4708   4712     1  0.0000000  0.6508444  3
   4705   4706   4726   4727     1  0.0000000  1.0460000  1
   4705   4706   4726   4727     1  0.0000000  0.6694400  3
   4705   4716   4721   4722     1  0.0000000  1.0460000  1
   4705   4716   4721   4722     1  0.0000000  0.6694400  3
   4705   4723   4710   4713     1  0.0000000  1.6038667  3
   4706   4708   4709   4711     1  0.0000000  0.6508444  3
   4706   4708   4715   4717     1  0.0000000  1.0460000  1
   4706   4708   4715   4717     1  0.0000000  0.6694400  3
   4706   4705   4716   4719     1  0.0000000  0.6508444  3
   4706   4705   4716   4720     1  0.0000000  0.6508444  3
   4707   4705   4706   4708     1  0.0000000  0.6508444  3
   4707   4705   4706   4726     1  0.0000000  1.0460000  1
   4707   4705   4706   4726     1  0.0000000  0.0000000  3
   4707   4705   4706   4725     1  0.0000000  0.6508444  3
   4707   4705   4716   4721     1  0.0000000  1.0460000  1
   4707   4705   4716   4721     1  0.0000000  0.0000000  3
   4707   4705   4716   4719     1  0.0000000  0.6508444  3
   4707   4705   4716   4720     1  0.0000000  0.6508444  3
   4707   4705   4723   4710     1  0.0000000  1.6038667  3
   4708   4709   4710   4713     1  0.0000000  0.6508444  3
   4708   4709   4728   4718     1  0.0000000  1.2552000  3
   4708   4706   4726   4727     1  0.0000000  1.0460000  1
   4708   4706   4726   4727     1  0.0000000  0.6694400  3
   4709   4710   4714   4724     1  0.0000000  1.0460000  1
   4709   4710   4714   4724     1  0.0000000  0.6694400  3
   4709   4708   4715   4717     1  0.0000000  1.0460000  1
   4709   4708   4715   4717     1  0.0000000  0.6694400  3
   4709   4708   4706   4725     1  0.0000000  0.6508444  3
   4710   4709   4728   4718     1  0.0000000  1.2552000  3
   4710   4709   4708   4712     1  0.0000000  0.6508444  3
   4711   4709   4710   4714     1  0.0000000  1.0460000  1
   4711   4709   4710   4714     1  0.0000000  0.0000000  3
   4711   4709   4710   4723     1  0.0000000  1.0460000  1
   4711   4709   4710   4723     1  0.0000000  0.0000000  3
   4711   4709   4710   4713     1  0.0000000  0.6508444  3
   4711   4709   4728   4718     1  0.0000000  1.2552000  3
   4711   4709   4708   4715     1  0.0000000  1.0460000  1
   4711   4709   4708   4715     1  0.0000000  0.0000000  3
   4711   4709   4708   4712     1  0.0000000  0.6508444  3
   4712   4708   4709   4728     1  0.0000000  0.6508444  3
   4712   4708   4715   4717     1  0.0000000  0.6973333  3
   4712   4708   4706   4726     1  0.0000000  1.0460000  1
   4712   4708   4706   4726     1  0.0000000  0.0000000  3
   4712   4708   4706   4725     1  0.0000000  0.6508444  3
   4713   4710   4714   4724     1  0.0000000  0.6973333  3
   4713   4710   4709   4728     1  0.0000000  0.6508444  3
   4715   4708   4706   4725     1  0.0000000  1.0460000  1
   4715   4708   4706   4725     1  0.0000000  0.0000000  3
   4716   4705   4706   4725     1  0.0000000  0.6508444  3
   4719   4716   4721   4722     1  0.0000000  0.6973333  3
   4719   4716   4705   4723     1  0.0000000  1.0460000  1
   4719   4716   4705   4723     1  0.0000000  0.0000000  3
   4720   4716   4721   4722     1  0.0000000  0.6973333  3
   4720   4716   4705   4723     1  0.0000000  1.0460000  1
   4720   4716   4705   4723     1  0.0000000  0.0000000  3
   4723   4710   4714   4724     1  0.0000000  0.6973333  3
   4723   4705   4706   4725     1  0.0000000  1.0460000  1
   4723   4705   4706   4725     1  0.0000000  0.0000000  3
   4725   4706   4726   4727     1  0.0000000  0.6973333  3
   4729   4730   4732   4736     1  0.0000000  0.6508444  3
   4729   4730   4750   4751     1  0.0000000  1.0460000  1
   4729   4730   4750   4751     1  0.0000000  0.6694400  3
   4729   4740   4745   4746     1  0.0000000  1.0460000  1
   4729   4740   4745   4746     1  0.0000000  0.6694400  3
   4729   4747   4734   4737     1  0.0000000  1.6038667  3
   4730   4732   4733   4735     1  0.0000000  0.6508444  3
   4730   4732   4739   4741     1  0.0000000  1.0460000  1
   4730   4732   4739   4741     1  0.0000000  0.6694400  3
   4730   4729   4740   4743     1  0.0000000  0.6508444  3
   4730   4729   4740   4744     1  0.0000000  0.6508444  3
   4731   4729   4730   4732     1  0.0000000  0.6508444  3
   4731   4729   4730   4750     1  0.0000000  1.0460000  1
   4731   4729   4730   4750     1  0.0000000  0.0000000  3
   4731   4729   4730   4749     1  0.0000000  0.6508444  3
   4731   4729   4740   4745     1  0.0000000  1.0460000  1
   4731   4729   4740   4745     1  0.0000000  0.0000000  3
   4731   4729   4740   4743     1  0.0000000  0.6508444  3
   4731   4729   4740   4744     1  0.0000000  0.6508444  3
   4731   4729   4747   4734     1  0.0000000  1.6038667  3
   4732   4733   4734   4737     1  0.0000000  0.6508444  3
   4732   4733   4752   4742     1  0.0000000  1.2552000  3
   4732   4730   4750   4751     1  0.0000000  1.0460000  1
   4732   4730   4750   4751     1  0.0000000  0.6694400  3
   4733   4734   4738   4748     1  0.0000000  1.0460000  1
   4733   4734   4738   4748     1  0.0000000  0.6694400  3
   4733   4732   4739   4741     1  0.0000000  1.0460000  1
   4733   4732   4739   4741     1  0.0000000  0.6694400  3
   4733   4732   4730   4749     1  0.0000000  0.6508444  3
   4734   4733   4752   4742     1  0.0000000  1.2552000  3
   4734   4733   4732   4736     1  0.0000000  0.6508444  3
   4735   4733   4734   4738     1  0.0000000  1.0460000  1
   4735   4733   4734   4738     1  0.0000000  0.0000000  3
   4735   4733   4734   4747     1  0.0000000  1.0460000  1
   4735   4733   4734   4747     1  0.0000000  0.0000000  3
   4735   4733   4734   4737     1  0.0000000  0.6508444  3
   4735   4733   4752   4742     1  0.0000000  1.2552000  3
   4735   4733   4732   4739     1  0.0000000  1.0460000  1
   4735   4733   4732   4739     1  0.0000000  0.0000000  3
   4735   4733   4732   4736     1  0.0000000  0.6508444  3
   4736   4732   4733   4752     1  0.0000000  0.6508444  3
   4736   4732   4739   4741     1  0.0000000  0.6973333  3
   4736   4732   4730   4750     1  0.0000000  1.0460000  1
   4736   4732   4730   4750     1  0.0000000  0.0000000  3
   4736   4732   4730   4749     1  0.0000000  0.6508444  3
   4737   4734   4738   4748     1  0.0000000  0.6973333  3
   4737   4734   4733   4752     1  0.0000000  0.6508444  3
   4739   4732   4730   4749     1  0.0000000  1.0460000  1
   4739   4732   4730   4749     1  0.0000000  0.0000000  3
   4740   4729   4730   4749     1  0.0000000  0.6508444  3
   4743   4740   4745   4746     1  0.0000000  0.6973333  3
   4743   4740   4729   4747     1  0.0000000  1.0460000  1
   4743   4740   4729   4747     1  0.0000000  0.0000000  3
   4744   4740   4745   4746     1  0.0000000  0.6973333  3
   4744   4740   4729   4747     1  0.0000000  1.0460000  1
   4744   4740   4729   4747     1  0.0000000  0.0000000  3
   4747   4734   4738   4748     1  0.0000000  0.6973333  3
   4747   4729   4730   4749     1  0.0000000  1.0460000  1
   4747   4729   4730   4749     1  0.0000000  0.0000000  3
   4749   4730   4750   4751     1  0.0000000  0.6973333  3
   4753   4755   4757   4759     1  0.0000000  0.6508444  3
   4753   4755   4757   4760     1  0.0000000  0.6508444  3
   4754   4753   4755   4757     1  0.0000000  0.0000000  2
   4754   4753   4755   4756     1  0.0000000  0.0000000  2
   4754   4753   4755   4758     1  0.0000000  0.0000000  2
   4756   4755   4757   4761     1  0.0000000  0.6508444  3
   4756   4755   4757   4759     1  0.0000000  0.6508444  3
   4756   4755   4757   4760     1  0.0000000  0.6508444  3
   4757   4761   4762   4771     1  0.0000000  1.2552000  3
   4757   4761   4762   4772     1  0.0000000  1.2552000  3
   4757   4761   4763   4764     1  0.0000000  1.2552000  3
   4757   4761   4763   4766     1  0.0000000  1.2552000  3
   4758   4755   4757   4761     1  0.0000000  0.6508444  3
   4758   4755   4757   4759     1  0.0000000  0.6508444  3
   4758   4755   4757   4760     1  0.0000000  0.6508444  3
   4759   4757   4761   4762     1  0.0000000  1.2552000  3
   4759   4757   4761   4763     1  0.0000000  1.2552000  3
   4760   4757   4761   4762     1  0.0000000  1.2552000  3
   4760   4757   4761   4763     1  0.0000000  1.2552000  3
   4761   4762   4773   4774     1  0.0000000  0.6508444  3
   4761   4762   4773   4775     1  0.0000000  0.6508444  3
   4761   4763   4765   4767     1  0.0000000  0.6508444  3
   4761   4763   4765   4768     1  0.0000000  0.6508444  3
   4762   4761   4763   4764     1  0.0000000  1.2552000  3
   4762   4761   4763   4766     1  0.0000000  1.2552000  3
   4763   4761   4762   4771     1  0.0000000  1.2552000  3
   4763   4761   4762   4772     1  0.0000000  1.2552000  3
   4764   4763   4765   4769     1  0.0000000  0.6508444  3
   4764   4763   4765   4767     1  0.0000000  0.6508444  3
   4764   4763   4765   4768     1  0.0000000  0.6508444  3
   4765   4769   4801   4791     1  180.0000771  6.0668000  2
   4765   4769   4801   4791     1  180.0000771  1.4644000  4
   4766   4763   4765   4769     1  0.0000000  0.6508444  3
   4766   4763   4765   4767     1  0.0000000  0.6508444  3
   4766   4763   4765   4768     1  0.0000000  0.6508444  3
   4767   4765   4769   4770     1  0.0000000  3.3472000  1
   4767   4765   4769   4770     1  0.0000000  0.0000000  2
   4767   4765   4769   4770     1  180.0000771  0.3347200  3
   4767   4765   4769   4801     1  180.0000771  0.0000000  2
   4768   4765   4769   4770     1  0.0000000  3.3472000  1
   4768   4765   4769   4770     1  0.0000000  0.0000000  2
   4768   4765   4769   4770     1  180.0000771  0.3347200  3
   4768   4765   4769   4801     1  180.0000771  0.0000000  2
   4769   4801   4782   4784     1  0.0000000  1.2552000  3
   4770   4769   4801   4791     1  180.0000771  6.0668000  2
   4770   4769   4801   4791     1  180.0000771  1.4644000  4
   4771   4762   4773   4776     1  0.0000000  0.6508444  3
   4771   4762   4773   4774     1  0.0000000  0.6508444  3
   4771   4762   4773   4775     1  0.0000000  0.6508444  3
   4772   4762   4773   4776     1  0.0000000  0.6508444  3
   4772   4762   4773   4774     1  0.0000000  0.6508444  3
   4772   4762   4773   4775     1  0.0000000  0.6508444  3
   4773   4776   4825   4815     1  180.0000771  6.0668000  2
   4773   4776   4825   4815     1  180.0000771  1.4644000  4
   4774   4773   4776   4777     1  0.0000000  3.3472000  1
   4774   4773   4776   4777     1  0.0000000  0.0000000  2
   4774   4773   4776   4777     1  180.0000771  0.3347200  3
   4774   4773   4776   4825     1  180.0000771  0.0000000  2
   4775   4773   4776   4777     1  0.0000000  3.3472000  1
   4775   4773   4776   4777     1  0.0000000  0.0000000  2
   4775   4773   4776   4777     1  180.0000771  0.3347200  3
   4775   4773   4776   4825     1  180.0000771  0.0000000  2
   4776   4825   4806   4808     1  0.0000000  1.2552000  3
   4777   4776   4825   4815     1  180.0000771  6.0668000  2
   4777   4776   4825   4815     1  180.0000771  1.4644000  4
   4778   4779   4781   4785     1  0.0000000  0.6508444  3
   4778   4779   4799   4800     1  0.0000000  1.0460000  1
   4778   4779   4799   4800     1  0.0000000  0.6694400  3
   4778   4789   4794   4795     1  0.0000000  1.0460000  1
   4778   4789   4794   4795     1  0.0000000  0.6694400  3
   4778   4796   4783   4786     1  0.0000000  1.6038667  3
   4779   4778   4789   4792     1  0.0000000  0.6508444  3
   4779   4778   4789   4793     1  0.0000000  0.6508444  3
   4779   4781   4782   4784     1  0.0000000  0.6508444  3
   4779   4781   4788   4790     1  0.0000000  1.0460000  1
   4779   4781   4788   4790     1  0.0000000  0.6694400  3
   4780   4778   4779   4781     1  0.0000000  0.6508444  3
   4780   4778   4779   4799     1  0.0000000  1.0460000  1
   4780   4778   4779   4799     1  0.0000000  0.0000000  3
   4780   4778   4779   4798     1  0.0000000  0.6508444  3
   4780   4778   4789   4794     1  0.0000000  1.0460000  1
   4780   4778   4789   4794     1  0.0000000  0.0000000  3
   4780   4778   4789   4792     1  0.0000000  0.6508444  3
   4780   4778   4789   4793     1  0.0000000  0.6508444  3
   4780   4778   4796   4783     1  0.0000000  1.6038667  3
   4781   4779   4799   4800     1  0.0000000  1.0460000  1
   4781   4779   4799   4800     1  0.0000000  0.6694400  3
   4781   4782   4783   4786     1  0.0000000  0.6508444  3
   4781   4782   4801   4791     1  0.0000000  1.2552000  3
   4782   4781   4779   4798     1  0.0000000  0.6508444  3
   4782   4781   4788   4790     1  0.0000000  1.0460000  1
   4782   4781   4788   4790     1  0.0000000  0.6694400  3
   4782   4783   4787   4797     1  0.0000000  1.0460000  1
   4782   4783   4787   4797     1  0.0000000  0.6694400  3
   4783   4782   4781   4785     1  0.0000000  0.6508444  3
   4783   4782   4801   4791     1  0.0000000  1.2552000  3
   4784   4782   4781   4788     1  0.0000000  1.0460000  1
   4784   4782   4781   4788     1  0.0000000  0.0000000  3
   4784   4782   4781   4785     1  0.0000000  0.6508444  3
   4784   4782   4783   4787     1  0.0000000  1.0460000  1
   4784   4782   4783   4787     1  0.0000000  0.0000000  3
   4784   4782   4783   4796     1  0.0000000  1.0460000  1
   4784   4782   4783   4796     1  0.0000000  0.0000000  3
   4784   4782   4783   4786     1  0.0000000  0.6508444  3
   4784   4782   4801   4791     1  0.0000000  1.2552000  3
   4785   4781   4779   4799     1  0.0000000  1.0460000  1
   4785   4781   4779   4799     1  0.0000000  0.0000000  3
   4785   4781   4779   4798     1  0.0000000  0.6508444  3
   4785   4781   4782   4801     1  0.0000000  0.6508444  3
   4785   4781   4788   4790     1  0.0000000  0.6973333  3
   4786   4783   4782   4801     1  0.0000000  0.6508444  3
   4786   4783   4787   4797     1  0.0000000  0.6973333  3
   4788   4781   4779   4798     1  0.0000000  1.0460000  1
   4788   4781   4779   4798     1  0.0000000  0.0000000  3
   4789   4778   4779   4798     1  0.0000000  0.6508444  3
   4792   4789   4778   4796     1  0.0000000  1.0460000  1
   4792   4789   4778   4796     1  0.0000000  0.0000000  3
   4792   4789   4794   4795     1  0.0000000  0.6973333  3
   4793   4789   4778   4796     1  0.0000000  1.0460000  1
   4793   4789   4778   4796     1  0.0000000  0.0000000  3
   4793   4789   4794   4795     1  0.0000000  0.6973333  3
   4796   4778   4779   4798     1  0.0000000  1.0460000  1
   4796   4778   4779   4798     1  0.0000000  0.0000000  3
   4796   4783   4787   4797     1  0.0000000  0.6973333  3
   4798   4779   4799   4800     1  0.0000000  0.6973333  3
   4802   4803   4805   4809     1  0.0000000  0.6508444  3
   4802   4803   4823   4824     1  0.0000000  1.0460000  1
   4802   4803   4823   4824     1  0.0000000  0.6694400  3
   4802   4813   4818   4819     1  0.0000000  1.0460000  1
   4802   4813   4818   4819     1  0.0000000  0.6694400  3
   4802   4820   4807   4810     1  0.0000000  1.6038667  3
   4803   4802   4813   4816     1  0.0000000  0.6508444  3
   4803   4802   4813   4817     1  0.0000000  0.6508444  3
   4803   4805   4806   4808     1  0.0000000  0.6508444  3
   4803   4805   4812   4814     1  0.0000000  1.0460000  1
   4803   4805   4812   4814     1  0.0000000  0.6694400  3
   4804   4802   4803   4805     1  0.0000000  0.6508444  3
   4804   4802   4803   4823     1  0.0000000  1.0460000  1
   4804   4802   4803   4823     1  0.0000000  0.0000000  3
   4804   4802   4803   4822     1  0.0000000  0.6508444  3
   4804   4802   4813   4818     1  0.0000000  1.0460000  1
   4804   4802   4813   4818     1  0.0000000  0.0000000  3
   4804   4802   4813   4816     1  0.0000000  0.6508444  3
   4804   4802   4813   4817     1  0.0000000  0.6508444  3
   4804   4802   4820   4807     1  0.0000000  1.6038667  3
   4805   4803   4823   4824     1  0.0000000  1.0460000  1
   4805   4803   4823   4824     1  0.0000000  0.6694400  3
   4805   4806   4807   4810     1  0.0000000  0.6508444  3
   4805   4806   4825   4815     1  0.0000000  1.2552000  3
   4806   4805   4803   4822     1  0.0000000  0.6508444  3
   4806   4805   4812   4814     1  0.0000000  1.0460000  1
   4806   4805   4812   4814     1  0.0000000  0.6694400  3
   4806   4807   4811   4821     1  0.0000000  1.0460000  1
   4806   4807   4811   4821     1  0.0000000  0.6694400  3
   4807   4806   4805   4809     1  0.0000000  0.6508444  3
   4807   4806   4825   4815     1  0.0000000  1.2552000  3
   4808   4806   4805   4812     1  0.0000000  1.0460000  1
   4808   4806   4805   4812     1  0.0000000  0.0000000  3
   4808   4806   4805   4809     1  0.0000000  0.6508444  3
   4808   4806   4807   4811     1  0.0000000  1.0460000  1
   4808   4806   4807   4811     1  0.0000000  0.0000000  3
   4808   4806   4807   4820     1  0.0000000  1.0460000  1
   4808   4806   4807   4820     1  0.0000000  0.0000000  3
   4808   4806   4807   4810     1  0.0000000  0.6508444  3
   4808   4806   4825   4815     1  0.0000000  1.2552000  3
   4809   4805   4803   4823     1  0.0000000  1.0460000  1
   4809   4805   4803   4823     1  0.0000000  0.0000000  3
   4809   4805   4803   4822     1  0.0000000  0.6508444  3
   4809   4805   4806   4825     1  0.0000000  0.6508444  3
   4809   4805   4812   4814     1  0.0000000  0.6973333  3
   4810   4807   4806   4825     1  0.0000000  0.6508444  3
   4810   4807   4811   4821     1  0.0000000  0.6973333  3
   4812   4805   4803   4822     1  0.0000000  1.0460000  1
   4812   4805   4803   4822     1  0.0000000  0.0000000  3
   4813   4802   4803   4822     1  0.0000000  0.6508444  3
   4816   4813   4802   4820     1  0.0000000  1.0460000  1
   4816   4813   4802   4820     1  0.0000000  0.0000000  3
   4816   4813   4818   4819     1  0.0000000  0.6973333  3
   4817   4813   4802   4820     1  0.0000000  1.0460000  1
   4817   4813   4802   4820     1  0.0000000  0.0000000  3
   4817   4813   4818   4819     1  0.0000000  0.6973333  3
   4820   4802   4803   4822     1  0.0000000  1.0460000  1
   4820   4802   4803   4822     1  0.0000000  0.0000000  3
   4820   4807   4811   4821     1  0.0000000  0.6973333  3
   4822   4803   4823   4824     1  0.0000000  0.6973333  3
   4826   4828   4830   4832     1  0.0000000  0.6508444  3
   4826   4828   4830   4833     1  0.0000000  0.6508444  3
   4827   4826   4828   4830     1  0.0000000  0.0000000  2
   4827   4826   4828   4829     1  0.0000000  0.0000000  2
   4827   4826   4828   4831     1  0.0000000  0.0000000  2
   4829   4828   4830   4834     1  0.0000000  0.6508444  3
   4829   4828   4830   4832     1  0.0000000  0.6508444  3
   4829   4828   4830   4833     1  0.0000000  0.6508444  3
   4830   4834   4835   4844     1  0.0000000  1.2552000  3
   4830   4834   4835   4845     1  0.0000000  1.2552000  3
   4830   4834   4836   4837     1  0.0000000  1.2552000  3
   4830   4834   4836   4839     1  0.0000000  1.2552000  3
   4831   4828   4830   4834     1  0.0000000  0.6508444  3
   4831   4828   4830   4832     1  0.0000000  0.6508444  3
   4831   4828   4830   4833     1  0.0000000  0.6508444  3
   4832   4830   4834   4835     1  0.0000000  1.2552000  3
   4832   4830   4834   4836     1  0.0000000  1.2552000  3
   4833   4830   4834   4835     1  0.0000000  1.2552000  3
   4833   4830   4834   4836     1  0.0000000  1.2552000  3
   4834   4835   4846   4847     1  0.0000000  0.6508444  3
   4834   4835   4846   4848     1  0.0000000  0.6508444  3
   4834   4836   4838   4840     1  0.0000000  0.6508444  3
   4834   4836   4838   4841     1  0.0000000  0.6508444  3
   4835   4834   4836   4837     1  0.0000000  1.2552000  3
   4835   4834   4836   4839     1  0.0000000  1.2552000  3
   4836   4834   4835   4844     1  0.0000000  1.2552000  3
   4836   4834   4835   4845     1  0.0000000  1.2552000  3
   4837   4836   4838   4842     1  0.0000000  0.6508444  3
   4837   4836   4838   4840     1  0.0000000  0.6508444  3
   4837   4836   4838   4841     1  0.0000000  0.6508444  3
   4838   4842   4874   4864     1  180.0000771  6.0668000  2
   4838   4842   4874   4864     1  180.0000771  1.4644000  4
   4839   4836   4838   4842     1  0.0000000  0.6508444  3
   4839   4836   4838   4840     1  0.0000000  0.6508444  3
   4839   4836   4838   4841     1  0.0000000  0.6508444  3
   4840   4838   4842   4843     1  0.0000000  3.3472000  1
   4840   4838   4842   4843     1  0.0000000  0.0000000  2
   4840   4838   4842   4843     1  180.0000771  0.3347200  3
   4840   4838   4842   4874     1  180.0000771  0.0000000  2
   4841   4838   4842   4843     1  0.0000000  3.3472000  1
   4841   4838   4842   4843     1  0.0000000  0.0000000  2
   4841   4838   4842   4843     1  180.0000771  0.3347200  3
   4841   4838   4842   4874     1  180.0000771  0.0000000  2
   4842   4874   4855   4857     1  0.0000000  1.2552000  3
   4843   4842   4874   4864     1  180.0000771  6.0668000  2
   4843   4842   4874   4864     1  180.0000771  1.4644000  4
   4844   4835   4846   4849     1  0.0000000  0.6508444  3
   4844   4835   4846   4847     1  0.0000000  0.6508444  3
   4844   4835   4846   4848     1  0.0000000  0.6508444  3
   4845   4835   4846   4849     1  0.0000000  0.6508444  3
   4845   4835   4846   4847     1  0.0000000  0.6508444  3
   4845   4835   4846   4848     1  0.0000000  0.6508444  3
   4846   4849   4898   4888     1  180.0000771  6.0668000  2
   4846   4849   4898   4888     1  180.0000771  1.4644000  4
   4847   4846   4849   4850     1  0.0000000  3.3472000  1
   4847   4846   4849   4850     1  0.0000000  0.0000000  2
   4847   4846   4849   4850     1  180.0000771  0.3347200  3
   4847   4846   4849   4898     1  180.0000771  0.0000000  2
   4848   4846   4849   4850     1  0.0000000  3.3472000  1
   4848   4846   4849   4850     1  0.0000000  0.0000000  2
   4848   4846   4849   4850     1  180.0000771  0.3347200  3
   4848   4846   4849   4898     1  180.0000771  0.0000000  2
   4849   4898   4879   4881     1  0.0000000  1.2552000  3
   4850   4849   4898   4888     1  180.0000771  6.0668000  2
   4850   4849   4898   4888     1  180.0000771  1.4644000  4
   4851   4852   4854   4858     1  0.0000000  0.6508444  3
   4851   4852   4872   4873     1  0.0000000  1.0460000  1
   4851   4852   4872   4873     1  0.0000000  0.6694400  3
   4851   4862   4867   4868     1  0.0000000  1.0460000  1
   4851   4862   4867   4868     1  0.0000000  0.6694400  3
   4851   4869   4856   4859     1  0.0000000  1.6038667  3
   4852   4854   4855   4857     1  0.0000000  0.6508444  3
   4852   4854   4861   4863     1  0.0000000  1.0460000  1
   4852   4854   4861   4863     1  0.0000000  0.6694400  3
   4852   4851   4862   4865     1  0.0000000  0.6508444  3
   4852   4851   4862   4866     1  0.0000000  0.6508444  3
   4853   4851   4852   4854     1  0.0000000  0.6508444  3
   4853   4851   4852   4872     1  0.0000000  1.0460000  1
   4853   4851   4852   4872     1  0.0000000  0.0000000  3
   4853   4851   4852   4871     1  0.0000000  0.6508444  3
   4853   4851   4862   4867     1  0.0000000  1.0460000  1
   4853   4851   4862   4867     1  0.0000000  0.0000000  3
   4853   4851   4862   4865     1  0.0000000  0.6508444  3
   4853   4851   4862   4866     1  0.0000000  0.6508444  3
   4853   4851   4869   4856     1  0.0000000  1.6038667  3
   4854   4855   4856   4859     1  0.0000000  0.6508444  3
   4854   4855   4874   4864     1  0.0000000  1.2552000  3
   4854   4852   4872   4873     1  0.0000000  1.0460000  1
   4854   4852   4872   4873     1  0.0000000  0.6694400  3
   4855   4856   4860   4870     1  0.0000000  1.0460000  1
   4855   4856   4860   4870     1  0.0000000  0.6694400  3
   4855   4854   4861   4863     1  0.0000000  1.0460000  1
   4855   4854   4861   4863     1  0.0000000  0.6694400  3
   4855   4854   4852   4871     1  0.0000000  0.6508444  3
   4856   4855   4874   4864     1  0.0000000  1.2552000  3
   4856   4855   4854   4858     1  0.0000000  0.6508444  3
   4857   4855   4856   4860     1  0.0000000  1.0460000  1
   4857   4855   4856   4860     1  0.0000000  0.0000000  3
   4857   4855   4856   4869     1  0.0000000  1.0460000  1
   4857   4855   4856   4869     1  0.0000000  0.0000000  3
   4857   4855   4856   4859     1  0.0000000  0.6508444  3
   4857   4855   4874   4864     1  0.0000000  1.2552000  3
   4857   4855   4854   4861     1  0.0000000  1.0460000  1
   4857   4855   4854   4861     1  0.0000000  0.0000000  3
   4857   4855   4854   4858     1  0.0000000  0.6508444  3
   4858   4854   4855   4874     1  0.0000000  0.6508444  3
   4858   4854   4861   4863     1  0.0000000  0.6973333  3
   4858   4854   4852   4872     1  0.0000000  1.0460000  1
   4858   4854   4852   4872     1  0.0000000  0.0000000  3
   4858   4854   4852   4871     1  0.0000000  0.6508444  3
   4859   4856   4860   4870     1  0.0000000  0.6973333  3
   4859   4856   4855   4874     1  0.0000000  0.6508444  3
   4861   4854   4852   4871     1  0.0000000  1.0460000  1
   4861   4854   4852   4871     1  0.0000000  0.0000000  3
   4862   4851   4852   4871     1  0.0000000  0.6508444  3
   4865   4862   4867   4868     1  0.0000000  0.6973333  3
   4865   4862   4851   4869     1  0.0000000  1.0460000  1
   4865   4862   4851   4869     1  0.0000000  0.0000000  3
   4866   4862   4867   4868     1  0.0000000  0.6973333  3
   4866   4862   4851   4869     1  0.0000000  1.0460000  1
   4866   4862   4851   4869     1  0.0000000  0.0000000  3
   4869   4856   4860   4870     1  0.0000000  0.6973333  3
   4869   4851   4852   4871     1  0.0000000  1.0460000  1
   4869   4851   4852   4871     1  0.0000000  0.0000000  3
   4871   4852   4872   4873     1  0.0000000  0.6973333  3
   4875   4876   4878   4882     1  0.0000000  0.6508444  3
   4875   4876   4896   4897     1  0.0000000  1.0460000  1
   4875   4876   4896   4897     1  0.0000000  0.6694400  3
   4875   4886   4891   4892     1  0.0000000  1.0460000  1
   4875   4886   4891   4892     1  0.0000000  0.6694400  3
   4875   4893   4880   4883     1  0.0000000  1.6038667  3
   4876   4878   4879   4881     1  0.0000000  0.6508444  3
   4876   4878   4885   4887     1  0.0000000  1.0460000  1
   4876   4878   4885   4887     1  0.0000000  0.6694400  3
   4876   4875   4886   4889     1  0.0000000  0.6508444  3
   4876   4875   4886   4890     1  0.0000000  0.6508444  3
   4877   4875   4876   4878     1  0.0000000  0.6508444  3
   4877   4875   4876   4896     1  0.0000000  1.0460000  1
   4877   4875   4876   4896     1  0.0000000  0.0000000  3
   4877   4875   4876   4895     1  0.0000000  0.6508444  3
   4877   4875   4886   4891     1  0.0000000  1.0460000  1
   4877   4875   4886   4891     1  0.0000000  0.0000000  3
   4877   4875   4886   4889     1  0.0000000  0.6508444  3
   4877   4875   4886   4890     1  0.0000000  0.6508444  3
   4877   4875   4893   4880     1  0.0000000  1.6038667  3
   4878   4879   4880   4883     1  0.0000000  0.6508444  3
   4878   4879   4898   4888     1  0.0000000  1.2552000  3
   4878   4876   4896   4897     1  0.0000000  1.0460000  1
   4878   4876   4896   4897     1  0.0000000  0.6694400  3
   4879   4880   4884   4894     1  0.0000000  1.0460000  1
   4879   4880   4884   4894     1  0.0000000  0.6694400  3
   4879   4878   4885   4887     1  0.0000000  1.0460000  1
   4879   4878   4885   4887     1  0.0000000  0.6694400  3
   4879   4878   4876   4895     1  0.0000000  0.6508444  3
   4880   4879   4898   4888     1  0.0000000  1.2552000  3
   4880   4879   4878   4882     1  0.0000000  0.6508444  3
   4881   4879   4880   4884     1  0.0000000  1.0460000  1
   4881   4879   4880   4884     1  0.0000000  0.0000000  3
   4881   4879   4880   4893     1  0.0000000  1.0460000  1
   4881   4879   4880   4893     1  0.0000000  0.0000000  3
   4881   4879   4880   4883     1  0.0000000  0.6508444  3
   4881   4879   4898   4888     1  0.0000000  1.2552000  3
   4881   4879   4878   4885     1  0.0000000  1.0460000  1
   4881   4879   4878   4885     1  0.0000000  0.0000000  3
   4881   4879   4878   4882     1  0.0000000  0.6508444  3
   4882   4878   4879   4898     1  0.0000000  0.6508444  3
   4882   4878   4885   4887     1  0.0000000  0.6973333  3
   4882   4878   4876   4896     1  0.0000000  1.0460000  1
   4882   4878   4876   4896     1  0.0000000  0.0000000  3
   4882   4878   4876   4895     1  0.0000000  0.6508444  3
   4883   4880   4884   4894     1  0.0000000  0.6973333  3
   4883   4880   4879   4898     1  0.0000000  0.6508444  3
   4885   4878   4876   4895     1  0.0000000  1.0460000  1
   4885   4878   4876   4895     1  0.0000000  0.0000000  3
   4886   4875   4876   4895     1  0.0000000  0.6508444  3
   4889   4886   4891   4892     1  0.0000000  0.6973333  3
   4889   4886   4875   4893     1  0.0000000  1.0460000  1
   4889   4886   4875   4893     1  0.0000000  0.0000000  3
   4890   4886   4891   4892     1  0.0000000  0.6973333  3
   4890   4886   4875   4893     1  0.0000000  1.0460000  1
   4890   4886   4875   4893     1  0.0000000  0.0000000  3
   4893   4880   4884   4894     1  0.0000000  0.6973333  3
   4893   4875   4876   4895     1  0.0000000  1.0460000  1
   4893   4875   4876   4895     1  0.0000000  0.0000000  3
   4895   4876   4896   4897     1  0.0000000  0.6973333  3
   4899   4901   4903   4905     1  0.0000000  0.6508444  3
   4899   4901   4903   4906     1  0.0000000  0.6508444  3
   4900   4899   4901   4903     1  0.0000000  0.0000000  2
   4900   4899   4901   4902     1  0.0000000  0.0000000  2
   4900   4899   4901   4904     1  0.0000000  0.0000000  2
   4902   4901   4903   4907     1  0.0000000  0.6508444  3
   4902   4901   4903   4905     1  0.0000000  0.6508444  3
   4902   4901   4903   4906     1  0.0000000  0.6508444  3
   4903   4907   4908   4917     1  0.0000000  1.2552000  3
   4903   4907   4908   4918     1  0.0000000  1.2552000  3
   4903   4907   4909   4910     1  0.0000000  1.2552000  3
   4903   4907   4909   4912     1  0.0000000  1.2552000  3
   4904   4901   4903   4907     1  0.0000000  0.6508444  3
   4904   4901   4903   4905     1  0.0000000  0.6508444  3
   4904   4901   4903   4906     1  0.0000000  0.6508444  3
   4905   4903   4907   4908     1  0.0000000  1.2552000  3
   4905   4903   4907   4909     1  0.0000000  1.2552000  3
   4906   4903   4907   4908     1  0.0000000  1.2552000  3
   4906   4903   4907   4909     1  0.0000000  1.2552000  3
   4907   4908   4919   4920     1  0.0000000  0.6508444  3
   4907   4908   4919   4921     1  0.0000000  0.6508444  3
   4907   4909   4911   4913     1  0.0000000  0.6508444  3
   4907   4909   4911   4914     1  0.0000000  0.6508444  3
   4908   4907   4909   4910     1  0.0000000  1.2552000  3
   4908   4907   4909   4912     1  0.0000000  1.2552000  3
   4909   4907   4908   4917     1  0.0000000  1.2552000  3
   4909   4907   4908   4918     1  0.0000000  1.2552000  3
   4910   4909   4911   4915     1  0.0000000  0.6508444  3
   4910   4909   4911   4913     1  0.0000000  0.6508444  3
   4910   4909   4911   4914     1  0.0000000  0.6508444  3
   4911   4915   4947   4937     1  180.0000771  6.0668000  2
   4911   4915   4947   4937     1  180.0000771  1.4644000  4
   4912   4909   4911   4915     1  0.0000000  0.6508444  3
   4912   4909   4911   4913     1  0.0000000  0.6508444  3
   4912   4909   4911   4914     1  0.0000000  0.6508444  3
   4913   4911   4915   4916     1  0.0000000  3.3472000  1
   4913   4911   4915   4916     1  0.0000000  0.0000000  2
   4913   4911   4915   4916     1  180.0000771  0.3347200  3
   4913   4911   4915   4947     1  180.0000771  0.0000000  2
   4914   4911   4915   4916     1  0.0000000  3.3472000  1
   4914   4911   4915   4916     1  0.0000000  0.0000000  2
   4914   4911   4915   4916     1  180.0000771  0.3347200  3
   4914   4911   4915   4947     1  180.0000771  0.0000000  2
   4915   4947   4928   4930     1  0.0000000  1.2552000  3
   4916   4915   4947   4937     1  180.0000771  6.0668000  2
   4916   4915   4947   4937     1  180.0000771  1.4644000  4
   4917   4908   4919   4922     1  0.0000000  0.6508444  3
   4917   4908   4919   4920     1  0.0000000  0.6508444  3
   4917   4908   4919   4921     1  0.0000000  0.6508444  3
   4918   4908   4919   4922     1  0.0000000  0.6508444  3
   4918   4908   4919   4920     1  0.0000000  0.6508444  3
   4918   4908   4919   4921     1  0.0000000  0.6508444  3
   4919   4922   4971   4961     1  180.0000771  6.0668000  2
   4919   4922   4971   4961     1  180.0000771  1.4644000  4
   4920   4919   4922   4923     1  0.0000000  3.3472000  1
   4920   4919   4922   4923     1  0.0000000  0.0000000  2
   4920   4919   4922   4923     1  180.0000771  0.3347200  3
   4920   4919   4922   4971     1  180.0000771  0.0000000  2
   4921   4919   4922   4923     1  0.0000000  3.3472000  1
   4921   4919   4922   4923     1  0.0000000  0.0000000  2
   4921   4919   4922   4923     1  180.0000771  0.3347200  3
   4921   4919   4922   4971     1  180.0000771  0.0000000  2
   4922   4971   4952   4954     1  0.0000000  1.2552000  3
   4923   4922   4971   4961     1  180.0000771  6.0668000  2
   4923   4922   4971   4961     1  180.0000771  1.4644000  4
   4924   4925   4927   4931     1  0.0000000  0.6508444  3
   4924   4925   4945   4946     1  0.0000000  1.0460000  1
   4924   4925   4945   4946     1  0.0000000  0.6694400  3
   4924   4935   4940   4941     1  0.0000000  1.0460000  1
   4924   4935   4940   4941     1  0.0000000  0.6694400  3
   4924   4942   4929   4932     1  0.0000000  1.6038667  3
   4925   4924   4935   4938     1  0.0000000  0.6508444  3
   4925   4924   4935   4939     1  0.0000000  0.6508444  3
   4925   4927   4928   4930     1  0.0000000  0.6508444  3
   4925   4927   4934   4936     1  0.0000000  1.0460000  1
   4925   4927   4934   4936     1  0.0000000  0.6694400  3
   4926   4924   4925   4927     1  0.0000000  0.6508444  3
   4926   4924   4925   4945     1  0.0000000  1.0460000  1
   4926   4924   4925   4945     1  0.0000000  0.0000000  3
   4926   4924   4925   4944     1  0.0000000  0.6508444  3
   4926   4924   4935   4940     1  0.0000000  1.0460000  1
   4926   4924   4935   4940     1  0.0000000  0.0000000  3
   4926   4924   4935   4938     1  0.0000000  0.6508444  3
   4926   4924   4935   4939     1  0.0000000  0.6508444  3
   4926   4924   4942   4929     1  0.0000000  1.6038667  3
   4927   4925   4945   4946     1  0.0000000  1.0460000  1
   4927   4925   4945   4946     1  0.0000000  0.6694400  3
   4927   4928   4929   4932     1  0.0000000  0.6508444  3
   4927   4928   4947   4937     1  0.0000000  1.2552000  3
   4928   4927   4925   4944     1  0.0000000  0.6508444  3
   4928   4927   4934   4936     1  0.0000000  1.0460000  1
   4928   4927   4934   4936     1  0.0000000  0.6694400  3
   4928   4929   4933   4943     1  0.0000000  1.0460000  1
   4928   4929   4933   4943     1  0.0000000  0.6694400  3
   4929   4928   4927   4931     1  0.0000000  0.6508444  3
   4929   4928   4947   4937     1  0.0000000  1.2552000  3
   4930   4928   4927   4934     1  0.0000000  1.0460000  1
   4930   4928   4927   4934     1  0.0000000  0.0000000  3
   4930   4928   4927   4931     1  0.0000000  0.6508444  3
   4930   4928   4929   4933     1  0.0000000  1.0460000  1
   4930   4928   4929   4933     1  0.0000000  0.0000000  3
   4930   4928   4929   4942     1  0.0000000  1.0460000  1
   4930   4928   4929   4942     1  0.0000000  0.0000000  3
   4930   4928   4929   4932     1  0.0000000  0.6508444  3
   4930   4928   4947   4937     1  0.0000000  1.2552000  3
   4931   4927   4925   4945     1  0.0000000  1.0460000  1
   4931   4927   4925   4945     1  0.0000000  0.0000000  3
   4931   4927   4925   4944     1  0.0000000  0.6508444  3
   4931   4927   4928   4947     1  0.0000000  0.6508444  3
   4931   4927   4934   4936     1  0.0000000  0.6973333  3
   4932   4929   4928   4947     1  0.0000000  0.6508444  3
   4932   4929   4933   4943     1  0.0000000  0.6973333  3
   4934   4927   4925   4944     1  0.0000000  1.0460000  1
   4934   4927   4925   4944     1  0.0000000  0.0000000  3
   4935   4924   4925   4944     1  0.0000000  0.6508444  3
   4938   4935   4924   4942     1  0.0000000  1.0460000  1
   4938   4935   4924   4942     1  0.0000000  0.0000000  3
   4938   4935   4940   4941     1  0.0000000  0.6973333  3
   4939   4935   4924   4942     1  0.0000000  1.0460000  1
   4939   4935   4924   4942     1  0.0000000  0.0000000  3
   4939   4935   4940   4941     1  0.0000000  0.6973333  3
   4942   4924   4925   4944     1  0.0000000  1.0460000  1
   4942   4924   4925   4944     1  0.0000000  0.0000000  3
   4942   4929   4933   4943     1  0.0000000  0.6973333  3
   4944   4925   4945   4946     1  0.0000000  0.6973333  3
   4948   4949   4951   4955     1  0.0000000  0.6508444  3
   4948   4949   4969   4970     1  0.0000000  1.0460000  1
   4948   4949   4969   4970     1  0.0000000  0.6694400  3
   4948   4959   4964   4965     1  0.0000000  1.0460000  1
   4948   4959   4964   4965     1  0.0000000  0.6694400  3
   4948   4966   4953   4956     1  0.0000000  1.6038667  3
   4949   4948   4959   4962     1  0.0000000  0.6508444  3
   4949   4948   4959   4963     1  0.0000000  0.6508444  3
   4949   4951   4952   4954     1  0.0000000  0.6508444  3
   4949   4951   4958   4960     1  0.0000000  1.0460000  1
   4949   4951   4958   4960     1  0.0000000  0.6694400  3
   4950   4948   4949   4951     1  0.0000000  0.6508444  3
   4950   4948   4949   4969     1  0.0000000  1.0460000  1
   4950   4948   4949   4969     1  0.0000000  0.0000000  3
   4950   4948   4949   4968     1  0.0000000  0.6508444  3
   4950   4948   4959   4964     1  0.0000000  1.0460000  1
   4950   4948   4959   4964     1  0.0000000  0.0000000  3
   4950   4948   4959   4962     1  0.0000000  0.6508444  3
   4950   4948   4959   4963     1  0.0000000  0.6508444  3
   4950   4948   4966   4953     1  0.0000000  1.6038667  3
   4951   4949   4969   4970     1  0.0000000  1.0460000  1
   4951   4949   4969   4970     1  0.0000000  0.6694400  3
   4951   4952   4953   4956     1  0.0000000  0.6508444  3
   4951   4952   4971   4961     1  0.0000000  1.2552000  3
   4952   4951   4949   4968     1  0.0000000  0.6508444  3
   4952   4951   4958   4960     1  0.0000000  1.0460000  1
   4952   4951   4958   4960     1  0.0000000  0.6694400  3
   4952   4953   4957   4967     1  0.0000000  1.0460000  1
   4952   4953   4957   4967     1  0.0000000  0.6694400  3
   4953   4952   4951   4955     1  0.0000000  0.6508444  3
   4953   4952   4971   4961     1  0.0000000  1.2552000  3
   4954   4952   4951   4958     1  0.0000000  1.0460000  1
   4954   4952   4951   4958     1  0.0000000  0.0000000  3
   4954   4952   4951   4955     1  0.0000000  0.6508444  3
   4954   4952   4953   4957     1  0.0000000  1.0460000  1
   4954   4952   4953   4957     1  0.0000000  0.0000000  3
   4954   4952   4953   4966     1  0.0000000  1.0460000  1
   4954   4952   4953   4966     1  0.0000000  0.0000000  3
   4954   4952   4953   4956     1  0.0000000  0.6508444  3
   4954   4952   4971   4961     1  0.0000000  1.2552000  3
   4955   4951   4949   4969     1  0.0000000  1.0460000  1
   4955   4951   4949   4969     1  0.0000000  0.0000000  3
   4955   4951   4949   4968     1  0.0000000  0.6508444  3
   4955   4951   4952   4971     1  0.0000000  0.6508444  3
   4955   4951   4958   4960     1  0.0000000  0.6973333  3
   4956   4953   4952   4971     1  0.0000000  0.6508444  3
   4956   4953   4957   4967     1  0.0000000  0.6973333  3
   4958   4951   4949   4968     1  0.0000000  1.0460000  1
   4958   4951   4949   4968     1  0.0000000  0.0000000  3
   4959   4948   4949   4968     1  0.0000000  0.6508444  3
   4962   4959   4948   4966     1  0.0000000  1.0460000  1
   4962   4959   4948   4966     1  0.0000000  0.0000000  3
   4962   4959   4964   4965     1  0.0000000  0.6973333  3
   4963   4959   4948   4966     1  0.0000000  1.0460000  1
   4963   4959   4948   4966     1  0.0000000  0.0000000  3
   4963   4959   4964   4965     1  0.0000000  0.6973333  3
   4966   4948   4949   4968     1  0.0000000  1.0460000  1
   4966   4948   4949   4968     1  0.0000000  0.0000000  3
   4966   4953   4957   4967     1  0.0000000  0.6973333  3
   4968   4949   4969   4970     1  0.0000000  0.6973333  3
   4972   4974   4976   4978     1  0.0000000  0.6508444  3
   4972   4974   4976   4979     1  0.0000000  0.6508444  3
   4973   4972   4974   4976     1  0.0000000  0.0000000  2
   4973   4972   4974   4975     1  0.0000000  0.0000000  2
   4973   4972   4974   4977     1  0.0000000  0.0000000  2
   4975   4974   4976   4980     1  0.0000000  0.6508444  3
   4975   4974   4976   4978     1  0.0000000  0.6508444  3
   4975   4974   4976   4979     1  0.0000000  0.6508444  3
   4976   4980   4981   4990     1  0.0000000  1.2552000  3
   4976   4980   4981   4991     1  0.0000000  1.2552000  3
   4976   4980   4982   4983     1  0.0000000  1.2552000  3
   4976   4980   4982   4985     1  0.0000000  1.2552000  3
   4977   4974   4976   4980     1  0.0000000  0.6508444  3
   4977   4974   4976   4978     1  0.0000000  0.6508444  3
   4977   4974   4976   4979     1  0.0000000  0.6508444  3
   4978   4976   4980   4981     1  0.0000000  1.2552000  3
   4978   4976   4980   4982     1  0.0000000  1.2552000  3
   4979   4976   4980   4981     1  0.0000000  1.2552000  3
   4979   4976   4980   4982     1  0.0000000  1.2552000  3
   4980   4981   4992   4993     1  0.0000000  0.6508444  3
   4980   4981   4992   4994     1  0.0000000  0.6508444  3
   4980   4982   4984   4986     1  0.0000000  0.6508444  3
   4980   4982   4984   4987     1  0.0000000  0.6508444  3
   4981   4980   4982   4983     1  0.0000000  1.2552000  3
   4981   4980   4982   4985     1  0.0000000  1.2552000  3
   4982   4980   4981   4990     1  0.0000000  1.2552000  3
   4982   4980   4981   4991     1  0.0000000  1.2552000  3
   4983   4982   4984   4988     1  0.0000000  0.6508444  3
   4983   4982   4984   4986     1  0.0000000  0.6508444  3
   4983   4982   4984   4987     1  0.0000000  0.6508444  3
   4984   4988   5020   5010     1  180.0000771  6.0668000  2
   4984   4988   5020   5010     1  180.0000771  1.4644000  4
   4985   4982   4984   4988     1  0.0000000  0.6508444  3
   4985   4982   4984   4986     1  0.0000000  0.6508444  3
   4985   4982   4984   4987     1  0.0000000  0.6508444  3
   4986   4984   4988   4989     1  0.0000000  3.3472000  1
   4986   4984   4988   4989     1  0.0000000  0.0000000  2
   4986   4984   4988   4989     1  180.0000771  0.3347200  3
   4986   4984   4988   5020     1  180.0000771  0.0000000  2
   4987   4984   4988   4989     1  0.0000000  3.3472000  1
   4987   4984   4988   4989     1  0.0000000  0.0000000  2
   4987   4984   4988   4989     1  180.0000771  0.3347200  3
   4987   4984   4988   5020     1  180.0000771  0.0000000  2
   4988   5020   5001   5003     1  0.0000000  1.2552000  3
   4989   4988   5020   5010     1  180.0000771  6.0668000  2
   4989   4988   5020   5010     1  180.0000771  1.4644000  4
   4990   4981   4992   4995     1  0.0000000  0.6508444  3
   4990   4981   4992   4993     1  0.0000000  0.6508444  3
   4990   4981   4992   4994     1  0.0000000  0.6508444  3
   4991   4981   4992   4995     1  0.0000000  0.6508444  3
   4991   4981   4992   4993     1  0.0000000  0.6508444  3
   4991   4981   4992   4994     1  0.0000000  0.6508444  3
   4992   4995   5044   5034     1  180.0000771  6.0668000  2
   4992   4995   5044   5034     1  180.0000771  1.4644000  4
   4993   4992   4995   4996     1  0.0000000  3.3472000  1
   4993   4992   4995   4996     1  0.0000000  0.0000000  2
   4993   4992   4995   4996     1  180.0000771  0.3347200  3
   4993   4992   4995   5044     1  180.0000771  0.0000000  2
   4994   4992   4995   4996     1  0.0000000  3.3472000  1
   4994   4992   4995   4996     1  0.0000000  0.0000000  2
   4994   4992   4995   4996     1  180.0000771  0.3347200  3
   4994   4992   4995   5044     1  180.0000771  0.0000000  2
   4995   5044   5025   5027     1  0.0000000  1.2552000  3
   4996   4995   5044   5034     1  180.0000771  6.0668000  2
   4996   4995   5044   5034     1  180.0000771  1.4644000  4
   4997   4998   5000   5004     1  0.0000000  0.6508444  3
   4997   4998   5018   5019     1  0.0000000  1.0460000  1
   4997   4998   5018   5019     1  0.0000000  0.6694400  3
   4997   5008   5013   5014     1  0.0000000  1.0460000  1
   4997   5008   5013   5014     1  0.0000000  0.6694400  3
   4997   5015   5002   5005     1  0.0000000  1.6038667  3
   4998   5000   5001   5003     1  0.0000000  0.6508444  3
   4998   5000   5007   5009     1  0.0000000  1.0460000  1
   4998   5000   5007   5009     1  0.0000000  0.6694400  3
   4998   4997   5008   5011     1  0.0000000  0.6508444  3
   4998   4997   5008   5012     1  0.0000000  0.6508444  3
   4999   4997   4998   5000     1  0.0000000  0.6508444  3
   4999   4997   4998   5018     1  0.0000000  1.0460000  1
   4999   4997   4998   5018     1  0.0000000  0.0000000  3
   4999   4997   4998   5017     1  0.0000000  0.6508444  3
   4999   4997   5008   5013     1  0.0000000  1.0460000  1
   4999   4997   5008   5013     1  0.0000000  0.0000000  3
   4999   4997   5008   5011     1  0.0000000  0.6508444  3
   4999   4997   5008   5012     1  0.0000000  0.6508444  3
   4999   4997   5015   5002     1  0.0000000  1.6038667  3
   5000   5001   5002   5005     1  0.0000000  0.6508444  3
   5000   5001   5020   5010     1  0.0000000  1.2552000  3
   5000   4998   5018   5019     1  0.0000000  1.0460000  1
   5000   4998   5018   5019     1  0.0000000  0.6694400  3
   5001   5002   5006   5016     1  0.0000000  1.0460000  1
   5001   5002   5006   5016     1  0.0000000  0.6694400  3
   5001   5000   5007   5009     1  0.0000000  1.0460000  1
   5001   5000   5007   5009     1  0.0000000  0.6694400  3
   5001   5000   4998   5017     1  0.0000000  0.6508444  3
   5002   5001   5020   5010     1  0.0000000  1.2552000  3
   5002   5001   5000   5004     1  0.0000000  0.6508444  3
   5003   5001   5002   5006     1  0.0000000  1.0460000  1
   5003   5001   5002   5006     1  0.0000000  0.0000000  3
   5003   5001   5002   5015     1  0.0000000  1.0460000  1
   5003   5001   5002   5015     1  0.0000000  0.0000000  3
   5003   5001   5002   5005     1  0.0000000  0.6508444  3
   5003   5001   5020   5010     1  0.0000000  1.2552000  3
   5003   5001   5000   5007     1  0.0000000  1.0460000  1
   5003   5001   5000   5007     1  0.0000000  0.0000000  3
   5003   5001   5000   5004     1  0.0000000  0.6508444  3
   5004   5000   5001   5020     1  0.0000000  0.6508444  3
   5004   5000   5007   5009     1  0.0000000  0.6973333  3
   5004   5000   4998   5018     1  0.0000000  1.0460000  1
   5004   5000   4998   5018     1  0.0000000  0.0000000  3
   5004   5000   4998   5017     1  0.0000000  0.6508444  3
   5005   5002   5006   5016     1  0.0000000  0.6973333  3
   5005   5002   5001   5020     1  0.0000000  0.6508444  3
   5007   5000   4998   5017     1  0.0000000  1.0460000  1
   5007   5000   4998   5017     1  0.0000000  0.0000000  3
   5008   4997   4998   5017     1  0.0000000  0.6508444  3
   5011   5008   5013   5014     1  0.0000000  0.6973333  3
   5011   5008   4997   5015     1  0.0000000  1.0460000  1
   5011   5008   4997   5015     1  0.0000000  0.0000000  3
   5012   5008   5013   5014     1  0.0000000  0.6973333  3
   5012   5008   4997   5015     1  0.0000000  1.0460000  1
   5012   5008   4997   5015     1  0.0000000  0.0000000  3
   5015   5002   5006   5016     1  0.0000000  0.6973333  3
   5015   4997   4998   5017     1  0.0000000  1.0460000  1
   5015   4997   4998   5017     1  0.0000000  0.0000000  3
   5017   4998   5018   5019     1  0.0000000  0.6973333  3
   5021   5022   5024   5028     1  0.0000000  0.6508444  3
   5021   5022   5042   5043     1  0.0000000  1.0460000  1
   5021   5022   5042   5043     1  0.0000000  0.6694400  3
   5021   5032   5037   5038     1  0.0000000  1.0460000  1
   5021   5032   5037   5038     1  0.0000000  0.6694400  3
   5021   5039   5026   5029     1  0.0000000  1.6038667  3
   5022   5024   5025   5027     1  0.0000000  0.6508444  3
   5022   5024   5031   5033     1  0.0000000  1.0460000  1
   5022   5024   5031   5033     1  0.0000000  0.6694400  3
   5022   5021   5032   5035     1  0.0000000  0.6508444  3
   5022   5021   5032   5036     1  0.0000000  0.6508444  3
   5023   5021   5022   5024     1  0.0000000  0.6508444  3
   5023   5021   5022   5042     1  0.0000000  1.0460000  1
   5023   5021   5022   5042     1  0.0000000  0.0000000  3
   5023   5021   5022   5041     1  0.0000000  0.6508444  3
   5023   5021   5032   5037     1  0.0000000  1.0460000  1
   5023   5021   5032   5037     1  0.0000000  0.0000000  3
   5023   5021   5032   5035     1  0.0000000  0.6508444  3
   5023   5021   5032   5036     1  0.0000000  0.6508444  3
   5023   5021   5039   5026     1  0.0000000  1.6038667  3
   5024   5025   5026   5029     1  0.0000000  0.6508444  3
   5024   5025   5044   5034     1  0.0000000  1.2552000  3
   5024   5022   5042   5043     1  0.0000000  1.0460000  1
   5024   5022   5042   5043     1  0.0000000  0.6694400  3
   5025   5026   5030   5040     1  0.0000000  1.0460000  1
   5025   5026   5030   5040     1  0.0000000  0.6694400  3
   5025   5024   5031   5033     1  0.0000000  1.0460000  1
   5025   5024   5031   5033     1  0.0000000  0.6694400  3
   5025   5024   5022   5041     1  0.0000000  0.6508444  3
   5026   5025   5044   5034     1  0.0000000  1.2552000  3
   5026   5025   5024   5028     1  0.0000000  0.6508444  3
   5027   5025   5026   5030     1  0.0000000  1.0460000  1
   5027   5025   5026   5030     1  0.0000000  0.0000000  3
   5027   5025   5026   5039     1  0.0000000  1.0460000  1
   5027   5025   5026   5039     1  0.0000000  0.0000000  3
   5027   5025   5026   5029     1  0.0000000  0.6508444  3
   5027   5025   5044   5034     1  0.0000000  1.2552000  3
   5027   5025   5024   5031     1  0.0000000  1.0460000  1
   5027   5025   5024   5031     1  0.0000000  0.0000000  3
   5027   5025   5024   5028     1  0.0000000  0.6508444  3
   5028   5024   5025   5044     1  0.0000000  0.6508444  3
   5028   5024   5031   5033     1  0.0000000  0.6973333  3
   5028   5024   5022   5042     1  0.0000000  1.0460000  1
   5028   5024   5022   5042     1  0.0000000  0.0000000  3
   5028   5024   5022   5041     1  0.0000000  0.6508444  3
   5029   5026   5030   5040     1  0.0000000  0.6973333  3
   5029   5026   5025   5044     1  0.0000000  0.6508444  3
   5031   5024   5022   5041     1  0.0000000  1.0460000  1
   5031   5024   5022   5041     1  0.0000000  0.0000000  3
   5032   5021   5022   5041     1  0.0000000  0.6508444  3
   5035   5032   5037   5038     1  0.0000000  0.6973333  3
   5035   5032   5021   5039     1  0.0000000  1.0460000  1
   5035   5032   5021   5039     1  0.0000000  0.0000000  3
   5036   5032   5037   5038     1  0.0000000  0.6973333  3
   5036   5032   5021   5039     1  0.0000000  1.0460000  1
   5036   5032   5021   5039     1  0.0000000  0.0000000  3
   5039   5026   5030   5040     1  0.0000000  0.6973333  3
   5039   5021   5022   5041     1  0.0000000  1.0460000  1
   5039   5021   5022   5041     1  0.0000000  0.0000000  3
   5041   5022   5042   5043     1  0.0000000  0.6973333  3
   5045   5047   5049   5051     1  0.0000000  0.6508444  3
   5045   5047   5049   5052     1  0.0000000  0.6508444  3
   5046   5045   5047   5049     1  0.0000000  0.0000000  2
   5046   5045   5047   5048     1  0.0000000  0.0000000  2
   5046   5045   5047   5050     1  0.0000000  0.0000000  2
   5048   5047   5049   5053     1  0.0000000  0.6508444  3
   5048   5047   5049   5051     1  0.0000000  0.6508444  3
   5048   5047   5049   5052     1  0.0000000  0.6508444  3
   5049   5053   5054   5063     1  0.0000000  1.2552000  3
   5049   5053   5054   5064     1  0.0000000  1.2552000  3
   5049   5053   5055   5056     1  0.0000000  1.2552000  3
   5049   5053   5055   5058     1  0.0000000  1.2552000  3
   5050   5047   5049   5053     1  0.0000000  0.6508444  3
   5050   5047   5049   5051     1  0.0000000  0.6508444  3
   5050   5047   5049   5052     1  0.0000000  0.6508444  3
   5051   5049   5053   5054     1  0.0000000  1.2552000  3
   5051   5049   5053   5055     1  0.0000000  1.2552000  3
   5052   5049   5053   5054     1  0.0000000  1.2552000  3
   5052   5049   5053   5055     1  0.0000000  1.2552000  3
   5053   5054   5065   5066     1  0.0000000  0.6508444  3
   5053   5054   5065   5067     1  0.0000000  0.6508444  3
   5053   5055   5057   5059     1  0.0000000  0.6508444  3
   5053   5055   5057   5060     1  0.0000000  0.6508444  3
   5054   5053   5055   5056     1  0.0000000  1.2552000  3
   5054   5053   5055   5058     1  0.0000000  1.2552000  3
   5055   5053   5054   5063     1  0.0000000  1.2552000  3
   5055   5053   5054   5064     1  0.0000000  1.2552000  3
   5056   5055   5057   5061     1  0.0000000  0.6508444  3
   5056   5055   5057   5059     1  0.0000000  0.6508444  3
   5056   5055   5057   5060     1  0.0000000  0.6508444  3
   5057   5061   5093   5083     1  180.0000771  6.0668000  2
   5057   5061   5093   5083     1  180.0000771  1.4644000  4
   5058   5055   5057   5061     1  0.0000000  0.6508444  3
   5058   5055   5057   5059     1  0.0000000  0.6508444  3
   5058   5055   5057   5060     1  0.0000000  0.6508444  3
   5059   5057   5061   5062     1  0.0000000  3.3472000  1
   5059   5057   5061   5062     1  0.0000000  0.0000000  2
   5059   5057   5061   5062     1  180.0000771  0.3347200  3
   5059   5057   5061   5093     1  180.0000771  0.0000000  2
   5060   5057   5061   5062     1  0.0000000  3.3472000  1
   5060   5057   5061   5062     1  0.0000000  0.0000000  2
   5060   5057   5061   5062     1  180.0000771  0.3347200  3
   5060   5057   5061   5093     1  180.0000771  0.0000000  2
   5061   5093   5074   5076     1  0.0000000  1.2552000  3
   5062   5061   5093   5083     1  180.0000771  6.0668000  2
   5062   5061   5093   5083     1  180.0000771  1.4644000  4
   5063   5054   5065   5068     1  0.0000000  0.6508444  3
   5063   5054   5065   5066     1  0.0000000  0.6508444  3
   5063   5054   5065   5067     1  0.0000000  0.6508444  3
   5064   5054   5065   5068     1  0.0000000  0.6508444  3
   5064   5054   5065   5066     1  0.0000000  0.6508444  3
   5064   5054   5065   5067     1  0.0000000  0.6508444  3
   5065   5068   5117   5107     1  180.0000771  6.0668000  2
   5065   5068   5117   5107     1  180.0000771  1.4644000  4
   5066   5065   5068   5069     1  0.0000000  3.3472000  1
   5066   5065   5068   5069     1  0.0000000  0.0000000  2
   5066   5065   5068   5069     1  180.0000771  0.3347200  3
   5066   5065   5068   5117     1  180.0000771  0.0000000  2
   5067   5065   5068   5069     1  0.0000000  3.3472000  1
   5067   5065   5068   5069     1  0.0000000  0.0000000  2
   5067   5065   5068   5069     1  180.0000771  0.3347200  3
   5067   5065   5068   5117     1  180.0000771  0.0000000  2
   5068   5117   5098   5100     1  0.0000000  1.2552000  3
   5069   5068   5117   5107     1  180.0000771  6.0668000  2
   5069   5068   5117   5107     1  180.0000771  1.4644000  4
   5070   5071   5073   5077     1  0.0000000  0.6508444  3
   5070   5071   5091   5092     1  0.0000000  1.0460000  1
   5070   5071   5091   5092     1  0.0000000  0.6694400  3
   5070   5081   5086   5087     1  0.0000000  1.0460000  1
   5070   5081   5086   5087     1  0.0000000  0.6694400  3
   5070   5088   5075   5078     1  0.0000000  1.6038667  3
   5071   5070   5081   5084     1  0.0000000  0.6508444  3
   5071   5070   5081   5085     1  0.0000000  0.6508444  3
   5071   5073   5074   5076     1  0.0000000  0.6508444  3
   5071   5073   5080   5082     1  0.0000000  1.0460000  1
   5071   5073   5080   5082     1  0.0000000  0.6694400  3
   5072   5070   5071   5073     1  0.0000000  0.6508444  3
   5072   5070   5071   5091     1  0.0000000  1.0460000  1
   5072   5070   5071   5091     1  0.0000000  0.0000000  3
   5072   5070   5071   5090     1  0.0000000  0.6508444  3
   5072   5070   5081   5086     1  0.0000000  1.0460000  1
   5072   5070   5081   5086     1  0.0000000  0.0000000  3
   5072   5070   5081   5084     1  0.0000000  0.6508444  3
   5072   5070   5081   5085     1  0.0000000  0.6508444  3
   5072   5070   5088   5075     1  0.0000000  1.6038667  3
   5073   5071   5091   5092     1  0.0000000  1.0460000  1
   5073   5071   5091   5092     1  0.0000000  0.6694400  3
   5073   5074   5075   5078     1  0.0000000  0.6508444  3
   5073   5074   5093   5083     1  0.0000000  1.2552000  3
   5074   5073   5071   5090     1  0.0000000  0.6508444  3
   5074   5073   5080   5082     1  0.0000000  1.0460000  1
   5074   5073   5080   5082     1  0.0000000  0.6694400  3
   5074   5075   5079   5089     1  0.0000000  1.0460000  1
   5074   5075   5079   5089     1  0.0000000  0.6694400  3
   5075   5074   5073   5077     1  0.0000000  0.6508444  3
   5075   5074   5093   5083     1  0.0000000  1.2552000  3
   5076   5074   5073   5080     1  0.0000000  1.0460000  1
   5076   5074   5073   5080     1  0.0000000  0.0000000  3
   5076   5074   5073   5077     1  0.0000000  0.6508444  3
   5076   5074   5075   5079     1  0.0000000  1.0460000  1
   5076   5074   5075   5079     1  0.0000000  0.0000000  3
   5076   5074   5075   5088     1  0.0000000  1.0460000  1
   5076   5074   5075   5088     1  0.0000000  0.0000000  3
   5076   5074   5075   5078     1  0.0000000  0.6508444  3
   5076   5074   5093   5083     1  0.0000000  1.2552000  3
   5077   5073   5071   5091     1  0.0000000  1.0460000  1
   5077   5073   5071   5091     1  0.0000000  0.0000000  3
   5077   5073   5071   5090     1  0.0000000  0.6508444  3
   5077   5073   5074   5093     1  0.0000000  0.6508444  3
   5077   5073   5080   5082     1  0.0000000  0.6973333  3
   5078   5075   5074   5093     1  0.0000000  0.6508444  3
   5078   5075   5079   5089     1  0.0000000  0.6973333  3
   5080   5073   5071   5090     1  0.0000000  1.0460000  1
   5080   5073   5071   5090     1  0.0000000  0.0000000  3
   5081   5070   5071   5090     1  0.0000000  0.6508444  3
   5084   5081   5070   5088     1  0.0000000  1.0460000  1
   5084   5081   5070   5088     1  0.0000000  0.0000000  3
   5084   5081   5086   5087     1  0.0000000  0.6973333  3
   5085   5081   5070   5088     1  0.0000000  1.0460000  1
   5085   5081   5070   5088     1  0.0000000  0.0000000  3
   5085   5081   5086   5087     1  0.0000000  0.6973333  3
   5088   5070   5071   5090     1  0.0000000  1.0460000  1
   5088   5070   5071   5090     1  0.0000000  0.0000000  3
   5088   5075   5079   5089     1  0.0000000  0.6973333  3
   5090   5071   5091   5092     1  0.0000000  0.6973333  3
   5094   5095   5097   5101     1  0.0000000  0.6508444  3
   5094   5095   5115   5116     1  0.0000000  1.0460000  1
   5094   5095   5115   5116     1  0.0000000  0.6694400  3
   5094   5105   5110   5111     1  0.0000000  1.0460000  1
   5094   5105   5110   5111     1  0.0000000  0.6694400  3
   5094   5112   5099   5102     1  0.0000000  1.6038667  3
   5095   5094   5105   5108     1  0.0000000  0.6508444  3
   5095   5094   5105   5109     1  0.0000000  0.6508444  3
   5095   5097   5098   5100     1  0.0000000  0.6508444  3
   5095   5097   5104   5106     1  0.0000000  1.0460000  1
   5095   5097   5104   5106     1  0.0000000  0.6694400  3
   5096   5094   5095   5097     1  0.0000000  0.6508444  3
   5096   5094   5095   5115     1  0.0000000  1.0460000  1
   5096   5094   5095   5115     1  0.0000000  0.0000000  3
   5096   5094   5095   5114     1  0.0000000  0.6508444  3
   5096   5094   5105   5110     1  0.0000000  1.0460000  1
   5096   5094   5105   5110     1  0.0000000  0.0000000  3
   5096   5094   5105   5108     1  0.0000000  0.6508444  3
   5096   5094   5105   5109     1  0.0000000  0.6508444  3
   5096   5094   5112   5099     1  0.0000000  1.6038667  3
   5097   5095   5115   5116     1  0.0000000  1.0460000  1
   5097   5095   5115   5116     1  0.0000000  0.6694400  3
   5097   5098   5099   5102     1  0.0000000  0.6508444  3
   5097   5098   5117   5107     1  0.0000000  1.2552000  3
   5098   5097   5095   5114     1  0.0000000  0.6508444  3
   5098   5097   5104   5106     1  0.0000000  1.0460000  1
   5098   5097   5104   5106     1  0.0000000  0.6694400  3
   5098   5099   5103   5113     1  0.0000000  1.0460000  1
   5098   5099   5103   5113     1  0.0000000  0.6694400  3
   5099   5098   5097   5101     1  0.0000000  0.6508444  3
   5099   5098   5117   5107     1  0.0000000  1.2552000  3
   5100   5098   5097   5104     1  0.0000000  1.0460000  1
   5100   5098   5097   5104     1  0.0000000  0.0000000  3
   5100   5098   5097   5101     1  0.0000000  0.6508444  3
   5100   5098   5099   5103     1  0.0000000  1.0460000  1
   5100   5098   5099   5103     1  0.0000000  0.0000000  3
   5100   5098   5099   5112     1  0.0000000  1.0460000  1
   5100   5098   5099   5112     1  0.0000000  0.0000000  3
   5100   5098   5099   5102     1  0.0000000  0.6508444  3
   5100   5098   5117   5107     1  0.0000000  1.2552000  3
   5101   5097   5095   5115     1  0.0000000  1.0460000  1
   5101   5097   5095   5115     1  0.0000000  0.0000000  3
   5101   5097   5095   5114     1  0.0000000  0.6508444  3
   5101   5097   5098   5117     1  0.0000000  0.6508444  3
   5101   5097   5104   5106     1  0.0000000  0.6973333  3
   5102   5099   5098   5117     1  0.0000000  0.6508444  3
   5102   5099   5103   5113     1  0.0000000  0.6973333  3
   5104   5097   5095   5114     1  0.0000000  1.0460000  1
   5104   5097   5095   5114     1  0.0000000  0.0000000  3
   5105   5094   5095   5114     1  0.0000000  0.6508444  3
   5108   5105   5094   5112     1  0.0000000  1.0460000  1
   5108   5105   5094   5112     1  0.0000000  0.0000000  3
   5108   5105   5110   5111     1  0.0000000  0.6973333  3
   5109   5105   5094   5112     1  0.0000000  1.0460000  1
   5109   5105   5094   5112     1  0.0000000  0.0000000  3
   5109   5105   5110   5111     1  0.0000000  0.6973333  3
   5112   5094   5095   5114     1  0.0000000  1.0460000  1
   5112   5094   5095   5114     1  0.0000000  0.0000000  3
   5112   5099   5103   5113     1  0.0000000  0.6973333  3
   5114   5095   5115   5116     1  0.0000000  0.6973333  3
   5118   5120   5122   5124     1  0.0000000  0.6508444  3
   5118   5120   5122   5125     1  0.0000000  0.6508444  3
   5119   5118   5120   5122     1  0.0000000  0.0000000  2
   5119   5118   5120   5121     1  0.0000000  0.0000000  2
   5119   5118   5120   5123     1  0.0000000  0.0000000  2
   5121   5120   5122   5126     1  0.0000000  0.6508444  3
   5121   5120   5122   5124     1  0.0000000  0.6508444  3
   5121   5120   5122   5125     1  0.0000000  0.6508444  3
   5122   5126   5127   5136     1  0.0000000  1.2552000  3
   5122   5126   5127   5137     1  0.0000000  1.2552000  3
   5122   5126   5128   5129     1  0.0000000  1.2552000  3
   5122   5126   5128   5131     1  0.0000000  1.2552000  3
   5123   5120   5122   5126     1  0.0000000  0.6508444  3
   5123   5120   5122   5124     1  0.0000000  0.6508444  3
   5123   5120   5122   5125     1  0.0000000  0.6508444  3
   5124   5122   5126   5127     1  0.0000000  1.2552000  3
   5124   5122   5126   5128     1  0.0000000  1.2552000  3
   5125   5122   5126   5127     1  0.0000000  1.2552000  3
   5125   5122   5126   5128     1  0.0000000  1.2552000  3
   5126   5127   5138   5139     1  0.0000000  0.6508444  3
   5126   5127   5138   5140     1  0.0000000  0.6508444  3
   5126   5128   5130   5132     1  0.0000000  0.6508444  3
   5126   5128   5130   5133     1  0.0000000  0.6508444  3
   5127   5126   5128   5129     1  0.0000000  1.2552000  3
   5127   5126   5128   5131     1  0.0000000  1.2552000  3
   5128   5126   5127   5136     1  0.0000000  1.2552000  3
   5128   5126   5127   5137     1  0.0000000  1.2552000  3
   5129   5128   5130   5134     1  0.0000000  0.6508444  3
   5129   5128   5130   5132     1  0.0000000  0.6508444  3
   5129   5128   5130   5133     1  0.0000000  0.6508444  3
   5130   5134   5166   5156     1  180.0000771  6.0668000  2
   5130   5134   5166   5156     1  180.0000771  1.4644000  4
   5131   5128   5130   5134     1  0.0000000  0.6508444  3
   5131   5128   5130   5132     1  0.0000000  0.6508444  3
   5131   5128   5130   5133     1  0.0000000  0.6508444  3
   5132   5130   5134   5135     1  0.0000000  3.3472000  1
   5132   5130   5134   5135     1  0.0000000  0.0000000  2
   5132   5130   5134   5135     1  180.0000771  0.3347200  3
   5132   5130   5134   5166     1  180.0000771  0.0000000  2
   5133   5130   5134   5135     1  0.0000000  3.3472000  1
   5133   5130   5134   5135     1  0.0000000  0.0000000  2
   5133   5130   5134   5135     1  180.0000771  0.3347200  3
   5133   5130   5134   5166     1  180.0000771  0.0000000  2
   5134   5166   5147   5149     1  0.0000000  1.2552000  3
   5135   5134   5166   5156     1  180.0000771  6.0668000  2
   5135   5134   5166   5156     1  180.0000771  1.4644000  4
   5136   5127   5138   5141     1  0.0000000  0.6508444  3
   5136   5127   5138   5139     1  0.0000000  0.6508444  3
   5136   5127   5138   5140     1  0.0000000  0.6508444  3
   5137   5127   5138   5141     1  0.0000000  0.6508444  3
   5137   5127   5138   5139     1  0.0000000  0.6508444  3
   5137   5127   5138   5140     1  0.0000000  0.6508444  3
   5138   5141   5190   5180     1  180.0000771  6.0668000  2
   5138   5141   5190   5180     1  180.0000771  1.4644000  4
   5139   5138   5141   5142     1  0.0000000  3.3472000  1
   5139   5138   5141   5142     1  0.0000000  0.0000000  2
   5139   5138   5141   5142     1  180.0000771  0.3347200  3
   5139   5138   5141   5190     1  180.0000771  0.0000000  2
   5140   5138   5141   5142     1  0.0000000  3.3472000  1
   5140   5138   5141   5142     1  0.0000000  0.0000000  2
   5140   5138   5141   5142     1  180.0000771  0.3347200  3
   5140   5138   5141   5190     1  180.0000771  0.0000000  2
   5141   5190   5171   5173     1  0.0000000  1.2552000  3
   5142   5141   5190   5180     1  180.0000771  6.0668000  2
   5142   5141   5190   5180     1  180.0000771  1.4644000  4
   5143   5144   5146   5150     1  0.0000000  0.6508444  3
   5143   5144   5164   5165     1  0.0000000  1.0460000  1
   5143   5144   5164   5165     1  0.0000000  0.6694400  3
   5143   5154   5159   5160     1  0.0000000  1.0460000  1
   5143   5154   5159   5160     1  0.0000000  0.6694400  3
   5143   5161   5148   5151     1  0.0000000  1.6038667  3
   5144   5146   5147   5149     1  0.0000000  0.6508444  3
   5144   5146   5153   5155     1  0.0000000  1.0460000  1
   5144   5146   5153   5155     1  0.0000000  0.6694400  3
   5144   5143   5154   5157     1  0.0000000  0.6508444  3
   5144   5143   5154   5158     1  0.0000000  0.6508444  3
   5145   5143   5144   5146     1  0.0000000  0.6508444  3
   5145   5143   5144   5164     1  0.0000000  1.0460000  1
   5145   5143   5144   5164     1  0.0000000  0.0000000  3
   5145   5143   5144   5163     1  0.0000000  0.6508444  3
   5145   5143   5154   5159     1  0.0000000  1.0460000  1
   5145   5143   5154   5159     1  0.0000000  0.0000000  3
   5145   5143   5154   5157     1  0.0000000  0.6508444  3
   5145   5143   5154   5158     1  0.0000000  0.6508444  3
   5145   5143   5161   5148     1  0.0000000  1.6038667  3
   5146   5147   5148   5151     1  0.0000000  0.6508444  3
   5146   5147   5166   5156     1  0.0000000  1.2552000  3
   5146   5144   5164   5165     1  0.0000000  1.0460000  1
   5146   5144   5164   5165     1  0.0000000  0.6694400  3
   5147   5148   5152   5162     1  0.0000000  1.0460000  1
   5147   5148   5152   5162     1  0.0000000  0.6694400  3
   5147   5146   5153   5155     1  0.0000000  1.0460000  1
   5147   5146   5153   5155     1  0.0000000  0.6694400  3
   5147   5146   5144   5163     1  0.0000000  0.6508444  3
   5148   5147   5166   5156     1  0.0000000  1.2552000  3
   5148   5147   5146   5150     1  0.0000000  0.6508444  3
   5149   5147   5148   5152     1  0.0000000  1.0460000  1
   5149   5147   5148   5152     1  0.0000000  0.0000000  3
   5149   5147   5148   5161     1  0.0000000  1.0460000  1
   5149   5147   5148   5161     1  0.0000000  0.0000000  3
   5149   5147   5148   5151     1  0.0000000  0.6508444  3
   5149   5147   5166   5156     1  0.0000000  1.2552000  3
   5149   5147   5146   5153     1  0.0000000  1.0460000  1
   5149   5147   5146   5153     1  0.0000000  0.0000000  3
   5149   5147   5146   5150     1  0.0000000  0.6508444  3
   5150   5146   5147   5166     1  0.0000000  0.6508444  3
   5150   5146   5153   5155     1  0.0000000  0.6973333  3
   5150   5146   5144   5164     1  0.0000000  1.0460000  1
   5150   5146   5144   5164     1  0.0000000  0.0000000  3
   5150   5146   5144   5163     1  0.0000000  0.6508444  3
   5151   5148   5152   5162     1  0.0000000  0.6973333  3
   5151   5148   5147   5166     1  0.0000000  0.6508444  3
   5153   5146   5144   5163     1  0.0000000  1.0460000  1
   5153   5146   5144   5163     1  0.0000000  0.0000000  3
   5154   5143   5144   5163     1  0.0000000  0.6508444  3
   5157   5154   5159   5160     1  0.0000000  0.6973333  3
   5157   5154   5143   5161     1  0.0000000  1.0460000  1
   5157   5154   5143   5161     1  0.0000000  0.0000000  3
   5158   5154   5159   5160     1  0.0000000  0.6973333  3
   5158   5154   5143   5161     1  0.0000000  1.0460000  1
   5158   5154   5143   5161     1  0.0000000  0.0000000  3
   5161   5148   5152   5162     1  0.0000000  0.6973333  3
   5161   5143   5144   5163     1  0.0000000  1.0460000  1
   5161   5143   5144   5163     1  0.0000000  0.0000000  3
   5163   5144   5164   5165     1  0.0000000  0.6973333  3
   5167   5168   5170   5174     1  0.0000000  0.6508444  3
   5167   5168   5188   5189     1  0.0000000  1.0460000  1
   5167   5168   5188   5189     1  0.0000000  0.6694400  3
   5167   5178   5183   5184     1  0.0000000  1.0460000  1
   5167   5178   5183   5184     1  0.0000000  0.6694400  3
   5167   5185   5172   5175     1  0.0000000  1.6038667  3
   5168   5170   5171   5173     1  0.0000000  0.6508444  3
   5168   5170   5177   5179     1  0.0000000  1.0460000  1
   5168   5170   5177   5179     1  0.0000000  0.6694400  3
   5168   5167   5178   5181     1  0.0000000  0.6508444  3
   5168   5167   5178   5182     1  0.0000000  0.6508444  3
   5169   5167   5168   5170     1  0.0000000  0.6508444  3
   5169   5167   5168   5188     1  0.0000000  1.0460000  1
   5169   5167   5168   5188     1  0.0000000  0.0000000  3
   5169   5167   5168   5187     1  0.0000000  0.6508444  3
   5169   5167   5178   5183     1  0.0000000  1.0460000  1
   5169   5167   5178   5183     1  0.0000000  0.0000000  3
   5169   5167   5178   5181     1  0.0000000  0.6508444  3
   5169   5167   5178   5182     1  0.0000000  0.6508444  3
   5169   5167   5185   5172     1  0.0000000  1.6038667  3
   5170   5171   5172   5175     1  0.0000000  0.6508444  3
   5170   5171   5190   5180     1  0.0000000  1.2552000  3
   5170   5168   5188   5189     1  0.0000000  1.0460000  1
   5170   5168   5188   5189     1  0.0000000  0.6694400  3
   5171   5172   5176   5186     1  0.0000000  1.0460000  1
   5171   5172   5176   5186     1  0.0000000  0.6694400  3
   5171   5170   5177   5179     1  0.0000000  1.0460000  1
   5171   5170   5177   5179     1  0.0000000  0.6694400  3
   5171   5170   5168   5187     1  0.0000000  0.6508444  3
   5172   5171   5190   5180     1  0.0000000  1.2552000  3
   5172   5171   5170   5174     1  0.0000000  0.6508444  3
   5173   5171   5172   5176     1  0.0000000  1.0460000  1
   5173   5171   5172   5176     1  0.0000000  0.0000000  3
   5173   5171   5172   5185     1  0.0000000  1.0460000  1
   5173   5171   5172   5185     1  0.0000000  0.0000000  3
   5173   5171   5172   5175     1  0.0000000  0.6508444  3
   5173   5171   5190   5180     1  0.0000000  1.2552000  3
   5173   5171   5170   5177     1  0.0000000  1.0460000  1
   5173   5171   5170   5177     1  0.0000000  0.0000000  3
   5173   5171   5170   5174     1  0.0000000  0.6508444  3
   5174   5170   5171   5190     1  0.0000000  0.6508444  3
   5174   5170   5177   5179     1  0.0000000  0.6973333  3
   5174   5170   5168   5188     1  0.0000000  1.0460000  1
   5174   5170   5168   5188     1  0.0000000  0.0000000  3
   5174   5170   5168   5187     1  0.0000000  0.6508444  3
   5175   5172   5176   5186     1  0.0000000  0.6973333  3
   5175   5172   5171   5190     1  0.0000000  0.6508444  3
   5177   5170   5168   5187     1  0.0000000  1.0460000  1
   5177   5170   5168   5187     1  0.0000000  0.0000000  3
   5178   5167   5168   5187     1  0.0000000  0.6508444  3
   5181   5178   5183   5184     1  0.0000000  0.6973333  3
   5181   5178   5167   5185     1  0.0000000  1.0460000  1
   5181   5178   5167   5185     1  0.0000000  0.0000000  3
   5182   5178   5183   5184     1  0.0000000  0.6973333  3
   5182   5178   5167   5185     1  0.0000000  1.0460000  1
   5182   5178   5167   5185     1  0.0000000  0.0000000  3
   5185   5172   5176   5186     1  0.0000000  0.6973333  3
   5185   5167   5168   5187     1  0.0000000  1.0460000  1
   5185   5167   5168   5187     1  0.0000000  0.0000000  3
   5187   5168   5188   5189     1  0.0000000  0.6973333  3
   5191   5193   5195   5197     1  0.0000000  0.6508444  3
   5191   5193   5195   5198     1  0.0000000  0.6508444  3
   5192   5191   5193   5195     1  0.0000000  0.0000000  2
   5192   5191   5193   5194     1  0.0000000  0.0000000  2
   5192   5191   5193   5196     1  0.0000000  0.0000000  2
   5194   5193   5195   5199     1  0.0000000  0.6508444  3
   5194   5193   5195   5197     1  0.0000000  0.6508444  3
   5194   5193   5195   5198     1  0.0000000  0.6508444  3
   5195   5199   5200   5209     1  0.0000000  1.2552000  3
   5195   5199   5200   5210     1  0.0000000  1.2552000  3
   5195   5199   5201   5202     1  0.0000000  1.2552000  3
   5195   5199   5201   5204     1  0.0000000  1.2552000  3
   5196   5193   5195   5199     1  0.0000000  0.6508444  3
   5196   5193   5195   5197     1  0.0000000  0.6508444  3
   5196   5193   5195   5198     1  0.0000000  0.6508444  3
   5197   5195   5199   5200     1  0.0000000  1.2552000  3
   5197   5195   5199   5201     1  0.0000000  1.2552000  3
   5198   5195   5199   5200     1  0.0000000  1.2552000  3
   5198   5195   5199   5201     1  0.0000000  1.2552000  3
   5199   5200   5211   5212     1  0.0000000  0.6508444  3
   5199   5200   5211   5213     1  0.0000000  0.6508444  3
   5199   5201   5203   5205     1  0.0000000  0.6508444  3
   5199   5201   5203   5206     1  0.0000000  0.6508444  3
   5200   5199   5201   5202     1  0.0000000  1.2552000  3
   5200   5199   5201   5204     1  0.0000000  1.2552000  3
   5201   5199   5200   5209     1  0.0000000  1.2552000  3
   5201   5199   5200   5210     1  0.0000000  1.2552000  3
   5202   5201   5203   5207     1  0.0000000  0.6508444  3
   5202   5201   5203   5205     1  0.0000000  0.6508444  3
   5202   5201   5203   5206     1  0.0000000  0.6508444  3
   5203   5207   5239   5229     1  180.0000771  6.0668000  2
   5203   5207   5239   5229     1  180.0000771  1.4644000  4
   5204   5201   5203   5207     1  0.0000000  0.6508444  3
   5204   5201   5203   5205     1  0.0000000  0.6508444  3
   5204   5201   5203   5206     1  0.0000000  0.6508444  3
   5205   5203   5207   5208     1  0.0000000  3.3472000  1
   5205   5203   5207   5208     1  0.0000000  0.0000000  2
   5205   5203   5207   5208     1  180.0000771  0.3347200  3
   5205   5203   5207   5239     1  180.0000771  0.0000000  2
   5206   5203   5207   5208     1  0.0000000  3.3472000  1
   5206   5203   5207   5208     1  0.0000000  0.0000000  2
   5206   5203   5207   5208     1  180.0000771  0.3347200  3
   5206   5203   5207   5239     1  180.0000771  0.0000000  2
   5207   5239   5220   5222     1  0.0000000  1.2552000  3
   5208   5207   5239   5229     1  180.0000771  6.0668000  2
   5208   5207   5239   5229     1  180.0000771  1.4644000  4
   5209   5200   5211   5214     1  0.0000000  0.6508444  3
   5209   5200   5211   5212     1  0.0000000  0.6508444  3
   5209   5200   5211   5213     1  0.0000000  0.6508444  3
   5210   5200   5211   5214     1  0.0000000  0.6508444  3
   5210   5200   5211   5212     1  0.0000000  0.6508444  3
   5210   5200   5211   5213     1  0.0000000  0.6508444  3
   5211   5214   5263   5253     1  180.0000771  6.0668000  2
   5211   5214   5263   5253     1  180.0000771  1.4644000  4
   5212   5211   5214   5215     1  0.0000000  3.3472000  1
   5212   5211   5214   5215     1  0.0000000  0.0000000  2
   5212   5211   5214   5215     1  180.0000771  0.3347200  3
   5212   5211   5214   5263     1  180.0000771  0.0000000  2
   5213   5211   5214   5215     1  0.0000000  3.3472000  1
   5213   5211   5214   5215     1  0.0000000  0.0000000  2
   5213   5211   5214   5215     1  180.0000771  0.3347200  3
   5213   5211   5214   5263     1  180.0000771  0.0000000  2
   5214   5263   5244   5246     1  0.0000000  1.2552000  3
   5215   5214   5263   5253     1  180.0000771  6.0668000  2
   5215   5214   5263   5253     1  180.0000771  1.4644000  4
   5216   5217   5219   5223     1  0.0000000  0.6508444  3
   5216   5217   5237   5238     1  0.0000000  1.0460000  1
   5216   5217   5237   5238     1  0.0000000  0.6694400  3
   5216   5227   5232   5233     1  0.0000000  1.0460000  1
   5216   5227   5232   5233     1  0.0000000  0.6694400  3
   5216   5234   5221   5224     1  0.0000000  1.6038667  3
   5217   5216   5227   5230     1  0.0000000  0.6508444  3
   5217   5216   5227   5231     1  0.0000000  0.6508444  3
   5217   5219   5220   5222     1  0.0000000  0.6508444  3
   5217   5219   5226   5228     1  0.0000000  1.0460000  1
   5217   5219   5226   5228     1  0.0000000  0.6694400  3
   5218   5216   5217   5219     1  0.0000000  0.6508444  3
   5218   5216   5217   5237     1  0.0000000  1.0460000  1
   5218   5216   5217   5237     1  0.0000000  0.0000000  3
   5218   5216   5217   5236     1  0.0000000  0.6508444  3
   5218   5216   5227   5232     1  0.0000000  1.0460000  1
   5218   5216   5227   5232     1  0.0000000  0.0000000  3
   5218   5216   5227   5230     1  0.0000000  0.6508444  3
   5218   5216   5227   5231     1  0.0000000  0.6508444  3
   5218   5216   5234   5221     1  0.0000000  1.6038667  3
   5219   5217   5237   5238     1  0.0000000  1.0460000  1
   5219   5217   5237   5238     1  0.0000000  0.6694400  3
   5219   5220   5221   5224     1  0.0000000  0.6508444  3
   5219   5220   5239   5229     1  0.0000000  1.2552000  3
   5220   5219   5217   5236     1  0.0000000  0.6508444  3
   5220   5219   5226   5228     1  0.0000000  1.0460000  1
   5220   5219   5226   5228     1  0.0000000  0.6694400  3
   5220   5221   5225   5235     1  0.0000000  1.0460000  1
   5220   5221   5225   5235     1  0.0000000  0.6694400  3
   5221   5220   5219   5223     1  0.0000000  0.6508444  3
   5221   5220   5239   5229     1  0.0000000  1.2552000  3
   5222   5220   5219   5226     1  0.0000000  1.0460000  1
   5222   5220   5219   5226     1  0.0000000  0.0000000  3
   5222   5220   5219   5223     1  0.0000000  0.6508444  3
   5222   5220   5221   5225     1  0.0000000  1.0460000  1
   5222   5220   5221   5225     1  0.0000000  0.0000000  3
   5222   5220   5221   5234     1  0.0000000  1.0460000  1
   5222   5220   5221   5234     1  0.0000000  0.0000000  3
   5222   5220   5221   5224     1  0.0000000  0.6508444  3
   5222   5220   5239   5229     1  0.0000000  1.2552000  3
   5223   5219   5217   5237     1  0.0000000  1.0460000  1
   5223   5219   5217   5237     1  0.0000000  0.0000000  3
   5223   5219   5217   5236     1  0.0000000  0.6508444  3
   5223   5219   5220   5239     1  0.0000000  0.6508444  3
   5223   5219   5226   5228     1  0.0000000  0.6973333  3
   5224   5221   5220   5239     1  0.0000000  0.6508444  3
   5224   5221   5225   5235     1  0.0000000  0.6973333  3
   5226   5219   5217   5236     1  0.0000000  1.0460000  1
   5226   5219   5217   5236     1  0.0000000  0.0000000  3
   5227   5216   5217   5236     1  0.0000000  0.6508444  3
   5230   5227   5216   5234     1  0.0000000  1.0460000  1
   5230   5227   5216   5234     1  0.0000000  0.0000000  3
   5230   5227   5232   5233     1  0.0000000  0.6973333  3
   5231   5227   5216   5234     1  0.0000000  1.0460000  1
   5231   5227   5216   5234     1  0.0000000  0.0000000  3
   5231   5227   5232   5233     1  0.0000000  0.6973333  3
   5234   5216   5217   5236     1  0.0000000  1.0460000  1
   5234   5216   5217   5236     1  0.0000000  0.0000000  3
   5234   5221   5225   5235     1  0.0000000  0.6973333  3
   5236   5217   5237   5238     1  0.0000000  0.6973333  3
   5240   5241   5243   5247     1  0.0000000  0.6508444  3
   5240   5241   5261   5262     1  0.0000000  1.0460000  1
   5240   5241   5261   5262     1  0.0000000  0.6694400  3
   5240   5251   5256   5257     1  0.0000000  1.0460000  1
   5240   5251   5256   5257     1  0.0000000  0.6694400  3
   5240   5258   5245   5248     1  0.0000000  1.6038667  3
   5241   5240   5251   5254     1  0.0000000  0.6508444  3
   5241   5240   5251   5255     1  0.0000000  0.6508444  3
   5241   5243   5244   5246     1  0.0000000  0.6508444  3
   5241   5243   5250   5252     1  0.0000000  1.0460000  1
   5241   5243   5250   5252     1  0.0000000  0.6694400  3
   5242   5240   5241   5243     1  0.0000000  0.6508444  3
   5242   5240   5241   5261     1  0.0000000  1.0460000  1
   5242   5240   5241   5261     1  0.0000000  0.0000000  3
   5242   5240   5241   5260     1  0.0000000  0.6508444  3
   5242   5240   5251   5256     1  0.0000000  1.0460000  1
   5242   5240   5251   5256     1  0.0000000  0.0000000  3
   5242   5240   5251   5254     1  0.0000000  0.6508444  3
   5242   5240   5251   5255     1  0.0000000  0.6508444  3
   5242   5240   5258   5245     1  0.0000000  1.6038667  3
   5243   5241   5261   5262     1  0.0000000  1.0460000  1
   5243   5241   5261   5262     1  0.0000000  0.6694400  3
   5243   5244   5245   5248     1  0.0000000  0.6508444  3
   5243   5244   5263   5253     1  0.0000000  1.2552000  3
   5244   5243   5241   5260     1  0.0000000  0.6508444  3
   5244   5243   5250   5252     1  0.0000000  1.0460000  1
   5244   5243   5250   5252     1  0.0000000  0.6694400  3
   5244   5245   5249   5259     1  0.0000000  1.0460000  1
   5244   5245   5249   5259     1  0.0000000  0.6694400  3
   5245   5244   5243   5247     1  0.0000000  0.6508444  3
   5245   5244   5263   5253     1  0.0000000  1.2552000  3
   5246   5244   5243   5250     1  0.0000000  1.0460000  1
   5246   5244   5243   5250     1  0.0000000  0.0000000  3
   5246   5244   5243   5247     1  0.0000000  0.6508444  3
   5246   5244   5245   5249     1  0.0000000  1.0460000  1
   5246   5244   5245   5249     1  0.0000000  0.0000000  3
   5246   5244   5245   5258     1  0.0000000  1.0460000  1
   5246   5244   5245   5258     1  0.0000000  0.0000000  3
   5246   5244   5245   5248     1  0.0000000  0.6508444  3
   5246   5244   5263   5253     1  0.0000000  1.2552000  3
   5247   5243   5241   5261     1  0.0000000  1.0460000  1
   5247   5243   5241   5261     1  0.0000000  0.0000000  3
   5247   5243   5241   5260     1  0.0000000  0.6508444  3
   5247   5243   5244   5263     1  0.0000000  0.6508444  3
   5247   5243   5250   5252     1  0.0000000  0.6973333  3
   5248   5245   5244   5263     1  0.0000000  0.6508444  3
   5248   5245   5249   5259     1  0.0000000  0.6973333  3
   5250   5243   5241   5260     1  0.0000000  1.0460000  1
   5250   5243   5241   5260     1  0.0000000  0.0000000  3
   5251   5240   5241   5260     1  0.0000000  0.6508444  3
   5254   5251   5240   5258     1  0.0000000  1.0460000  1
   5254   5251   5240   5258     1  0.0000000  0.0000000  3
   5254   5251   5256   5257     1  0.0000000  0.6973333  3
   5255   5251   5240   5258     1  0.0000000  1.0460000  1
   5255   5251   5240   5258     1  0.0000000  0.0000000  3
   5255   5251   5256   5257     1  0.0000000  0.6973333  3
   5258   5240   5241   5260     1  0.0000000  1.0460000  1
   5258   5240   5241   5260     1  0.0000000  0.0000000  3
   5258   5245   5249   5259     1  0.0000000  0.6973333  3
   5260   5241   5261   5262     1  0.0000000  0.6973333  3
   5264   5266   5268   5270     1  0.0000000  0.6508444  3
   5264   5266   5268   5271     1  0.0000000  0.6508444  3
   5265   5264   5266   5268     1  0.0000000  0.0000000  2
   5265   5264   5266   5267     1  0.0000000  0.0000000  2
   5265   5264   5266   5269     1  0.0000000  0.0000000  2
   5267   5266   5268   5272     1  0.0000000  0.6508444  3
   5267   5266   5268   5270     1  0.0000000  0.6508444  3
   5267   5266   5268   5271     1  0.0000000  0.6508444  3
   5268   5272   5273   5282     1  0.0000000  1.2552000  3
   5268   5272   5273   5283     1  0.0000000  1.2552000  3
   5268   5272   5274   5275     1  0.0000000  1.2552000  3
   5268   5272   5274   5277     1  0.0000000  1.2552000  3
   5269   5266   5268   5272     1  0.0000000  0.6508444  3
   5269   5266   5268   5270     1  0.0000000  0.6508444  3
   5269   5266   5268   5271     1  0.0000000  0.6508444  3
   5270   5268   5272   5273     1  0.0000000  1.2552000  3
   5270   5268   5272   5274     1  0.0000000  1.2552000  3
   5271   5268   5272   5273     1  0.0000000  1.2552000  3
   5271   5268   5272   5274     1  0.0000000  1.2552000  3
   5272   5273   5284   5285     1  0.0000000  0.6508444  3
   5272   5273   5284   5286     1  0.0000000  0.6508444  3
   5272   5274   5276   5278     1  0.0000000  0.6508444  3
   5272   5274   5276   5279     1  0.0000000  0.6508444  3
   5273   5272   5274   5275     1  0.0000000  1.2552000  3
   5273   5272   5274   5277     1  0.0000000  1.2552000  3
   5274   5272   5273   5282     1  0.0000000  1.2552000  3
   5274   5272   5273   5283     1  0.0000000  1.2552000  3
   5275   5274   5276   5280     1  0.0000000  0.6508444  3
   5275   5274   5276   5278     1  0.0000000  0.6508444  3
   5275   5274   5276   5279     1  0.0000000  0.6508444  3
   5276   5280   5312   5302     1  180.0000771  6.0668000  2
   5276   5280   5312   5302     1  180.0000771  1.4644000  4
   5277   5274   5276   5280     1  0.0000000  0.6508444  3
   5277   5274   5276   5278     1  0.0000000  0.6508444  3
   5277   5274   5276   5279     1  0.0000000  0.6508444  3
   5278   5276   5280   5281     1  0.0000000  3.3472000  1
   5278   5276   5280   5281     1  0.0000000  0.0000000  2
   5278   5276   5280   5281     1  180.0000771  0.3347200  3
   5278   5276   5280   5312     1  180.0000771  0.0000000  2
   5279   5276   5280   5281     1  0.0000000  3.3472000  1
   5279   5276   5280   5281     1  0.0000000  0.0000000  2
   5279   5276   5280   5281     1  180.0000771  0.3347200  3
   5279   5276   5280   5312     1  180.0000771  0.0000000  2
   5280   5312   5293   5295     1  0.0000000  1.2552000  3
   5281   5280   5312   5302     1  180.0000771  6.0668000  2
   5281   5280   5312   5302     1  180.0000771  1.4644000  4
   5282   5273   5284   5287     1  0.0000000  0.6508444  3
   5282   5273   5284   5285     1  0.0000000  0.6508444  3
   5282   5273   5284   5286     1  0.0000000  0.6508444  3
   5283   5273   5284   5287     1  0.0000000  0.6508444  3
   5283   5273   5284   5285     1  0.0000000  0.6508444  3
   5283   5273   5284   5286     1  0.0000000  0.6508444  3
   5284   5287   5336   5326     1  180.0000771  6.0668000  2
   5284   5287   5336   5326     1  180.0000771  1.4644000  4
   5285   5284   5287   5288     1  0.0000000  3.3472000  1
   5285   5284   5287   5288     1  0.0000000  0.0000000  2
   5285   5284   5287   5288     1  180.0000771  0.3347200  3
   5285   5284   5287   5336     1  180.0000771  0.0000000  2
   5286   5284   5287   5288     1  0.0000000  3.3472000  1
   5286   5284   5287   5288     1  0.0000000  0.0000000  2
   5286   5284   5287   5288     1  180.0000771  0.3347200  3
   5286   5284   5287   5336     1  180.0000771  0.0000000  2
   5287   5336   5317   5319     1  0.0000000  1.2552000  3
   5288   5287   5336   5326     1  180.0000771  6.0668000  2
   5288   5287   5336   5326     1  180.0000771  1.4644000  4
   5289   5290   5292   5296     1  0.0000000  0.6508444  3
   5289   5290   5310   5311     1  0.0000000  1.0460000  1
   5289   5290   5310   5311     1  0.0000000  0.6694400  3
   5289   5300   5305   5306     1  0.0000000  1.0460000  1
   5289   5300   5305   5306     1  0.0000000  0.6694400  3
   5289   5307   5294   5297     1  0.0000000  1.6038667  3
   5290   5292   5293   5295     1  0.0000000  0.6508444  3
   5290   5292   5299   5301     1  0.0000000  1.0460000  1
   5290   5292   5299   5301     1  0.0000000  0.6694400  3
   5290   5289   5300   5303     1  0.0000000  0.6508444  3
   5290   5289   5300   5304     1  0.0000000  0.6508444  3
   5291   5289   5290   5292     1  0.0000000  0.6508444  3
   5291   5289   5290   5310     1  0.0000000  1.0460000  1
   5291   5289   5290   5310     1  0.0000000  0.0000000  3
   5291   5289   5290   5309     1  0.0000000  0.6508444  3
   5291   5289   5300   5305     1  0.0000000  1.0460000  1
   5291   5289   5300   5305     1  0.0000000  0.0000000  3
   5291   5289   5300   5303     1  0.0000000  0.6508444  3
   5291   5289   5300   5304     1  0.0000000  0.6508444  3
   5291   5289   5307   5294     1  0.0000000  1.6038667  3
   5292   5293   5294   5297     1  0.0000000  0.6508444  3
   5292   5293   5312   5302     1  0.0000000  1.2552000  3
   5292   5290   5310   5311     1  0.0000000  1.0460000  1
   5292   5290   5310   5311     1  0.0000000  0.6694400  3
   5293   5294   5298   5308     1  0.0000000  1.0460000  1
   5293   5294   5298   5308     1  0.0000000  0.6694400  3
   5293   5292   5299   5301     1  0.0000000  1.0460000  1
   5293   5292   5299   5301     1  0.0000000  0.6694400  3
   5293   5292   5290   5309     1  0.0000000  0.6508444  3
   5294   5293   5312   5302     1  0.0000000  1.2552000  3
   5294   5293   5292   5296     1  0.0000000  0.6508444  3
   5295   5293   5294   5298     1  0.0000000  1.0460000  1
   5295   5293   5294   5298     1  0.0000000  0.0000000  3
   5295   5293   5294   5307     1  0.0000000  1.0460000  1
   5295   5293   5294   5307     1  0.0000000  0.0000000  3
   5295   5293   5294   5297     1  0.0000000  0.6508444  3
   5295   5293   5312   5302     1  0.0000000  1.2552000  3
   5295   5293   5292   5299     1  0.0000000  1.0460000  1
   5295   5293   5292   5299     1  0.0000000  0.0000000  3
   5295   5293   5292   5296     1  0.0000000  0.6508444  3
   5296   5292   5293   5312     1  0.0000000  0.6508444  3
   5296   5292   5299   5301     1  0.0000000  0.6973333  3
   5296   5292   5290   5310     1  0.0000000  1.0460000  1
   5296   5292   5290   5310     1  0.0000000  0.0000000  3
   5296   5292   5290   5309     1  0.0000000  0.6508444  3
   5297   5294   5298   5308     1  0.0000000  0.6973333  3
   5297   5294   5293   5312     1  0.0000000  0.6508444  3
   5299   5292   5290   5309     1  0.0000000  1.0460000  1
   5299   5292   5290   5309     1  0.0000000  0.0000000  3
   5300   5289   5290   5309     1  0.0000000  0.6508444  3
   5303   5300   5305   5306     1  0.0000000  0.6973333  3
   5303   5300   5289   5307     1  0.0000000  1.0460000  1
   5303   5300   5289   5307     1  0.0000000  0.0000000  3
   5304   5300   5305   5306     1  0.0000000  0.6973333  3
   5304   5300   5289   5307     1  0.0000000  1.0460000  1
   5304   5300   5289   5307     1  0.0000000  0.0000000  3
   5307   5294   5298   5308     1  0.0000000  0.6973333  3
   5307   5289   5290   5309     1  0.0000000  1.0460000  1
   5307   5289   5290   5309     1  0.0000000  0.0000000  3
   5309   5290   5310   5311     1  0.0000000  0.6973333  3
   5313   5314   5316   5320     1  0.0000000  0.6508444  3
   5313   5314   5334   5335     1  0.0000000  1.0460000  1
   5313   5314   5334   5335     1  0.0000000  0.6694400  3
   5313   5324   5329   5330     1  0.0000000  1.0460000  1
   5313   5324   5329   5330     1  0.0000000  0.6694400  3
   5313   5331   5318   5321     1  0.0000000  1.6038667  3
   5314   5316   5317   5319     1  0.0000000  0.6508444  3
   5314   5316   5323   5325     1  0.0000000  1.0460000  1
   5314   5316   5323   5325     1  0.0000000  0.6694400  3
   5314   5313   5324   5327     1  0.0000000  0.6508444  3
   5314   5313   5324   5328     1  0.0000000  0.6508444  3
   5315   5313   5314   5316     1  0.0000000  0.6508444  3
   5315   5313   5314   5334     1  0.0000000  1.0460000  1
   5315   5313   5314   5334     1  0.0000000  0.0000000  3
   5315   5313   5314   5333     1  0.0000000  0.6508444  3
   5315   5313   5324   5329     1  0.0000000  1.0460000  1
   5315   5313   5324   5329     1  0.0000000  0.0000000  3
   5315   5313   5324   5327     1  0.0000000  0.6508444  3
   5315   5313   5324   5328     1  0.0000000  0.6508444  3
   5315   5313   5331   5318     1  0.0000000  1.6038667  3
   5316   5317   5318   5321     1  0.0000000  0.6508444  3
   5316   5317   5336   5326     1  0.0000000  1.2552000  3
   5316   5314   5334   5335     1  0.0000000  1.0460000  1
   5316   5314   5334   5335     1  0.0000000  0.6694400  3
   5317   5318   5322   5332     1  0.0000000  1.0460000  1
   5317   5318   5322   5332     1  0.0000000  0.6694400  3
   5317   5316   5323   5325     1  0.0000000  1.0460000  1
   5317   5316   5323   5325     1  0.0000000  0.6694400  3
   5317   5316   5314   5333     1  0.0000000  0.6508444  3
   5318   5317   5336   5326     1  0.0000000  1.2552000  3
   5318   5317   5316   5320     1  0.0000000  0.6508444  3
   5319   5317   5318   5322     1  0.0000000  1.0460000  1
   5319   5317   5318   5322     1  0.0000000  0.0000000  3
   5319   5317   5318   5331     1  0.0000000  1.0460000  1
   5319   5317   5318   5331     1  0.0000000  0.0000000  3
   5319   5317   5318   5321     1  0.0000000  0.6508444  3
   5319   5317   5336   5326     1  0.0000000  1.2552000  3
   5319   5317   5316   5323     1  0.0000000  1.0460000  1
   5319   5317   5316   5323     1  0.0000000  0.0000000  3
   5319   5317   5316   5320     1  0.0000000  0.6508444  3
   5320   5316   5317   5336     1  0.0000000  0.6508444  3
   5320   5316   5323   5325     1  0.0000000  0.6973333  3
   5320   5316   5314   5334     1  0.0000000  1.0460000  1
   5320   5316   5314   5334     1  0.0000000  0.0000000  3
   5320   5316   5314   5333     1  0.0000000  0.6508444  3
   5321   5318   5322   5332     1  0.0000000  0.6973333  3
   5321   5318   5317   5336     1  0.0000000  0.6508444  3
   5323   5316   5314   5333     1  0.0000000  1.0460000  1
   5323   5316   5314   5333     1  0.0000000  0.0000000  3
   5324   5313   5314   5333     1  0.0000000  0.6508444  3
   5327   5324   5329   5330     1  0.0000000  0.6973333  3
   5327   5324   5313   5331     1  0.0000000  1.0460000  1
   5327   5324   5313   5331     1  0.0000000  0.0000000  3
   5328   5324   5329   5330     1  0.0000000  0.6973333  3
   5328   5324   5313   5331     1  0.0000000  1.0460000  1
   5328   5324   5313   5331     1  0.0000000  0.0000000  3
   5331   5318   5322   5332     1  0.0000000  0.6973333  3
   5331   5313   5314   5333     1  0.0000000  1.0460000  1
   5331   5313   5314   5333     1  0.0000000  0.0000000  3
   5333   5314   5334   5335     1  0.0000000  0.6973333  3
   5337   5339   5341   5343     1  0.0000000  0.6508444  3
   5337   5339   5341   5344     1  0.0000000  0.6508444  3
   5338   5337   5339   5341     1  0.0000000  0.0000000  2
   5338   5337   5339   5340     1  0.0000000  0.0000000  2
   5338   5337   5339   5342     1  0.0000000  0.0000000  2
   5340   5339   5341   5345     1  0.0000000  0.6508444  3
   5340   5339   5341   5343     1  0.0000000  0.6508444  3
   5340   5339   5341   5344     1  0.0000000  0.6508444  3
   5341   5345   5346   5355     1  0.0000000  1.2552000  3
   5341   5345   5346   5356     1  0.0000000  1.2552000  3
   5341   5345   5347   5348     1  0.0000000  1.2552000  3
   5341   5345   5347   5350     1  0.0000000  1.2552000  3
   5342   5339   5341   5345     1  0.0000000  0.6508444  3
   5342   5339   5341   5343     1  0.0000000  0.6508444  3
   5342   5339   5341   5344     1  0.0000000  0.6508444  3
   5343   5341   5345   5346     1  0.0000000  1.2552000  3
   5343   5341   5345   5347     1  0.0000000  1.2552000  3
   5344   5341   5345   5346     1  0.0000000  1.2552000  3
   5344   5341   5345   5347     1  0.0000000  1.2552000  3
   5345   5346   5357   5358     1  0.0000000  0.6508444  3
   5345   5346   5357   5359     1  0.0000000  0.6508444  3
   5345   5347   5349   5351     1  0.0000000  0.6508444  3
   5345   5347   5349   5352     1  0.0000000  0.6508444  3
   5346   5345   5347   5348     1  0.0000000  1.2552000  3
   5346   5345   5347   5350     1  0.0000000  1.2552000  3
   5347   5345   5346   5355     1  0.0000000  1.2552000  3
   5347   5345   5346   5356     1  0.0000000  1.2552000  3
   5348   5347   5349   5353     1  0.0000000  0.6508444  3
   5348   5347   5349   5351     1  0.0000000  0.6508444  3
   5348   5347   5349   5352     1  0.0000000  0.6508444  3
   5349   5353   5385   5375     1  180.0000771  6.0668000  2
   5349   5353   5385   5375     1  180.0000771  1.4644000  4
   5350   5347   5349   5353     1  0.0000000  0.6508444  3
   5350   5347   5349   5351     1  0.0000000  0.6508444  3
   5350   5347   5349   5352     1  0.0000000  0.6508444  3
   5351   5349   5353   5354     1  0.0000000  3.3472000  1
   5351   5349   5353   5354     1  0.0000000  0.0000000  2
   5351   5349   5353   5354     1  180.0000771  0.3347200  3
   5351   5349   5353   5385     1  180.0000771  0.0000000  2
   5352   5349   5353   5354     1  0.0000000  3.3472000  1
   5352   5349   5353   5354     1  0.0000000  0.0000000  2
   5352   5349   5353   5354     1  180.0000771  0.3347200  3
   5352   5349   5353   5385     1  180.0000771  0.0000000  2
   5353   5385   5366   5368     1  0.0000000  1.2552000  3
   5354   5353   5385   5375     1  180.0000771  6.0668000  2
   5354   5353   5385   5375     1  180.0000771  1.4644000  4
   5355   5346   5357   5360     1  0.0000000  0.6508444  3
   5355   5346   5357   5358     1  0.0000000  0.6508444  3
   5355   5346   5357   5359     1  0.0000000  0.6508444  3
   5356   5346   5357   5360     1  0.0000000  0.6508444  3
   5356   5346   5357   5358     1  0.0000000  0.6508444  3
   5356   5346   5357   5359     1  0.0000000  0.6508444  3
   5357   5360   5409   5399     1  180.0000771  6.0668000  2
   5357   5360   5409   5399     1  180.0000771  1.4644000  4
   5358   5357   5360   5361     1  0.0000000  3.3472000  1
   5358   5357   5360   5361     1  0.0000000  0.0000000  2
   5358   5357   5360   5361     1  180.0000771  0.3347200  3
   5358   5357   5360   5409     1  180.0000771  0.0000000  2
   5359   5357   5360   5361     1  0.0000000  3.3472000  1
   5359   5357   5360   5361     1  0.0000000  0.0000000  2
   5359   5357   5360   5361     1  180.0000771  0.3347200  3
   5359   5357   5360   5409     1  180.0000771  0.0000000  2
   5360   5409   5390   5392     1  0.0000000  1.2552000  3
   5361   5360   5409   5399     1  180.0000771  6.0668000  2
   5361   5360   5409   5399     1  180.0000771  1.4644000  4
   5362   5363   5365   5369     1  0.0000000  0.6508444  3
   5362   5363   5383   5384     1  0.0000000  1.0460000  1
   5362   5363   5383   5384     1  0.0000000  0.6694400  3
   5362   5373   5378   5379     1  0.0000000  1.0460000  1
   5362   5373   5378   5379     1  0.0000000  0.6694400  3
   5362   5380   5367   5370     1  0.0000000  1.6038667  3
   5363   5362   5373   5376     1  0.0000000  0.6508444  3
   5363   5362   5373   5377     1  0.0000000  0.6508444  3
   5363   5365   5366   5368     1  0.0000000  0.6508444  3
   5363   5365   5372   5374     1  0.0000000  1.0460000  1
   5363   5365   5372   5374     1  0.0000000  0.6694400  3
   5364   5362   5363   5365     1  0.0000000  0.6508444  3
   5364   5362   5363   5383     1  0.0000000  1.0460000  1
   5364   5362   5363   5383     1  0.0000000  0.0000000  3
   5364   5362   5363   5382     1  0.0000000  0.6508444  3
   5364   5362   5373   5378     1  0.0000000  1.0460000  1
   5364   5362   5373   5378     1  0.0000000  0.0000000  3
   5364   5362   5373   5376     1  0.0000000  0.6508444  3
   5364   5362   5373   5377     1  0.0000000  0.6508444  3
   5364   5362   5380   5367     1  0.0000000  1.6038667  3
   5365   5363   5383   5384     1  0.0000000  1.0460000  1
   5365   5363   5383   5384     1  0.0000000  0.6694400  3
   5365   5366   5367   5370     1  0.0000000  0.6508444  3
   5365   5366   5385   5375     1  0.0000000  1.2552000  3
   5366   5365   5363   5382     1  0.0000000  0.6508444  3
   5366   5365   5372   5374     1  0.0000000  1.0460000  1
   5366   5365   5372   5374     1  0.0000000  0.6694400  3
   5366   5367   5371   5381     1  0.0000000  1.0460000  1
   5366   5367   5371   5381     1  0.0000000  0.6694400  3
   5367   5366   5365   5369     1  0.0000000  0.6508444  3
   5367   5366   5385   5375     1  0.0000000  1.2552000  3
   5368   5366   5365   5372     1  0.0000000  1.0460000  1
   5368   5366   5365   5372     1  0.0000000  0.0000000  3
   5368   5366   5365   5369     1  0.0000000  0.6508444  3
   5368   5366   5367   5371     1  0.0000000  1.0460000  1
   5368   5366   5367   5371     1  0.0000000  0.0000000  3
   5368   5366   5367   5380     1  0.0000000  1.0460000  1
   5368   5366   5367   5380     1  0.0000000  0.0000000  3
   5368   5366   5367   5370     1  0.0000000  0.6508444  3
   5368   5366   5385   5375     1  0.0000000  1.2552000  3
   5369   5365   5363   5383     1  0.0000000  1.0460000  1
   5369   5365   5363   5383     1  0.0000000  0.0000000  3
   5369   5365   5363   5382     1  0.0000000  0.6508444  3
   5369   5365   5366   5385     1  0.0000000  0.6508444  3
   5369   5365   5372   5374     1  0.0000000  0.6973333  3
   5370   5367   5366   5385     1  0.0000000  0.6508444  3
   5370   5367   5371   5381     1  0.0000000  0.6973333  3
   5372   5365   5363   5382     1  0.0000000  1.0460000  1
   5372   5365   5363   5382     1  0.0000000  0.0000000  3
   5373   5362   5363   5382     1  0.0000000  0.6508444  3
   5376   5373   5362   5380     1  0.0000000  1.0460000  1
   5376   5373   5362   5380     1  0.0000000  0.0000000  3
   5376   5373   5378   5379     1  0.0000000  0.6973333  3
   5377   5373   5362   5380     1  0.0000000  1.0460000  1
   5377   5373   5362   5380     1  0.0000000  0.0000000  3
   5377   5373   5378   5379     1  0.0000000  0.6973333  3
   5380   5362   5363   5382     1  0.0000000  1.0460000  1
   5380   5362   5363   5382     1  0.0000000  0.0000000  3
   5380   5367   5371   5381     1  0.0000000  0.6973333  3
   5382   5363   5383   5384     1  0.0000000  0.6973333  3
   5386   5387   5389   5393     1  0.0000000  0.6508444  3
   5386   5387   5407   5408     1  0.0000000  1.0460000  1
   5386   5387   5407   5408     1  0.0000000  0.6694400  3
   5386   5397   5402   5403     1  0.0000000  1.0460000  1
   5386   5397   5402   5403     1  0.0000000  0.6694400  3
   5386   5404   5391   5394     1  0.0000000  1.6038667  3
   5387   5386   5397   5400     1  0.0000000  0.6508444  3
   5387   5386   5397   5401     1  0.0000000  0.6508444  3
   5387   5389   5390   5392     1  0.0000000  0.6508444  3
   5387   5389   5396   5398     1  0.0000000  1.0460000  1
   5387   5389   5396   5398     1  0.0000000  0.6694400  3
   5388   5386   5387   5389     1  0.0000000  0.6508444  3
   5388   5386   5387   5407     1  0.0000000  1.0460000  1
   5388   5386   5387   5407     1  0.0000000  0.0000000  3
   5388   5386   5387   5406     1  0.0000000  0.6508444  3
   5388   5386   5397   5402     1  0.0000000  1.0460000  1
   5388   5386   5397   5402     1  0.0000000  0.0000000  3
   5388   5386   5397   5400     1  0.0000000  0.6508444  3
   5388   5386   5397   5401     1  0.0000000  0.6508444  3
   5388   5386   5404   5391     1  0.0000000  1.6038667  3
   5389   5387   5407   5408     1  0.0000000  1.0460000  1
   5389   5387   5407   5408     1  0.0000000  0.6694400  3
   5389   5390   5391   5394     1  0.0000000  0.6508444  3
   5389   5390   5409   5399     1  0.0000000  1.2552000  3
   5390   5389   5387   5406     1  0.0000000  0.6508444  3
   5390   5389   5396   5398     1  0.0000000  1.0460000  1
   5390   5389   5396   5398     1  0.0000000  0.6694400  3
   5390   5391   5395   5405     1  0.0000000  1.0460000  1
   5390   5391   5395   5405     1  0.0000000  0.6694400  3
   5391   5390   5389   5393     1  0.0000000  0.6508444  3
   5391   5390   5409   5399     1  0.0000000  1.2552000  3
   5392   5390   5389   5396     1  0.0000000  1.0460000  1
   5392   5390   5389   5396     1  0.0000000  0.0000000  3
   5392   5390   5389   5393     1  0.0000000  0.6508444  3
   5392   5390   5391   5395     1  0.0000000  1.0460000  1
   5392   5390   5391   5395     1  0.0000000  0.0000000  3
   5392   5390   5391   5404     1  0.0000000  1.0460000  1
   5392   5390   5391   5404     1  0.0000000  0.0000000  3
   5392   5390   5391   5394     1  0.0000000  0.6508444  3
   5392   5390   5409   5399     1  0.0000000  1.2552000  3
   5393   5389   5387   5407     1  0.0000000  1.0460000  1
   5393   5389   5387   5407     1  0.0000000  0.0000000  3
   5393   5389   5387   5406     1  0.0000000  0.6508444  3
   5393   5389   5390   5409     1  0.0000000  0.6508444  3
   5393   5389   5396   5398     1  0.0000000  0.6973333  3
   5394   5391   5390   5409     1  0.0000000  0.6508444  3
   5394   5391   5395   5405     1  0.0000000  0.6973333  3
   5396   5389   5387   5406     1  0.0000000  1.0460000  1
   5396   5389   5387   5406     1  0.0000000  0.0000000  3
   5397   5386   5387   5406     1  0.0000000  0.6508444  3
   5400   5397   5386   5404     1  0.0000000  1.0460000  1
   5400   5397   5386   5404     1  0.0000000  0.0000000  3
   5400   5397   5402   5403     1  0.0000000  0.6973333  3
   5401   5397   5386   5404     1  0.0000000  1.0460000  1
   5401   5397   5386   5404     1  0.0000000  0.0000000  3
   5401   5397   5402   5403     1  0.0000000  0.6973333  3
   5404   5386   5387   5406     1  0.0000000  1.0460000  1
   5404   5386   5387   5406     1  0.0000000  0.0000000  3
   5404   5391   5395   5405     1  0.0000000  0.6973333  3
   5406   5387   5407   5408     1  0.0000000  0.6973333  3
   5410   5412   5414   5416     1  0.0000000  0.6508444  3
   5410   5412   5414   5417     1  0.0000000  0.6508444  3
   5411   5410   5412   5414     1  0.0000000  0.0000000  2
   5411   5410   5412   5413     1  0.0000000  0.0000000  2
   5411   5410   5412   5415     1  0.0000000  0.0000000  2
   5413   5412   5414   5418     1  0.0000000  0.6508444  3
   5413   5412   5414   5416     1  0.0000000  0.6508444  3
   5413   5412   5414   5417     1  0.0000000  0.6508444  3
   5414   5418   5419   5428     1  0.0000000  1.2552000  3
   5414   5418   5419   5429     1  0.0000000  1.2552000  3
   5414   5418   5420   5421     1  0.0000000  1.2552000  3
   5414   5418   5420   5423     1  0.0000000  1.2552000  3
   5415   5412   5414   5418     1  0.0000000  0.6508444  3
   5415   5412   5414   5416     1  0.0000000  0.6508444  3
   5415   5412   5414   5417     1  0.0000000  0.6508444  3
   5416   5414   5418   5419     1  0.0000000  1.2552000  3
   5416   5414   5418   5420     1  0.0000000  1.2552000  3
   5417   5414   5418   5419     1  0.0000000  1.2552000  3
   5417   5414   5418   5420     1  0.0000000  1.2552000  3
   5418   5419   5430   5431     1  0.0000000  0.6508444  3
   5418   5419   5430   5432     1  0.0000000  0.6508444  3
   5418   5420   5422   5424     1  0.0000000  0.6508444  3
   5418   5420   5422   5425     1  0.0000000  0.6508444  3
   5419   5418   5420   5421     1  0.0000000  1.2552000  3
   5419   5418   5420   5423     1  0.0000000  1.2552000  3
   5420   5418   5419   5428     1  0.0000000  1.2552000  3
   5420   5418   5419   5429     1  0.0000000  1.2552000  3
   5421   5420   5422   5426     1  0.0000000  0.6508444  3
   5421   5420   5422   5424     1  0.0000000  0.6508444  3
   5421   5420   5422   5425     1  0.0000000  0.6508444  3
   5422   5426   5458   5448     1  180.0000771  6.0668000  2
   5422   5426   5458   5448     1  180.0000771  1.4644000  4
   5423   5420   5422   5426     1  0.0000000  0.6508444  3
   5423   5420   5422   5424     1  0.0000000  0.6508444  3
   5423   5420   5422   5425     1  0.0000000  0.6508444  3
   5424   5422   5426   5427     1  0.0000000  3.3472000  1
   5424   5422   5426   5427     1  0.0000000  0.0000000  2
   5424   5422   5426   5427     1  180.0000771  0.3347200  3
   5424   5422   5426   5458     1  180.0000771  0.0000000  2
   5425   5422   5426   5427     1  0.0000000  3.3472000  1
   5425   5422   5426   5427     1  0.0000000  0.0000000  2
   5425   5422   5426   5427     1  180.0000771  0.3347200  3
   5425   5422   5426   5458     1  180.0000771  0.0000000  2
   5426   5458   5439   5441     1  0.0000000  1.2552000  3
   5427   5426   5458   5448     1  180.0000771  6.0668000  2
   5427   5426   5458   5448     1  180.0000771  1.4644000  4
   5428   5419   5430   5433     1  0.0000000  0.6508444  3
   5428   5419   5430   5431     1  0.0000000  0.6508444  3
   5428   5419   5430   5432     1  0.0000000  0.6508444  3
   5429   5419   5430   5433     1  0.0000000  0.6508444  3
   5429   5419   5430   5431     1  0.0000000  0.6508444  3
   5429   5419   5430   5432     1  0.0000000  0.6508444  3
   5430   5433   5482   5472     1  180.0000771  6.0668000  2
   5430   5433   5482   5472     1  180.0000771  1.4644000  4
   5431   5430   5433   5434     1  0.0000000  3.3472000  1
   5431   5430   5433   5434     1  0.0000000  0.0000000  2
   5431   5430   5433   5434     1  180.0000771  0.3347200  3
   5431   5430   5433   5482     1  180.0000771  0.0000000  2
   5432   5430   5433   5434     1  0.0000000  3.3472000  1
   5432   5430   5433   5434     1  0.0000000  0.0000000  2
   5432   5430   5433   5434     1  180.0000771  0.3347200  3
   5432   5430   5433   5482     1  180.0000771  0.0000000  2
   5433   5482   5463   5465     1  0.0000000  1.2552000  3
   5434   5433   5482   5472     1  180.0000771  6.0668000  2
   5434   5433   5482   5472     1  180.0000771  1.4644000  4
   5435   5436   5438   5442     1  0.0000000  0.6508444  3
   5435   5436   5456   5457     1  0.0000000  1.0460000  1
   5435   5436   5456   5457     1  0.0000000  0.6694400  3
   5435   5446   5451   5452     1  0.0000000  1.0460000  1
   5435   5446   5451   5452     1  0.0000000  0.6694400  3
   5435   5453   5440   5443     1  0.0000000  1.6038667  3
   5436   5438   5439   5441     1  0.0000000  0.6508444  3
   5436   5438   5445   5447     1  0.0000000  1.0460000  1
   5436   5438   5445   5447     1  0.0000000  0.6694400  3
   5436   5435   5446   5449     1  0.0000000  0.6508444  3
   5436   5435   5446   5450     1  0.0000000  0.6508444  3
   5437   5435   5436   5438     1  0.0000000  0.6508444  3
   5437   5435   5436   5456     1  0.0000000  1.0460000  1
   5437   5435   5436   5456     1  0.0000000  0.0000000  3
   5437   5435   5436   5455     1  0.0000000  0.6508444  3
   5437   5435   5446   5451     1  0.0000000  1.0460000  1
   5437   5435   5446   5451     1  0.0000000  0.0000000  3
   5437   5435   5446   5449     1  0.0000000  0.6508444  3
   5437   5435   5446   5450     1  0.0000000  0.6508444  3
   5437   5435   5453   5440     1  0.0000000  1.6038667  3
   5438   5439   5440   5443     1  0.0000000  0.6508444  3
   5438   5439   5458   5448     1  0.0000000  1.2552000  3
   5438   5436   5456   5457     1  0.0000000  1.0460000  1
   5438   5436   5456   5457     1  0.0000000  0.6694400  3
   5439   5440   5444   5454     1  0.0000000  1.0460000  1
   5439   5440   5444   5454     1  0.0000000  0.6694400  3
   5439   5438   5445   5447     1  0.0000000  1.0460000  1
   5439   5438   5445   5447     1  0.0000000  0.6694400  3
   5439   5438   5436   5455     1  0.0000000  0.6508444  3
   5440   5439   5458   5448     1  0.0000000  1.2552000  3
   5440   5439   5438   5442     1  0.0000000  0.6508444  3
   5441   5439   5440   5444     1  0.0000000  1.0460000  1
   5441   5439   5440   5444     1  0.0000000  0.0000000  3
   5441   5439   5440   5453     1  0.0000000  1.0460000  1
   5441   5439   5440   5453     1  0.0000000  0.0000000  3
   5441   5439   5440   5443     1  0.0000000  0.6508444  3
   5441   5439   5458   5448     1  0.0000000  1.2552000  3
   5441   5439   5438   5445     1  0.0000000  1.0460000  1
   5441   5439   5438   5445     1  0.0000000  0.0000000  3
   5441   5439   5438   5442     1  0.0000000  0.6508444  3
   5442   5438   5439   5458     1  0.0000000  0.6508444  3
   5442   5438   5445   5447     1  0.0000000  0.6973333  3
   5442   5438   5436   5456     1  0.0000000  1.0460000  1
   5442   5438   5436   5456     1  0.0000000  0.0000000  3
   5442   5438   5436   5455     1  0.0000000  0.6508444  3
   5443   5440   5444   5454     1  0.0000000  0.6973333  3
   5443   5440   5439   5458     1  0.0000000  0.6508444  3
   5445   5438   5436   5455     1  0.0000000  1.0460000  1
   5445   5438   5436   5455     1  0.0000000  0.0000000  3
   5446   5435   5436   5455     1  0.0000000  0.6508444  3
   5449   5446   5451   5452     1  0.0000000  0.6973333  3
   5449   5446   5435   5453     1  0.0000000  1.0460000  1
   5449   5446   5435   5453     1  0.0000000  0.0000000  3
   5450   5446   5451   5452     1  0.0000000  0.6973333  3
   5450   5446   5435   5453     1  0.0000000  1.0460000  1
   5450   5446   5435   5453     1  0.0000000  0.0000000  3
   5453   5440   5444   5454     1  0.0000000  0.6973333  3
   5453   5435   5436   5455     1  0.0000000  1.0460000  1
   5453   5435   5436   5455     1  0.0000000  0.0000000  3
   5455   5436   5456   5457     1  0.0000000  0.6973333  3
   5459   5460   5462   5466     1  0.0000000  0.6508444  3
   5459   5460   5480   5481     1  0.0000000  1.0460000  1
   5459   5460   5480   5481     1  0.0000000  0.6694400  3
   5459   5470   5475   5476     1  0.0000000  1.0460000  1
   5459   5470   5475   5476     1  0.0000000  0.6694400  3
   5459   5477   5464   5467     1  0.0000000  1.6038667  3
   5460   5462   5463   5465     1  0.0000000  0.6508444  3
   5460   5462   5469   5471     1  0.0000000  1.0460000  1
   5460   5462   5469   5471     1  0.0000000  0.6694400  3
   5460   5459   5470   5473     1  0.0000000  0.6508444  3
   5460   5459   5470   5474     1  0.0000000  0.6508444  3
   5461   5459   5460   5462     1  0.0000000  0.6508444  3
   5461   5459   5460   5480     1  0.0000000  1.0460000  1
   5461   5459   5460   5480     1  0.0000000  0.0000000  3
   5461   5459   5460   5479     1  0.0000000  0.6508444  3
   5461   5459   5470   5475     1  0.0000000  1.0460000  1
   5461   5459   5470   5475     1  0.0000000  0.0000000  3
   5461   5459   5470   5473     1  0.0000000  0.6508444  3
   5461   5459   5470   5474     1  0.0000000  0.6508444  3
   5461   5459   5477   5464     1  0.0000000  1.6038667  3
   5462   5463   5464   5467     1  0.0000000  0.6508444  3
   5462   5463   5482   5472     1  0.0000000  1.2552000  3
   5462   5460   5480   5481     1  0.0000000  1.0460000  1
   5462   5460   5480   5481     1  0.0000000  0.6694400  3
   5463   5464   5468   5478     1  0.0000000  1.0460000  1
   5463   5464   5468   5478     1  0.0000000  0.6694400  3
   5463   5462   5469   5471     1  0.0000000  1.0460000  1
   5463   5462   5469   5471     1  0.0000000  0.6694400  3
   5463   5462   5460   5479     1  0.0000000  0.6508444  3
   5464   5463   5482   5472     1  0.0000000  1.2552000  3
   5464   5463   5462   5466     1  0.0000000  0.6508444  3
   5465   5463   5464   5468     1  0.0000000  1.0460000  1
   5465   5463   5464   5468     1  0.0000000  0.0000000  3
   5465   5463   5464   5477     1  0.0000000  1.0460000  1
   5465   5463   5464   5477     1  0.0000000  0.0000000  3
   5465   5463   5464   5467     1  0.0000000  0.6508444  3
   5465   5463   5482   5472     1  0.0000000  1.2552000  3
   5465   5463   5462   5469     1  0.0000000  1.0460000  1
   5465   5463   5462   5469     1  0.0000000  0.0000000  3
   5465   5463   5462   5466     1  0.0000000  0.6508444  3
   5466   5462   5463   5482     1  0.0000000  0.6508444  3
   5466   5462   5469   5471     1  0.0000000  0.6973333  3
   5466   5462   5460   5480     1  0.0000000  1.0460000  1
   5466   5462   5460   5480     1  0.0000000  0.0000000  3
   5466   5462   5460   5479     1  0.0000000  0.6508444  3
   5467   5464   5468   5478     1  0.0000000  0.6973333  3
   5467   5464   5463   5482     1  0.0000000  0.6508444  3
   5469   5462   5460   5479     1  0.0000000  1.0460000  1
   5469   5462   5460   5479     1  0.0000000  0.0000000  3
   5470   5459   5460   5479     1  0.0000000  0.6508444  3
   5473   5470   5475   5476     1  0.0000000  0.6973333  3
   5473   5470   5459   5477     1  0.0000000  1.0460000  1
   5473   5470   5459   5477     1  0.0000000  0.0000000  3
   5474   5470   5475   5476     1  0.0000000  0.6973333  3
   5474   5470   5459   5477     1  0.0000000  1.0460000  1
   5474   5470   5459   5477     1  0.0000000  0.0000000  3
   5477   5464   5468   5478     1  0.0000000  0.6973333  3
   5477   5459   5460   5479     1  0.0000000  1.0460000  1
   5477   5459   5460   5479     1  0.0000000  0.0000000  3
   5479   5460   5480   5481     1  0.0000000  0.6973333  3
   5483   5485   5487   5489     1  0.0000000  0.6508444  3
   5483   5485   5487   5490     1  0.0000000  0.6508444  3
   5484   5483   5485   5487     1  0.0000000  0.0000000  2
   5484   5483   5485   5486     1  0.0000000  0.0000000  2
   5484   5483   5485   5488     1  0.0000000  0.0000000  2
   5486   5485   5487   5491     1  0.0000000  0.6508444  3
   5486   5485   5487   5489     1  0.0000000  0.6508444  3
   5486   5485   5487   5490     1  0.0000000  0.6508444  3
   5487   5491   5492   5501     1  0.0000000  1.2552000  3
   5487   5491   5492   5502     1  0.0000000  1.2552000  3
   5487   5491   5493   5494     1  0.0000000  1.2552000  3
   5487   5491   5493   5496     1  0.0000000  1.2552000  3
   5488   5485   5487   5491     1  0.0000000  0.6508444  3
   5488   5485   5487   5489     1  0.0000000  0.6508444  3
   5488   5485   5487   5490     1  0.0000000  0.6508444  3
   5489   5487   5491   5492     1  0.0000000  1.2552000  3
   5489   5487   5491   5493     1  0.0000000  1.2552000  3
   5490   5487   5491   5492     1  0.0000000  1.2552000  3
   5490   5487   5491   5493     1  0.0000000  1.2552000  3
   5491   5492   5503   5504     1  0.0000000  0.6508444  3
   5491   5492   5503   5505     1  0.0000000  0.6508444  3
   5491   5493   5495   5497     1  0.0000000  0.6508444  3
   5491   5493   5495   5498     1  0.0000000  0.6508444  3
   5492   5491   5493   5494     1  0.0000000  1.2552000  3
   5492   5491   5493   5496     1  0.0000000  1.2552000  3
   5493   5491   5492   5501     1  0.0000000  1.2552000  3
   5493   5491   5492   5502     1  0.0000000  1.2552000  3
   5494   5493   5495   5499     1  0.0000000  0.6508444  3
   5494   5493   5495   5497     1  0.0000000  0.6508444  3
   5494   5493   5495   5498     1  0.0000000  0.6508444  3
   5495   5499   5531   5521     1  180.0000771  6.0668000  2
   5495   5499   5531   5521     1  180.0000771  1.4644000  4
   5496   5493   5495   5499     1  0.0000000  0.6508444  3
   5496   5493   5495   5497     1  0.0000000  0.6508444  3
   5496   5493   5495   5498     1  0.0000000  0.6508444  3
   5497   5495   5499   5500     1  0.0000000  3.3472000  1
   5497   5495   5499   5500     1  0.0000000  0.0000000  2
   5497   5495   5499   5500     1  180.0000771  0.3347200  3
   5497   5495   5499   5531     1  180.0000771  0.0000000  2
   5498   5495   5499   5500     1  0.0000000  3.3472000  1
   5498   5495   5499   5500     1  0.0000000  0.0000000  2
   5498   5495   5499   5500     1  180.0000771  0.3347200  3
   5498   5495   5499   5531     1  180.0000771  0.0000000  2
   5499   5531   5512   5514     1  0.0000000  1.2552000  3
   5500   5499   5531   5521     1  180.0000771  6.0668000  2
   5500   5499   5531   5521     1  180.0000771  1.4644000  4
   5501   5492   5503   5506     1  0.0000000  0.6508444  3
   5501   5492   5503   5504     1  0.0000000  0.6508444  3
   5501   5492   5503   5505     1  0.0000000  0.6508444  3
   5502   5492   5503   5506     1  0.0000000  0.6508444  3
   5502   5492   5503   5504     1  0.0000000  0.6508444  3
   5502   5492   5503   5505     1  0.0000000  0.6508444  3
   5503   5506   5555   5545     1  180.0000771  6.0668000  2
   5503   5506   5555   5545     1  180.0000771  1.4644000  4
   5504   5503   5506   5507     1  0.0000000  3.3472000  1
   5504   5503   5506   5507     1  0.0000000  0.0000000  2
   5504   5503   5506   5507     1  180.0000771  0.3347200  3
   5504   5503   5506   5555     1  180.0000771  0.0000000  2
   5505   5503   5506   5507     1  0.0000000  3.3472000  1
   5505   5503   5506   5507     1  0.0000000  0.0000000  2
   5505   5503   5506   5507     1  180.0000771  0.3347200  3
   5505   5503   5506   5555     1  180.0000771  0.0000000  2
   5506   5555   5536   5538     1  0.0000000  1.2552000  3
   5507   5506   5555   5545     1  180.0000771  6.0668000  2
   5507   5506   5555   5545     1  180.0000771  1.4644000  4
   5508   5509   5511   5515     1  0.0000000  0.6508444  3
   5508   5509   5529   5530     1  0.0000000  1.0460000  1
   5508   5509   5529   5530     1  0.0000000  0.6694400  3
   5508   5519   5524   5525     1  0.0000000  1.0460000  1
   5508   5519   5524   5525     1  0.0000000  0.6694400  3
   5508   5526   5513   5516     1  0.0000000  1.6038667  3
   5509   5508   5519   5522     1  0.0000000  0.6508444  3
   5509   5508   5519   5523     1  0.0000000  0.6508444  3
   5509   5511   5512   5514     1  0.0000000  0.6508444  3
   5509   5511   5518   5520     1  0.0000000  1.0460000  1
   5509   5511   5518   5520     1  0.0000000  0.6694400  3
   5510   5508   5509   5511     1  0.0000000  0.6508444  3
   5510   5508   5509   5529     1  0.0000000  1.0460000  1
   5510   5508   5509   5529     1  0.0000000  0.0000000  3
   5510   5508   5509   5528     1  0.0000000  0.6508444  3
   5510   5508   5519   5524     1  0.0000000  1.0460000  1
   5510   5508   5519   5524     1  0.0000000  0.0000000  3
   5510   5508   5519   5522     1  0.0000000  0.6508444  3
   5510   5508   5519   5523     1  0.0000000  0.6508444  3
   5510   5508   5526   5513     1  0.0000000  1.6038667  3
   5511   5509   5529   5530     1  0.0000000  1.0460000  1
   5511   5509   5529   5530     1  0.0000000  0.6694400  3
   5511   5512   5513   5516     1  0.0000000  0.6508444  3
   5511   5512   5531   5521     1  0.0000000  1.2552000  3
   5512   5511   5509   5528     1  0.0000000  0.6508444  3
   5512   5511   5518   5520     1  0.0000000  1.0460000  1
   5512   5511   5518   5520     1  0.0000000  0.6694400  3
   5512   5513   5517   5527     1  0.0000000  1.0460000  1
   5512   5513   5517   5527     1  0.0000000  0.6694400  3
   5513   5512   5511   5515     1  0.0000000  0.6508444  3
   5513   5512   5531   5521     1  0.0000000  1.2552000  3
   5514   5512   5511   5518     1  0.0000000  1.0460000  1
   5514   5512   5511   5518     1  0.0000000  0.0000000  3
   5514   5512   5511   5515     1  0.0000000  0.6508444  3
   5514   5512   5513   5517     1  0.0000000  1.0460000  1
   5514   5512   5513   5517     1  0.0000000  0.0000000  3
   5514   5512   5513   5526     1  0.0000000  1.0460000  1
   5514   5512   5513   5526     1  0.0000000  0.0000000  3
   5514   5512   5513   5516     1  0.0000000  0.6508444  3
   5514   5512   5531   5521     1  0.0000000  1.2552000  3
   5515   5511   5509   5529     1  0.0000000  1.0460000  1
   5515   5511   5509   5529     1  0.0000000  0.0000000  3
   5515   5511   5509   5528     1  0.0000000  0.6508444  3
   5515   5511   5512   5531     1  0.0000000  0.6508444  3
   5515   5511   5518   5520     1  0.0000000  0.6973333  3
   5516   5513   5512   5531     1  0.0000000  0.6508444  3
   5516   5513   5517   5527     1  0.0000000  0.6973333  3
   5518   5511   5509   5528     1  0.0000000  1.0460000  1
   5518   5511   5509   5528     1  0.0000000  0.0000000  3
   5519   5508   5509   5528     1  0.0000000  0.6508444  3
   5522   5519   5508   5526     1  0.0000000  1.0460000  1
   5522   5519   5508   5526     1  0.0000000  0.0000000  3
   5522   5519   5524   5525     1  0.0000000  0.6973333  3
   5523   5519   5508   5526     1  0.0000000  1.0460000  1
   5523   5519   5508   5526     1  0.0000000  0.0000000  3
   5523   5519   5524   5525     1  0.0000000  0.6973333  3
   5526   5508   5509   5528     1  0.0000000  1.0460000  1
   5526   5508   5509   5528     1  0.0000000  0.0000000  3
   5526   5513   5517   5527     1  0.0000000  0.6973333  3
   5528   5509   5529   5530     1  0.0000000  0.6973333  3
   5532   5533   5535   5539     1  0.0000000  0.6508444  3
   5532   5533   5553   5554     1  0.0000000  1.0460000  1
   5532   5533   5553   5554     1  0.0000000  0.6694400  3
   5532   5543   5548   5549     1  0.0000000  1.0460000  1
   5532   5543   5548   5549     1  0.0000000  0.6694400  3
   5532   5550   5537   5540     1  0.0000000  1.6038667  3
   5533   5532   5543   5546     1  0.0000000  0.6508444  3
   5533   5532   5543   5547     1  0.0000000  0.6508444  3
   5533   5535   5536   5538     1  0.0000000  0.6508444  3
   5533   5535   5542   5544     1  0.0000000  1.0460000  1
   5533   5535   5542   5544     1  0.0000000  0.6694400  3
   5534   5532   5533   5535     1  0.0000000  0.6508444  3
   5534   5532   5533   5553     1  0.0000000  1.0460000  1
   5534   5532   5533   5553     1  0.0000000  0.0000000  3
   5534   5532   5533   5552     1  0.0000000  0.6508444  3
   5534   5532   5543   5548     1  0.0000000  1.0460000  1
   5534   5532   5543   5548     1  0.0000000  0.0000000  3
   5534   5532   5543   5546     1  0.0000000  0.6508444  3
   5534   5532   5543   5547     1  0.0000000  0.6508444  3
   5534   5532   5550   5537     1  0.0000000  1.6038667  3
   5535   5533   5553   5554     1  0.0000000  1.0460000  1
   5535   5533   5553   5554     1  0.0000000  0.6694400  3
   5535   5536   5537   5540     1  0.0000000  0.6508444  3
   5535   5536   5555   5545     1  0.0000000  1.2552000  3
   5536   5535   5533   5552     1  0.0000000  0.6508444  3
   5536   5535   5542   5544     1  0.0000000  1.0460000  1
   5536   5535   5542   5544     1  0.0000000  0.6694400  3
   5536   5537   5541   5551     1  0.0000000  1.0460000  1
   5536   5537   5541   5551     1  0.0000000  0.6694400  3
   5537   5536   5535   5539     1  0.0000000  0.6508444  3
   5537   5536   5555   5545     1  0.0000000  1.2552000  3
   5538   5536   5535   5542     1  0.0000000  1.0460000  1
   5538   5536   5535   5542     1  0.0000000  0.0000000  3
   5538   5536   5535   5539     1  0.0000000  0.6508444  3
   5538   5536   5537   5541     1  0.0000000  1.0460000  1
   5538   5536   5537   5541     1  0.0000000  0.0000000  3
   5538   5536   5537   5550     1  0.0000000  1.0460000  1
   5538   5536   5537   5550     1  0.0000000  0.0000000  3
   5538   5536   5537   5540     1  0.0000000  0.6508444  3
   5538   5536   5555   5545     1  0.0000000  1.2552000  3
   5539   5535   5533   5553     1  0.0000000  1.0460000  1
   5539   5535   5533   5553     1  0.0000000  0.0000000  3
   5539   5535   5533   5552     1  0.0000000  0.6508444  3
   5539   5535   5536   5555     1  0.0000000  0.6508444  3
   5539   5535   5542   5544     1  0.0000000  0.6973333  3
   5540   5537   5536   5555     1  0.0000000  0.6508444  3
   5540   5537   5541   5551     1  0.0000000  0.6973333  3
   5542   5535   5533   5552     1  0.0000000  1.0460000  1
   5542   5535   5533   5552     1  0.0000000  0.0000000  3
   5543   5532   5533   5552     1  0.0000000  0.6508444  3
   5546   5543   5532   5550     1  0.0000000  1.0460000  1
   5546   5543   5532   5550     1  0.0000000  0.0000000  3
   5546   5543   5548   5549     1  0.0000000  0.6973333  3
   5547   5543   5532   5550     1  0.0000000  1.0460000  1
   5547   5543   5532   5550     1  0.0000000  0.0000000  3
   5547   5543   5548   5549     1  0.0000000  0.6973333  3
   5550   5532   5533   5552     1  0.0000000  1.0460000  1
   5550   5532   5533   5552     1  0.0000000  0.0000000  3
   5550   5537   5541   5551     1  0.0000000  0.6973333  3
   5552   5533   5553   5554     1  0.0000000  0.6973333  3
   5556   5558   5560   5562     1  0.0000000  0.6508444  3
   5556   5558   5560   5563     1  0.0000000  0.6508444  3
   5557   5556   5558   5560     1  0.0000000  0.0000000  2
   5557   5556   5558   5559     1  0.0000000  0.0000000  2
   5557   5556   5558   5561     1  0.0000000  0.0000000  2
   5559   5558   5560   5564     1  0.0000000  0.6508444  3
   5559   5558   5560   5562     1  0.0000000  0.6508444  3
   5559   5558   5560   5563     1  0.0000000  0.6508444  3
   5560   5564   5565   5574     1  0.0000000  1.2552000  3
   5560   5564   5565   5575     1  0.0000000  1.2552000  3
   5560   5564   5566   5567     1  0.0000000  1.2552000  3
   5560   5564   5566   5569     1  0.0000000  1.2552000  3
   5561   5558   5560   5564     1  0.0000000  0.6508444  3
   5561   5558   5560   5562     1  0.0000000  0.6508444  3
   5561   5558   5560   5563     1  0.0000000  0.6508444  3
   5562   5560   5564   5565     1  0.0000000  1.2552000  3
   5562   5560   5564   5566     1  0.0000000  1.2552000  3
   5563   5560   5564   5565     1  0.0000000  1.2552000  3
   5563   5560   5564   5566     1  0.0000000  1.2552000  3
   5564   5565   5576   5577     1  0.0000000  0.6508444  3
   5564   5565   5576   5578     1  0.0000000  0.6508444  3
   5564   5566   5568   5570     1  0.0000000  0.6508444  3
   5564   5566   5568   5571     1  0.0000000  0.6508444  3
   5565   5564   5566   5567     1  0.0000000  1.2552000  3
   5565   5564   5566   5569     1  0.0000000  1.2552000  3
   5566   5564   5565   5574     1  0.0000000  1.2552000  3
   5566   5564   5565   5575     1  0.0000000  1.2552000  3
   5567   5566   5568   5572     1  0.0000000  0.6508444  3
   5567   5566   5568   5570     1  0.0000000  0.6508444  3
   5567   5566   5568   5571     1  0.0000000  0.6508444  3
   5568   5572   5604   5594     1  180.0000771  6.0668000  2
   5568   5572   5604   5594     1  180.0000771  1.4644000  4
   5569   5566   5568   5572     1  0.0000000  0.6508444  3
   5569   5566   5568   5570     1  0.0000000  0.6508444  3
   5569   5566   5568   5571     1  0.0000000  0.6508444  3
   5570   5568   5572   5573     1  0.0000000  3.3472000  1
   5570   5568   5572   5573     1  0.0000000  0.0000000  2
   5570   5568   5572   5573     1  180.0000771  0.3347200  3
   5570   5568   5572   5604     1  180.0000771  0.0000000  2
   5571   5568   5572   5573     1  0.0000000  3.3472000  1
   5571   5568   5572   5573     1  0.0000000  0.0000000  2
   5571   5568   5572   5573     1  180.0000771  0.3347200  3
   5571   5568   5572   5604     1  180.0000771  0.0000000  2
   5572   5604   5585   5587     1  0.0000000  1.2552000  3
   5573   5572   5604   5594     1  180.0000771  6.0668000  2
   5573   5572   5604   5594     1  180.0000771  1.4644000  4
   5574   5565   5576   5579     1  0.0000000  0.6508444  3
   5574   5565   5576   5577     1  0.0000000  0.6508444  3
   5574   5565   5576   5578     1  0.0000000  0.6508444  3
   5575   5565   5576   5579     1  0.0000000  0.6508444  3
   5575   5565   5576   5577     1  0.0000000  0.6508444  3
   5575   5565   5576   5578     1  0.0000000  0.6508444  3
   5576   5579   5628   5618     1  180.0000771  6.0668000  2
   5576   5579   5628   5618     1  180.0000771  1.4644000  4
   5577   5576   5579   5580     1  0.0000000  3.3472000  1
   5577   5576   5579   5580     1  0.0000000  0.0000000  2
   5577   5576   5579   5580     1  180.0000771  0.3347200  3
   5577   5576   5579   5628     1  180.0000771  0.0000000  2
   5578   5576   5579   5580     1  0.0000000  3.3472000  1
   5578   5576   5579   5580     1  0.0000000  0.0000000  2
   5578   5576   5579   5580     1  180.0000771  0.3347200  3
   5578   5576   5579   5628     1  180.0000771  0.0000000  2
   5579   5628   5609   5611     1  0.0000000  1.2552000  3
   5580   5579   5628   5618     1  180.0000771  6.0668000  2
   5580   5579   5628   5618     1  180.0000771  1.4644000  4
   5581   5582   5584   5588     1  0.0000000  0.6508444  3
   5581   5582   5602   5603     1  0.0000000  1.0460000  1
   5581   5582   5602   5603     1  0.0000000  0.6694400  3
   5581   5592   5597   5598     1  0.0000000  1.0460000  1
   5581   5592   5597   5598     1  0.0000000  0.6694400  3
   5581   5599   5586   5589     1  0.0000000  1.6038667  3
   5582   5584   5585   5587     1  0.0000000  0.6508444  3
   5582   5584   5591   5593     1  0.0000000  1.0460000  1
   5582   5584   5591   5593     1  0.0000000  0.6694400  3
   5582   5581   5592   5595     1  0.0000000  0.6508444  3
   5582   5581   5592   5596     1  0.0000000  0.6508444  3
   5583   5581   5582   5584     1  0.0000000  0.6508444  3
   5583   5581   5582   5602     1  0.0000000  1.0460000  1
   5583   5581   5582   5602     1  0.0000000  0.0000000  3
   5583   5581   5582   5601     1  0.0000000  0.6508444  3
   5583   5581   5592   5597     1  0.0000000  1.0460000  1
   5583   5581   5592   5597     1  0.0000000  0.0000000  3
   5583   5581   5592   5595     1  0.0000000  0.6508444  3
   5583   5581   5592   5596     1  0.0000000  0.6508444  3
   5583   5581   5599   5586     1  0.0000000  1.6038667  3
   5584   5585   5586   5589     1  0.0000000  0.6508444  3
   5584   5585   5604   5594     1  0.0000000  1.2552000  3
   5584   5582   5602   5603     1  0.0000000  1.0460000  1
   5584   5582   5602   5603     1  0.0000000  0.6694400  3
   5585   5586   5590   5600     1  0.0000000  1.0460000  1
   5585   5586   5590   5600     1  0.0000000  0.6694400  3
   5585   5584   5591   5593     1  0.0000000  1.0460000  1
   5585   5584   5591   5593     1  0.0000000  0.6694400  3
   5585   5584   5582   5601     1  0.0000000  0.6508444  3
   5586   5585   5604   5594     1  0.0000000  1.2552000  3
   5586   5585   5584   5588     1  0.0000000  0.6508444  3
   5587   5585   5586   5590     1  0.0000000  1.0460000  1
   5587   5585   5586   5590     1  0.0000000  0.0000000  3
   5587   5585   5586   5599     1  0.0000000  1.0460000  1
   5587   5585   5586   5599     1  0.0000000  0.0000000  3
   5587   5585   5586   5589     1  0.0000000  0.6508444  3
   5587   5585   5604   5594     1  0.0000000  1.2552000  3
   5587   5585   5584   5591     1  0.0000000  1.0460000  1
   5587   5585   5584   5591     1  0.0000000  0.0000000  3
   5587   5585   5584   5588     1  0.0000000  0.6508444  3
   5588   5584   5585   5604     1  0.0000000  0.6508444  3
   5588   5584   5591   5593     1  0.0000000  0.6973333  3
   5588   5584   5582   5602     1  0.0000000  1.0460000  1
   5588   5584   5582   5602     1  0.0000000  0.0000000  3
   5588   5584   5582   5601     1  0.0000000  0.6508444  3
   5589   5586   5590   5600     1  0.0000000  0.6973333  3
   5589   5586   5585   5604     1  0.0000000  0.6508444  3
   5591   5584   5582   5601     1  0.0000000  1.0460000  1
   5591   5584   5582   5601     1  0.0000000  0.0000000  3
   5592   5581   5582   5601     1  0.0000000  0.6508444  3
   5595   5592   5597   5598     1  0.0000000  0.6973333  3
   5595   5592   5581   5599     1  0.0000000  1.0460000  1
   5595   5592   5581   5599     1  0.0000000  0.0000000  3
   5596   5592   5597   5598     1  0.0000000  0.6973333  3
   5596   5592   5581   5599     1  0.0000000  1.0460000  1
   5596   5592   5581   5599     1  0.0000000  0.0000000  3
   5599   5586   5590   5600     1  0.0000000  0.6973333  3
   5599   5581   5582   5601     1  0.0000000  1.0460000  1
   5599   5581   5582   5601     1  0.0000000  0.0000000  3
   5601   5582   5602   5603     1  0.0000000  0.6973333  3
   5605   5606   5608   5612     1  0.0000000  0.6508444  3
   5605   5606   5626   5627     1  0.0000000  1.0460000  1
   5605   5606   5626   5627     1  0.0000000  0.6694400  3
   5605   5616   5621   5622     1  0.0000000  1.0460000  1
   5605   5616   5621   5622     1  0.0000000  0.6694400  3
   5605   5623   5610   5613     1  0.0000000  1.6038667  3
   5606   5608   5609   5611     1  0.0000000  0.6508444  3
   5606   5608   5615   5617     1  0.0000000  1.0460000  1
   5606   5608   5615   5617     1  0.0000000  0.6694400  3
   5606   5605   5616   5619     1  0.0000000  0.6508444  3
   5606   5605   5616   5620     1  0.0000000  0.6508444  3
   5607   5605   5606   5608     1  0.0000000  0.6508444  3
   5607   5605   5606   5626     1  0.0000000  1.0460000  1
   5607   5605   5606   5626     1  0.0000000  0.0000000  3
   5607   5605   5606   5625     1  0.0000000  0.6508444  3
   5607   5605   5616   5621     1  0.0000000  1.0460000  1
   5607   5605   5616   5621     1  0.0000000  0.0000000  3
   5607   5605   5616   5619     1  0.0000000  0.6508444  3
   5607   5605   5616   5620     1  0.0000000  0.6508444  3
   5607   5605   5623   5610     1  0.0000000  1.6038667  3
   5608   5609   5610   5613     1  0.0000000  0.6508444  3
   5608   5609   5628   5618     1  0.0000000  1.2552000  3
   5608   5606   5626   5627     1  0.0000000  1.0460000  1
   5608   5606   5626   5627     1  0.0000000  0.6694400  3
   5609   5610   5614   5624     1  0.0000000  1.0460000  1
   5609   5610   5614   5624     1  0.0000000  0.6694400  3
   5609   5608   5615   5617     1  0.0000000  1.0460000  1
   5609   5608   5615   5617     1  0.0000000  0.6694400  3
   5609   5608   5606   5625     1  0.0000000  0.6508444  3
   5610   5609   5628   5618     1  0.0000000  1.2552000  3
   5610   5609   5608   5612     1  0.0000000  0.6508444  3
   5611   5609   5610   5614     1  0.0000000  1.0460000  1
   5611   5609   5610   5614     1  0.0000000  0.0000000  3
   5611   5609   5610   5623     1  0.0000000  1.0460000  1
   5611   5609   5610   5623     1  0.0000000  0.0000000  3
   5611   5609   5610   5613     1  0.0000000  0.6508444  3
   5611   5609   5628   5618     1  0.0000000  1.2552000  3
   5611   5609   5608   5615     1  0.0000000  1.0460000  1
   5611   5609   5608   5615     1  0.0000000  0.0000000  3
   5611   5609   5608   5612     1  0.0000000  0.6508444  3
   5612   5608   5609   5628     1  0.0000000  0.6508444  3
   5612   5608   5615   5617     1  0.0000000  0.6973333  3
   5612   5608   5606   5626     1  0.0000000  1.0460000  1
   5612   5608   5606   5626     1  0.0000000  0.0000000  3
   5612   5608   5606   5625     1  0.0000000  0.6508444  3
   5613   5610   5614   5624     1  0.0000000  0.6973333  3
   5613   5610   5609   5628     1  0.0000000  0.6508444  3
   5615   5608   5606   5625     1  0.0000000  1.0460000  1
   5615   5608   5606   5625     1  0.0000000  0.0000000  3
   5616   5605   5606   5625     1  0.0000000  0.6508444  3
   5619   5616   5621   5622     1  0.0000000  0.6973333  3
   5619   5616   5605   5623     1  0.0000000  1.0460000  1
   5619   5616   5605   5623     1  0.0000000  0.0000000  3
   5620   5616   5621   5622     1  0.0000000  0.6973333  3
   5620   5616   5605   5623     1  0.0000000  1.0460000  1
   5620   5616   5605   5623     1  0.0000000  0.0000000  3
   5623   5610   5614   5624     1  0.0000000  0.6973333  3
   5623   5605   5606   5625     1  0.0000000  1.0460000  1
   5623   5605   5606   5625     1  0.0000000  0.0000000  3
   5625   5606   5626   5627     1  0.0000000  0.6973333  3
   5629   5631   5633   5635     1  0.0000000  0.6508444  3
   5629   5631   5633   5636     1  0.0000000  0.6508444  3
   5630   5629   5631   5633     1  0.0000000  0.0000000  2
   5630   5629   5631   5632     1  0.0000000  0.0000000  2
   5630   5629   5631   5634     1  0.0000000  0.0000000  2
   5632   5631   5633   5637     1  0.0000000  0.6508444  3
   5632   5631   5633   5635     1  0.0000000  0.6508444  3
   5632   5631   5633   5636     1  0.0000000  0.6508444  3
   5633   5637   5638   5647     1  0.0000000  1.2552000  3
   5633   5637   5638   5648     1  0.0000000  1.2552000  3
   5633   5637   5639   5640     1  0.0000000  1.2552000  3
   5633   5637   5639   5642     1  0.0000000  1.2552000  3
   5634   5631   5633   5637     1  0.0000000  0.6508444  3
   5634   5631   5633   5635     1  0.0000000  0.6508444  3
   5634   5631   5633   5636     1  0.0000000  0.6508444  3
   5635   5633   5637   5638     1  0.0000000  1.2552000  3
   5635   5633   5637   5639     1  0.0000000  1.2552000  3
   5636   5633   5637   5638     1  0.0000000  1.2552000  3
   5636   5633   5637   5639     1  0.0000000  1.2552000  3
   5637   5638   5649   5650     1  0.0000000  0.6508444  3
   5637   5638   5649   5651     1  0.0000000  0.6508444  3
   5637   5639   5641   5643     1  0.0000000  0.6508444  3
   5637   5639   5641   5644     1  0.0000000  0.6508444  3
   5638   5637   5639   5640     1  0.0000000  1.2552000  3
   5638   5637   5639   5642     1  0.0000000  1.2552000  3
   5639   5637   5638   5647     1  0.0000000  1.2552000  3
   5639   5637   5638   5648     1  0.0000000  1.2552000  3
   5640   5639   5641   5645     1  0.0000000  0.6508444  3
   5640   5639   5641   5643     1  0.0000000  0.6508444  3
   5640   5639   5641   5644     1  0.0000000  0.6508444  3
   5641   5645   5677   5667     1  180.0000771  6.0668000  2
   5641   5645   5677   5667     1  180.0000771  1.4644000  4
   5642   5639   5641   5645     1  0.0000000  0.6508444  3
   5642   5639   5641   5643     1  0.0000000  0.6508444  3
   5642   5639   5641   5644     1  0.0000000  0.6508444  3
   5643   5641   5645   5646     1  0.0000000  3.3472000  1
   5643   5641   5645   5646     1  0.0000000  0.0000000  2
   5643   5641   5645   5646     1  180.0000771  0.3347200  3
   5643   5641   5645   5677     1  180.0000771  0.0000000  2
   5644   5641   5645   5646     1  0.0000000  3.3472000  1
   5644   5641   5645   5646     1  0.0000000  0.0000000  2
   5644   5641   5645   5646     1  180.0000771  0.3347200  3
   5644   5641   5645   5677     1  180.0000771  0.0000000  2
   5645   5677   5658   5660     1  0.0000000  1.2552000  3
   5646   5645   5677   5667     1  180.0000771  6.0668000  2
   5646   5645   5677   5667     1  180.0000771  1.4644000  4
   5647   5638   5649   5652     1  0.0000000  0.6508444  3
   5647   5638   5649   5650     1  0.0000000  0.6508444  3
   5647   5638   5649   5651     1  0.0000000  0.6508444  3
   5648   5638   5649   5652     1  0.0000000  0.6508444  3
   5648   5638   5649   5650     1  0.0000000  0.6508444  3
   5648   5638   5649   5651     1  0.0000000  0.6508444  3
   5649   5652   5701   5691     1  180.0000771  6.0668000  2
   5649   5652   5701   5691     1  180.0000771  1.4644000  4
   5650   5649   5652   5653     1  0.0000000  3.3472000  1
   5650   5649   5652   5653     1  0.0000000  0.0000000  2
   5650   5649   5652   5653     1  180.0000771  0.3347200  3
   5650   5649   5652   5701     1  180.0000771  0.0000000  2
   5651   5649   5652   5653     1  0.0000000  3.3472000  1
   5651   5649   5652   5653     1  0.0000000  0.0000000  2
   5651   5649   5652   5653     1  180.0000771  0.3347200  3
   5651   5649   5652   5701     1  180.0000771  0.0000000  2
   5652   5701   5682   5684     1  0.0000000  1.2552000  3
   5653   5652   5701   5691     1  180.0000771  6.0668000  2
   5653   5652   5701   5691     1  180.0000771  1.4644000  4
   5654   5655   5657   5661     1  0.0000000  0.6508444  3
   5654   5655   5675   5676     1  0.0000000  1.0460000  1
   5654   5655   5675   5676     1  0.0000000  0.6694400  3
   5654   5665   5670   5671     1  0.0000000  1.0460000  1
   5654   5665   5670   5671     1  0.0000000  0.6694400  3
   5654   5672   5659   5662     1  0.0000000  1.6038667  3
   5655   5654   5665   5668     1  0.0000000  0.6508444  3
   5655   5654   5665   5669     1  0.0000000  0.6508444  3
   5655   5657   5658   5660     1  0.0000000  0.6508444  3
   5655   5657   5664   5666     1  0.0000000  1.0460000  1
   5655   5657   5664   5666     1  0.0000000  0.6694400  3
   5656   5654   5655   5657     1  0.0000000  0.6508444  3
   5656   5654   5655   5675     1  0.0000000  1.0460000  1
   5656   5654   5655   5675     1  0.0000000  0.0000000  3
   5656   5654   5655   5674     1  0.0000000  0.6508444  3
   5656   5654   5665   5670     1  0.0000000  1.0460000  1
   5656   5654   5665   5670     1  0.0000000  0.0000000  3
   5656   5654   5665   5668     1  0.0000000  0.6508444  3
   5656   5654   5665   5669     1  0.0000000  0.6508444  3
   5656   5654   5672   5659     1  0.0000000  1.6038667  3
   5657   5655   5675   5676     1  0.0000000  1.0460000  1
   5657   5655   5675   5676     1  0.0000000  0.6694400  3
   5657   5658   5659   5662     1  0.0000000  0.6508444  3
   5657   5658   5677   5667     1  0.0000000  1.2552000  3
   5658   5657   5655   5674     1  0.0000000  0.6508444  3
   5658   5657   5664   5666     1  0.0000000  1.0460000  1
   5658   5657   5664   5666     1  0.0000000  0.6694400  3
   5658   5659   5663   5673     1  0.0000000  1.0460000  1
   5658   5659   5663   5673     1  0.0000000  0.6694400  3
   5659   5658   5657   5661     1  0.0000000  0.6508444  3
   5659   5658   5677   5667     1  0.0000000  1.2552000  3
   5660   5658   5657   5664     1  0.0000000  1.0460000  1
   5660   5658   5657   5664     1  0.0000000  0.0000000  3
   5660   5658   5657   5661     1  0.0000000  0.6508444  3
   5660   5658   5659   5663     1  0.0000000  1.0460000  1
   5660   5658   5659   5663     1  0.0000000  0.0000000  3
   5660   5658   5659   5672     1  0.0000000  1.0460000  1
   5660   5658   5659   5672     1  0.0000000  0.0000000  3
   5660   5658   5659   5662     1  0.0000000  0.6508444  3
   5660   5658   5677   5667     1  0.0000000  1.2552000  3
   5661   5657   5655   5675     1  0.0000000  1.0460000  1
   5661   5657   5655   5675     1  0.0000000  0.0000000  3
   5661   5657   5655   5674     1  0.0000000  0.6508444  3
   5661   5657   5658   5677     1  0.0000000  0.6508444  3
   5661   5657   5664   5666     1  0.0000000  0.6973333  3
   5662   5659   5658   5677     1  0.0000000  0.6508444  3
   5662   5659   5663   5673     1  0.0000000  0.6973333  3
   5664   5657   5655   5674     1  0.0000000  1.0460000  1
   5664   5657   5655   5674     1  0.0000000  0.0000000  3
   5665   5654   5655   5674     1  0.0000000  0.6508444  3
   5668   5665   5654   5672     1  0.0000000  1.0460000  1
   5668   5665   5654   5672     1  0.0000000  0.0000000  3
   5668   5665   5670   5671     1  0.0000000  0.6973333  3
   5669   5665   5654   5672     1  0.0000000  1.0460000  1
   5669   5665   5654   5672     1  0.0000000  0.0000000  3
   5669   5665   5670   5671     1  0.0000000  0.6973333  3
   5672   5654   5655   5674     1  0.0000000  1.0460000  1
   5672   5654   5655   5674     1  0.0000000  0.0000000  3
   5672   5659   5663   5673     1  0.0000000  0.6973333  3
   5674   5655   5675   5676     1  0.0000000  0.6973333  3
   5678   5679   5681   5685     1  0.0000000  0.6508444  3
   5678   5679   5699   5700     1  0.0000000  1.0460000  1
   5678   5679   5699   5700     1  0.0000000  0.6694400  3
   5678   5689   5694   5695     1  0.0000000  1.0460000  1
   5678   5689   5694   5695     1  0.0000000  0.6694400  3
   5678   5696   5683   5686     1  0.0000000  1.6038667  3
   5679   5678   5689   5692     1  0.0000000  0.6508444  3
   5679   5678   5689   5693     1  0.0000000  0.6508444  3
   5679   5681   5682   5684     1  0.0000000  0.6508444  3
   5679   5681   5688   5690     1  0.0000000  1.0460000  1
   5679   5681   5688   5690     1  0.0000000  0.6694400  3
   5680   5678   5679   5681     1  0.0000000  0.6508444  3
   5680   5678   5679   5699     1  0.0000000  1.0460000  1
   5680   5678   5679   5699     1  0.0000000  0.0000000  3
   5680   5678   5679   5698     1  0.0000000  0.6508444  3
   5680   5678   5689   5694     1  0.0000000  1.0460000  1
   5680   5678   5689   5694     1  0.0000000  0.0000000  3
   5680   5678   5689   5692     1  0.0000000  0.6508444  3
   5680   5678   5689   5693     1  0.0000000  0.6508444  3
   5680   5678   5696   5683     1  0.0000000  1.6038667  3
   5681   5679   5699   5700     1  0.0000000  1.0460000  1
   5681   5679   5699   5700     1  0.0000000  0.6694400  3
   5681   5682   5683   5686     1  0.0000000  0.6508444  3
   5681   5682   5701   5691     1  0.0000000  1.2552000  3
   5682   5681   5679   5698     1  0.0000000  0.6508444  3
   5682   5681   5688   5690     1  0.0000000  1.0460000  1
   5682   5681   5688   5690     1  0.0000000  0.6694400  3
   5682   5683   5687   5697     1  0.0000000  1.0460000  1
   5682   5683   5687   5697     1  0.0000000  0.6694400  3
   5683   5682   5681   5685     1  0.0000000  0.6508444  3
   5683   5682   5701   5691     1  0.0000000  1.2552000  3
   5684   5682   5681   5688     1  0.0000000  1.0460000  1
   5684   5682   5681   5688     1  0.0000000  0.0000000  3
   5684   5682   5681   5685     1  0.0000000  0.6508444  3
   5684   5682   5683   5687     1  0.0000000  1.0460000  1
   5684   5682   5683   5687     1  0.0000000  0.0000000  3
   5684   5682   5683   5696     1  0.0000000  1.0460000  1
   5684   5682   5683   5696     1  0.0000000  0.0000000  3
   5684   5682   5683   5686     1  0.0000000  0.6508444  3
   5684   5682   5701   5691     1  0.0000000  1.2552000  3
   5685   5681   5679   5699     1  0.0000000  1.0460000  1
   5685   5681   5679   5699     1  0.0000000  0.0000000  3
   5685   5681   5679   5698     1  0.0000000  0.6508444  3
   5685   5681   5682   5701     1  0.0000000  0.6508444  3
   5685   5681   5688   5690     1  0.0000000  0.6973333  3
   5686   5683   5682   5701     1  0.0000000  0.6508444  3
   5686   5683   5687   5697     1  0.0000000  0.6973333  3
   5688   5681   5679   5698     1  0.0000000  1.0460000  1
   5688   5681   5679   5698     1  0.0000000  0.0000000  3
   5689   5678   5679   5698     1  0.0000000  0.6508444  3
   5692   5689   5678   5696     1  0.0000000  1.0460000  1
   5692   5689   5678   5696     1  0.0000000  0.0000000  3
   5692   5689   5694   5695     1  0.0000000  0.6973333  3
   5693   5689   5678   5696     1  0.0000000  1.0460000  1
   5693   5689   5678   5696     1  0.0000000  0.0000000  3
   5693   5689   5694   5695     1  0.0000000  0.6973333  3
   5696   5678   5679   5698     1  0.0000000  1.0460000  1
   5696   5678   5679   5698     1  0.0000000  0.0000000  3
   5696   5683   5687   5697     1  0.0000000  0.6973333  3
   5698   5679   5699   5700     1  0.0000000  0.6973333  3
   5702   5704   5706   5708     1  0.0000000  0.6508444  3
   5702   5704   5706   5709     1  0.0000000  0.6508444  3
   5703   5702   5704   5706     1  0.0000000  0.0000000  2
   5703   5702   5704   5705     1  0.0000000  0.0000000  2
   5703   5702   5704   5707     1  0.0000000  0.0000000  2
   5705   5704   5706   5710     1  0.0000000  0.6508444  3
   5705   5704   5706   5708     1  0.0000000  0.6508444  3
   5705   5704   5706   5709     1  0.0000000  0.6508444  3
   5706   5710   5711   5720     1  0.0000000  1.2552000  3
   5706   5710   5711   5721     1  0.0000000  1.2552000  3
   5706   5710   5712   5713     1  0.0000000  1.2552000  3
   5706   5710   5712   5715     1  0.0000000  1.2552000  3
   5707   5704   5706   5710     1  0.0000000  0.6508444  3
   5707   5704   5706   5708     1  0.0000000  0.6508444  3
   5707   5704   5706   5709     1  0.0000000  0.6508444  3
   5708   5706   5710   5711     1  0.0000000  1.2552000  3
   5708   5706   5710   5712     1  0.0000000  1.2552000  3
   5709   5706   5710   5711     1  0.0000000  1.2552000  3
   5709   5706   5710   5712     1  0.0000000  1.2552000  3
   5710   5711   5722   5723     1  0.0000000  0.6508444  3
   5710   5711   5722   5724     1  0.0000000  0.6508444  3
   5710   5712   5714   5716     1  0.0000000  0.6508444  3
   5710   5712   5714   5717     1  0.0000000  0.6508444  3
   5711   5710   5712   5713     1  0.0000000  1.2552000  3
   5711   5710   5712   5715     1  0.0000000  1.2552000  3
   5712   5710   5711   5720     1  0.0000000  1.2552000  3
   5712   5710   5711   5721     1  0.0000000  1.2552000  3
   5713   5712   5714   5718     1  0.0000000  0.6508444  3
   5713   5712   5714   5716     1  0.0000000  0.6508444  3
   5713   5712   5714   5717     1  0.0000000  0.6508444  3
   5714   5718   5750   5740     1  180.0000771  6.0668000  2
   5714   5718   5750   5740     1  180.0000771  1.4644000  4
   5715   5712   5714   5718     1  0.0000000  0.6508444  3
   5715   5712   5714   5716     1  0.0000000  0.6508444  3
   5715   5712   5714   5717     1  0.0000000  0.6508444  3
   5716   5714   5718   5719     1  0.0000000  3.3472000  1
   5716   5714   5718   5719     1  0.0000000  0.0000000  2
   5716   5714   5718   5719     1  180.0000771  0.3347200  3
   5716   5714   5718   5750     1  180.0000771  0.0000000  2
   5717   5714   5718   5719     1  0.0000000  3.3472000  1
   5717   5714   5718   5719     1  0.0000000  0.0000000  2
   5717   5714   5718   5719     1  180.0000771  0.3347200  3
   5717   5714   5718   5750     1  180.0000771  0.0000000  2
   5718   5750   5731   5733     1  0.0000000  1.2552000  3
   5719   5718   5750   5740     1  180.0000771  6.0668000  2
   5719   5718   5750   5740     1  180.0000771  1.4644000  4
   5720   5711   5722   5725     1  0.0000000  0.6508444  3
   5720   5711   5722   5723     1  0.0000000  0.6508444  3
   5720   5711   5722   5724     1  0.0000000  0.6508444  3
   5721   5711   5722   5725     1  0.0000000  0.6508444  3
   5721   5711   5722   5723     1  0.0000000  0.6508444  3
   5721   5711   5722   5724     1  0.0000000  0.6508444  3
   5722   5725   5774   5764     1  180.0000771  6.0668000  2
   5722   5725   5774   5764     1  180.0000771  1.4644000  4
   5723   5722   5725   5726     1  0.0000000  3.3472000  1
   5723   5722   5725   5726     1  0.0000000  0.0000000  2
   5723   5722   5725   5726     1  180.0000771  0.3347200  3
   5723   5722   5725   5774     1  180.0000771  0.0000000  2
   5724   5722   5725   5726     1  0.0000000  3.3472000  1
   5724   5722   5725   5726     1  0.0000000  0.0000000  2
   5724   5722   5725   5726     1  180.0000771  0.3347200  3
   5724   5722   5725   5774     1  180.0000771  0.0000000  2
   5725   5774   5755   5757     1  0.0000000  1.2552000  3
   5726   5725   5774   5764     1  180.0000771  6.0668000  2
   5726   5725   5774   5764     1  180.0000771  1.4644000  4
   5727   5728   5730   5734     1  0.0000000  0.6508444  3
   5727   5728   5748   5749     1  0.0000000  1.0460000  1
   5727   5728   5748   5749     1  0.0000000  0.6694400  3
   5727   5738   5743   5744     1  0.0000000  1.0460000  1
   5727   5738   5743   5744     1  0.0000000  0.6694400  3
   5727   5745   5732   5735     1  0.0000000  1.6038667  3
   5728   5730   5731   5733     1  0.0000000  0.6508444  3
   5728   5730   5737   5739     1  0.0000000  1.0460000  1
   5728   5730   5737   5739     1  0.0000000  0.6694400  3
   5728   5727   5738   5741     1  0.0000000  0.6508444  3
   5728   5727   5738   5742     1  0.0000000  0.6508444  3
   5729   5727   5728   5730     1  0.0000000  0.6508444  3
   5729   5727   5728   5748     1  0.0000000  1.0460000  1
   5729   5727   5728   5748     1  0.0000000  0.0000000  3
   5729   5727   5728   5747     1  0.0000000  0.6508444  3
   5729   5727   5738   5743     1  0.0000000  1.0460000  1
   5729   5727   5738   5743     1  0.0000000  0.0000000  3
   5729   5727   5738   5741     1  0.0000000  0.6508444  3
   5729   5727   5738   5742     1  0.0000000  0.6508444  3
   5729   5727   5745   5732     1  0.0000000  1.6038667  3
   5730   5731   5732   5735     1  0.0000000  0.6508444  3
   5730   5731   5750   5740     1  0.0000000  1.2552000  3
   5730   5728   5748   5749     1  0.0000000  1.0460000  1
   5730   5728   5748   5749     1  0.0000000  0.6694400  3
   5731   5732   5736   5746     1  0.0000000  1.0460000  1
   5731   5732   5736   5746     1  0.0000000  0.6694400  3
   5731   5730   5737   5739     1  0.0000000  1.0460000  1
   5731   5730   5737   5739     1  0.0000000  0.6694400  3
   5731   5730   5728   5747     1  0.0000000  0.6508444  3
   5732   5731   5750   5740     1  0.0000000  1.2552000  3
   5732   5731   5730   5734     1  0.0000000  0.6508444  3
   5733   5731   5732   5736     1  0.0000000  1.0460000  1
   5733   5731   5732   5736     1  0.0000000  0.0000000  3
   5733   5731   5732   5745     1  0.0000000  1.0460000  1
   5733   5731   5732   5745     1  0.0000000  0.0000000  3
   5733   5731   5732   5735     1  0.0000000  0.6508444  3
   5733   5731   5750   5740     1  0.0000000  1.2552000  3
   5733   5731   5730   5737     1  0.0000000  1.0460000  1
   5733   5731   5730   5737     1  0.0000000  0.0000000  3
   5733   5731   5730   5734     1  0.0000000  0.6508444  3
   5734   5730   5731   5750     1  0.0000000  0.6508444  3
   5734   5730   5737   5739     1  0.0000000  0.6973333  3
   5734   5730   5728   5748     1  0.0000000  1.0460000  1
   5734   5730   5728   5748     1  0.0000000  0.0000000  3
   5734   5730   5728   5747     1  0.0000000  0.6508444  3
   5735   5732   5736   5746     1  0.0000000  0.6973333  3
   5735   5732   5731   5750     1  0.0000000  0.6508444  3
   5737   5730   5728   5747     1  0.0000000  1.0460000  1
   5737   5730   5728   5747     1  0.0000000  0.0000000  3
   5738   5727   5728   5747     1  0.0000000  0.6508444  3
   5741   5738   5743   5744     1  0.0000000  0.6973333  3
   5741   5738   5727   5745     1  0.0000000  1.0460000  1
   5741   5738   5727   5745     1  0.0000000  0.0000000  3
   5742   5738   5743   5744     1  0.0000000  0.6973333  3
   5742   5738   5727   5745     1  0.0000000  1.0460000  1
   5742   5738   5727   5745     1  0.0000000  0.0000000  3
   5745   5732   5736   5746     1  0.0000000  0.6973333  3
   5745   5727   5728   5747     1  0.0000000  1.0460000  1
   5745   5727   5728   5747     1  0.0000000  0.0000000  3
   5747   5728   5748   5749     1  0.0000000  0.6973333  3
   5751   5752   5754   5758     1  0.0000000  0.6508444  3
   5751   5752   5772   5773     1  0.0000000  1.0460000  1
   5751   5752   5772   5773     1  0.0000000  0.6694400  3
   5751   5762   5767   5768     1  0.0000000  1.0460000  1
   5751   5762   5767   5768     1  0.0000000  0.6694400  3
   5751   5769   5756   5759     1  0.0000000  1.6038667  3
   5752   5754   5755   5757     1  0.0000000  0.6508444  3
   5752   5754   5761   5763     1  0.0000000  1.0460000  1
   5752   5754   5761   5763     1  0.0000000  0.6694400  3
   5752   5751   5762   5765     1  0.0000000  0.6508444  3
   5752   5751   5762   5766     1  0.0000000  0.6508444  3
   5753   5751   5752   5754     1  0.0000000  0.6508444  3
   5753   5751   5752   5772     1  0.0000000  1.0460000  1
   5753   5751   5752   5772     1  0.0000000  0.0000000  3
   5753   5751   5752   5771     1  0.0000000  0.6508444  3
   5753   5751   5762   5767     1  0.0000000  1.0460000  1
   5753   5751   5762   5767     1  0.0000000  0.0000000  3
   5753   5751   5762   5765     1  0.0000000  0.6508444  3
   5753   5751   5762   5766     1  0.0000000  0.6508444  3
   5753   5751   5769   5756     1  0.0000000  1.6038667  3
   5754   5755   5756   5759     1  0.0000000  0.6508444  3
   5754   5755   5774   5764     1  0.0000000  1.2552000  3
   5754   5752   5772   5773     1  0.0000000  1.0460000  1
   5754   5752   5772   5773     1  0.0000000  0.6694400  3
   5755   5756   5760   5770     1  0.0000000  1.0460000  1
   5755   5756   5760   5770     1  0.0000000  0.6694400  3
   5755   5754   5761   5763     1  0.0000000  1.0460000  1
   5755   5754   5761   5763     1  0.0000000  0.6694400  3
   5755   5754   5752   5771     1  0.0000000  0.6508444  3
   5756   5755   5774   5764     1  0.0000000  1.2552000  3
   5756   5755   5754   5758     1  0.0000000  0.6508444  3
   5757   5755   5756   5760     1  0.0000000  1.0460000  1
   5757   5755   5756   5760     1  0.0000000  0.0000000  3
   5757   5755   5756   5769     1  0.0000000  1.0460000  1
   5757   5755   5756   5769     1  0.0000000  0.0000000  3
   5757   5755   5756   5759     1  0.0000000  0.6508444  3
   5757   5755   5774   5764     1  0.0000000  1.2552000  3
   5757   5755   5754   5761     1  0.0000000  1.0460000  1
   5757   5755   5754   5761     1  0.0000000  0.0000000  3
   5757   5755   5754   5758     1  0.0000000  0.6508444  3
   5758   5754   5755   5774     1  0.0000000  0.6508444  3
   5758   5754   5761   5763     1  0.0000000  0.6973333  3
   5758   5754   5752   5772     1  0.0000000  1.0460000  1
   5758   5754   5752   5772     1  0.0000000  0.0000000  3
   5758   5754   5752   5771     1  0.0000000  0.6508444  3
   5759   5756   5760   5770     1  0.0000000  0.6973333  3
   5759   5756   5755   5774     1  0.0000000  0.6508444  3
   5761   5754   5752   5771     1  0.0000000  1.0460000  1
   5761   5754   5752   5771     1  0.0000000  0.0000000  3
   5762   5751   5752   5771     1  0.0000000  0.6508444  3
   5765   5762   5767   5768     1  0.0000000  0.6973333  3
   5765   5762   5751   5769     1  0.0000000  1.0460000  1
   5765   5762   5751   5769     1  0.0000000  0.0000000  3
   5766   5762   5767   5768     1  0.0000000  0.6973333  3
   5766   5762   5751   5769     1  0.0000000  1.0460000  1
   5766   5762   5751   5769     1  0.0000000  0.0000000  3
   5769   5756   5760   5770     1  0.0000000  0.6973333  3
   5769   5751   5752   5771     1  0.0000000  1.0460000  1
   5769   5751   5752   5771     1  0.0000000  0.0000000  3
   5771   5752   5772   5773     1  0.0000000  0.6973333  3
   5775   5777   5779   5781     1  0.0000000  0.6508444  3
   5775   5777   5779   5782     1  0.0000000  0.6508444  3
   5776   5775   5777   5779     1  0.0000000  0.0000000  2
   5776   5775   5777   5778     1  0.0000000  0.0000000  2
   5776   5775   5777   5780     1  0.0000000  0.0000000  2
   5778   5777   5779   5783     1  0.0000000  0.6508444  3
   5778   5777   5779   5781     1  0.0000000  0.6508444  3
   5778   5777   5779   5782     1  0.0000000  0.6508444  3
   5779   5783   5784   5793     1  0.0000000  1.2552000  3
   5779   5783   5784   5794     1  0.0000000  1.2552000  3
   5779   5783   5785   5786     1  0.0000000  1.2552000  3
   5779   5783   5785   5788     1  0.0000000  1.2552000  3
   5780   5777   5779   5783     1  0.0000000  0.6508444  3
   5780   5777   5779   5781     1  0.0000000  0.6508444  3
   5780   5777   5779   5782     1  0.0000000  0.6508444  3
   5781   5779   5783   5784     1  0.0000000  1.2552000  3
   5781   5779   5783   5785     1  0.0000000  1.2552000  3
   5782   5779   5783   5784     1  0.0000000  1.2552000  3
   5782   5779   5783   5785     1  0.0000000  1.2552000  3
   5783   5784   5795   5796     1  0.0000000  0.6508444  3
   5783   5784   5795   5797     1  0.0000000  0.6508444  3
   5783   5785   5787   5789     1  0.0000000  0.6508444  3
   5783   5785   5787   5790     1  0.0000000  0.6508444  3
   5784   5783   5785   5786     1  0.0000000  1.2552000  3
   5784   5783   5785   5788     1  0.0000000  1.2552000  3
   5785   5783   5784   5793     1  0.0000000  1.2552000  3
   5785   5783   5784   5794     1  0.0000000  1.2552000  3
   5786   5785   5787   5791     1  0.0000000  0.6508444  3
   5786   5785   5787   5789     1  0.0000000  0.6508444  3
   5786   5785   5787   5790     1  0.0000000  0.6508444  3
   5787   5791   5823   5813     1  180.0000771  6.0668000  2
   5787   5791   5823   5813     1  180.0000771  1.4644000  4
   5788   5785   5787   5791     1  0.0000000  0.6508444  3
   5788   5785   5787   5789     1  0.0000000  0.6508444  3
   5788   5785   5787   5790     1  0.0000000  0.6508444  3
   5789   5787   5791   5792     1  0.0000000  3.3472000  1
   5789   5787   5791   5792     1  0.0000000  0.0000000  2
   5789   5787   5791   5792     1  180.0000771  0.3347200  3
   5789   5787   5791   5823     1  180.0000771  0.0000000  2
   5790   5787   5791   5792     1  0.0000000  3.3472000  1
   5790   5787   5791   5792     1  0.0000000  0.0000000  2
   5790   5787   5791   5792     1  180.0000771  0.3347200  3
   5790   5787   5791   5823     1  180.0000771  0.0000000  2
   5791   5823   5804   5806     1  0.0000000  1.2552000  3
   5792   5791   5823   5813     1  180.0000771  6.0668000  2
   5792   5791   5823   5813     1  180.0000771  1.4644000  4
   5793   5784   5795   5798     1  0.0000000  0.6508444  3
   5793   5784   5795   5796     1  0.0000000  0.6508444  3
   5793   5784   5795   5797     1  0.0000000  0.6508444  3
   5794   5784   5795   5798     1  0.0000000  0.6508444  3
   5794   5784   5795   5796     1  0.0000000  0.6508444  3
   5794   5784   5795   5797     1  0.0000000  0.6508444  3
   5795   5798   5847   5837     1  180.0000771  6.0668000  2
   5795   5798   5847   5837     1  180.0000771  1.4644000  4
   5796   5795   5798   5799     1  0.0000000  3.3472000  1
   5796   5795   5798   5799     1  0.0000000  0.0000000  2
   5796   5795   5798   5799     1  180.0000771  0.3347200  3
   5796   5795   5798   5847     1  180.0000771  0.0000000  2
   5797   5795   5798   5799     1  0.0000000  3.3472000  1
   5797   5795   5798   5799     1  0.0000000  0.0000000  2
   5797   5795   5798   5799     1  180.0000771  0.3347200  3
   5797   5795   5798   5847     1  180.0000771  0.0000000  2
   5798   5847   5828   5830     1  0.0000000  1.2552000  3
   5799   5798   5847   5837     1  180.0000771  6.0668000  2
   5799   5798   5847   5837     1  180.0000771  1.4644000  4
   5800   5801   5803   5807     1  0.0000000  0.6508444  3
   5800   5801   5821   5822     1  0.0000000  1.0460000  1
   5800   5801   5821   5822     1  0.0000000  0.6694400  3
   5800   5811   5816   5817     1  0.0000000  1.0460000  1
   5800   5811   5816   5817     1  0.0000000  0.6694400  3
   5800   5818   5805   5808     1  0.0000000  1.6038667  3
   5801   5800   5811   5814     1  0.0000000  0.6508444  3
   5801   5800   5811   5815     1  0.0000000  0.6508444  3
   5801   5803   5804   5806     1  0.0000000  0.6508444  3
   5801   5803   5810   5812     1  0.0000000  1.0460000  1
   5801   5803   5810   5812     1  0.0000000  0.6694400  3
   5802   5800   5801   5803     1  0.0000000  0.6508444  3
   5802   5800   5801   5821     1  0.0000000  1.0460000  1
   5802   5800   5801   5821     1  0.0000000  0.0000000  3
   5802   5800   5801   5820     1  0.0000000  0.6508444  3
   5802   5800   5811   5816     1  0.0000000  1.0460000  1
   5802   5800   5811   5816     1  0.0000000  0.0000000  3
   5802   5800   5811   5814     1  0.0000000  0.6508444  3
   5802   5800   5811   5815     1  0.0000000  0.6508444  3
   5802   5800   5818   5805     1  0.0000000  1.6038667  3
   5803   5801   5821   5822     1  0.0000000  1.0460000  1
   5803   5801   5821   5822     1  0.0000000  0.6694400  3
   5803   5804   5805   5808     1  0.0000000  0.6508444  3
   5803   5804   5823   5813     1  0.0000000  1.2552000  3
   5804   5803   5801   5820     1  0.0000000  0.6508444  3
   5804   5803   5810   5812     1  0.0000000  1.0460000  1
   5804   5803   5810   5812     1  0.0000000  0.6694400  3
   5804   5805   5809   5819     1  0.0000000  1.0460000  1
   5804   5805   5809   5819     1  0.0000000  0.6694400  3
   5805   5804   5803   5807     1  0.0000000  0.6508444  3
   5805   5804   5823   5813     1  0.0000000  1.2552000  3
   5806   5804   5803   5810     1  0.0000000  1.0460000  1
   5806   5804   5803   5810     1  0.0000000  0.0000000  3
   5806   5804   5803   5807     1  0.0000000  0.6508444  3
   5806   5804   5805   5809     1  0.0000000  1.0460000  1
   5806   5804   5805   5809     1  0.0000000  0.0000000  3
   5806   5804   5805   5818     1  0.0000000  1.0460000  1
   5806   5804   5805   5818     1  0.0000000  0.0000000  3
   5806   5804   5805   5808     1  0.0000000  0.6508444  3
   5806   5804   5823   5813     1  0.0000000  1.2552000  3
   5807   5803   5801   5821     1  0.0000000  1.0460000  1
   5807   5803   5801   5821     1  0.0000000  0.0000000  3
   5807   5803   5801   5820     1  0.0000000  0.6508444  3
   5807   5803   5804   5823     1  0.0000000  0.6508444  3
   5807   5803   5810   5812     1  0.0000000  0.6973333  3
   5808   5805   5804   5823     1  0.0000000  0.6508444  3
   5808   5805   5809   5819     1  0.0000000  0.6973333  3
   5810   5803   5801   5820     1  0.0000000  1.0460000  1
   5810   5803   5801   5820     1  0.0000000  0.0000000  3
   5811   5800   5801   5820     1  0.0000000  0.6508444  3
   5814   5811   5800   5818     1  0.0000000  1.0460000  1
   5814   5811   5800   5818     1  0.0000000  0.0000000  3
   5814   5811   5816   5817     1  0.0000000  0.6973333  3
   5815   5811   5800   5818     1  0.0000000  1.0460000  1
   5815   5811   5800   5818     1  0.0000000  0.0000000  3
   5815   5811   5816   5817     1  0.0000000  0.6973333  3
   5818   5800   5801   5820     1  0.0000000  1.0460000  1
   5818   5800   5801   5820     1  0.0000000  0.0000000  3
   5818   5805   5809   5819     1  0.0000000  0.6973333  3
   5820   5801   5821   5822     1  0.0000000  0.6973333  3
   5824   5825   5827   5831     1  0.0000000  0.6508444  3
   5824   5825   5845   5846     1  0.0000000  1.0460000  1
   5824   5825   5845   5846     1  0.0000000  0.6694400  3
   5824   5835   5840   5841     1  0.0000000  1.0460000  1
   5824   5835   5840   5841     1  0.0000000  0.6694400  3
   5824   5842   5829   5832     1  0.0000000  1.6038667  3
   5825   5824   5835   5838     1  0.0000000  0.6508444  3
   5825   5824   5835   5839     1  0.0000000  0.6508444  3
   5825   5827   5828   5830     1  0.0000000  0.6508444  3
   5825   5827   5834   5836     1  0.0000000  1.0460000  1
   5825   5827   5834   5836     1  0.0000000  0.6694400  3
   5826   5824   5825   5827     1  0.0000000  0.6508444  3
   5826   5824   5825   5845     1  0.0000000  1.0460000  1
   5826   5824   5825   5845     1  0.0000000  0.0000000  3
   5826   5824   5825   5844     1  0.0000000  0.6508444  3
   5826   5824   5835   5840     1  0.0000000  1.0460000  1
   5826   5824   5835   5840     1  0.0000000  0.0000000  3
   5826   5824   5835   5838     1  0.0000000  0.6508444  3
   5826   5824   5835   5839     1  0.0000000  0.6508444  3
   5826   5824   5842   5829     1  0.0000000  1.6038667  3
   5827   5825   5845   5846     1  0.0000000  1.0460000  1
   5827   5825   5845   5846     1  0.0000000  0.6694400  3
   5827   5828   5829   5832     1  0.0000000  0.6508444  3
   5827   5828   5847   5837     1  0.0000000  1.2552000  3
   5828   5827   5825   5844     1  0.0000000  0.6508444  3
   5828   5827   5834   5836     1  0.0000000  1.0460000  1
   5828   5827   5834   5836     1  0.0000000  0.6694400  3
   5828   5829   5833   5843     1  0.0000000  1.0460000  1
   5828   5829   5833   5843     1  0.0000000  0.6694400  3
   5829   5828   5827   5831     1  0.0000000  0.6508444  3
   5829   5828   5847   5837     1  0.0000000  1.2552000  3
   5830   5828   5827   5834     1  0.0000000  1.0460000  1
   5830   5828   5827   5834     1  0.0000000  0.0000000  3
   5830   5828   5827   5831     1  0.0000000  0.6508444  3
   5830   5828   5829   5833     1  0.0000000  1.0460000  1
   5830   5828   5829   5833     1  0.0000000  0.0000000  3
   5830   5828   5829   5842     1  0.0000000  1.0460000  1
   5830   5828   5829   5842     1  0.0000000  0.0000000  3
   5830   5828   5829   5832     1  0.0000000  0.6508444  3
   5830   5828   5847   5837     1  0.0000000  1.2552000  3
   5831   5827   5825   5845     1  0.0000000  1.0460000  1
   5831   5827   5825   5845     1  0.0000000  0.0000000  3
   5831   5827   5825   5844     1  0.0000000  0.6508444  3
   5831   5827   5828   5847     1  0.0000000  0.6508444  3
   5831   5827   5834   5836     1  0.0000000  0.6973333  3
   5832   5829   5828   5847     1  0.0000000  0.6508444  3
   5832   5829   5833   5843     1  0.0000000  0.6973333  3
   5834   5827   5825   5844     1  0.0000000  1.0460000  1
   5834   5827   5825   5844     1  0.0000000  0.0000000  3
   5835   5824   5825   5844     1  0.0000000  0.6508444  3
   5838   5835   5824   5842     1  0.0000000  1.0460000  1
   5838   5835   5824   5842     1  0.0000000  0.0000000  3
   5838   5835   5840   5841     1  0.0000000  0.6973333  3
   5839   5835   5824   5842     1  0.0000000  1.0460000  1
   5839   5835   5824   5842     1  0.0000000  0.0000000  3
   5839   5835   5840   5841     1  0.0000000  0.6973333  3
   5842   5824   5825   5844     1  0.0000000  1.0460000  1
   5842   5824   5825   5844     1  0.0000000  0.0000000  3
   5842   5829   5833   5843     1  0.0000000  0.6973333  3
   5844   5825   5845   5846     1  0.0000000  0.6973333  3
   5848   5850   5852   5854     1  0.0000000  0.6508444  3
   5848   5850   5852   5855     1  0.0000000  0.6508444  3
   5849   5848   5850   5852     1  0.0000000  0.0000000  2
   5849   5848   5850   5851     1  0.0000000  0.0000000  2
   5849   5848   5850   5853     1  0.0000000  0.0000000  2
   5851   5850   5852   5856     1  0.0000000  0.6508444  3
   5851   5850   5852   5854     1  0.0000000  0.6508444  3
   5851   5850   5852   5855     1  0.0000000  0.6508444  3
   5852   5856   5857   5866     1  0.0000000  1.2552000  3
   5852   5856   5857   5867     1  0.0000000  1.2552000  3
   5852   5856   5858   5859     1  0.0000000  1.2552000  3
   5852   5856   5858   5861     1  0.0000000  1.2552000  3
   5853   5850   5852   5856     1  0.0000000  0.6508444  3
   5853   5850   5852   5854     1  0.0000000  0.6508444  3
   5853   5850   5852   5855     1  0.0000000  0.6508444  3
   5854   5852   5856   5857     1  0.0000000  1.2552000  3
   5854   5852   5856   5858     1  0.0000000  1.2552000  3
   5855   5852   5856   5857     1  0.0000000  1.2552000  3
   5855   5852   5856   5858     1  0.0000000  1.2552000  3
   5856   5857   5868   5869     1  0.0000000  0.6508444  3
   5856   5857   5868   5870     1  0.0000000  0.6508444  3
   5856   5858   5860   5862     1  0.0000000  0.6508444  3
   5856   5858   5860   5863     1  0.0000000  0.6508444  3
   5857   5856   5858   5859     1  0.0000000  1.2552000  3
   5857   5856   5858   5861     1  0.0000000  1.2552000  3
   5858   5856   5857   5866     1  0.0000000  1.2552000  3
   5858   5856   5857   5867     1  0.0000000  1.2552000  3
   5859   5858   5860   5864     1  0.0000000  0.6508444  3
   5859   5858   5860   5862     1  0.0000000  0.6508444  3
   5859   5858   5860   5863     1  0.0000000  0.6508444  3
   5860   5864   5896   5886     1  180.0000771  6.0668000  2
   5860   5864   5896   5886     1  180.0000771  1.4644000  4
   5861   5858   5860   5864     1  0.0000000  0.6508444  3
   5861   5858   5860   5862     1  0.0000000  0.6508444  3
   5861   5858   5860   5863     1  0.0000000  0.6508444  3
   5862   5860   5864   5865     1  0.0000000  3.3472000  1
   5862   5860   5864   5865     1  0.0000000  0.0000000  2
   5862   5860   5864   5865     1  180.0000771  0.3347200  3
   5862   5860   5864   5896     1  180.0000771  0.0000000  2
   5863   5860   5864   5865     1  0.0000000  3.3472000  1
   5863   5860   5864   5865     1  0.0000000  0.0000000  2
   5863   5860   5864   5865     1  180.0000771  0.3347200  3
   5863   5860   5864   5896     1  180.0000771  0.0000000  2
   5864   5896   5877   5879     1  0.0000000  1.2552000  3
   5865   5864   5896   5886     1  180.0000771  6.0668000  2
   5865   5864   5896   5886     1  180.0000771  1.4644000  4
   5866   5857   5868   5871     1  0.0000000  0.6508444  3
   5866   5857   5868   5869     1  0.0000000  0.6508444  3
   5866   5857   5868   5870     1  0.0000000  0.6508444  3
   5867   5857   5868   5871     1  0.0000000  0.6508444  3
   5867   5857   5868   5869     1  0.0000000  0.6508444  3
   5867   5857   5868   5870     1  0.0000000  0.6508444  3
   5868   5871   5920   5910     1  180.0000771  6.0668000  2
   5868   5871   5920   5910     1  180.0000771  1.4644000  4
   5869   5868   5871   5872     1  0.0000000  3.3472000  1
   5869   5868   5871   5872     1  0.0000000  0.0000000  2
   5869   5868   5871   5872     1  180.0000771  0.3347200  3
   5869   5868   5871   5920     1  180.0000771  0.0000000  2
   5870   5868   5871   5872     1  0.0000000  3.3472000  1
   5870   5868   5871   5872     1  0.0000000  0.0000000  2
   5870   5868   5871   5872     1  180.0000771  0.3347200  3
   5870   5868   5871   5920     1  180.0000771  0.0000000  2
   5871   5920   5901   5903     1  0.0000000  1.2552000  3
   5872   5871   5920   5910     1  180.0000771  6.0668000  2
   5872   5871   5920   5910     1  180.0000771  1.4644000  4
   5873   5874   5876   5880     1  0.0000000  0.6508444  3
   5873   5874   5894   5895     1  0.0000000  1.0460000  1
   5873   5874   5894   5895     1  0.0000000  0.6694400  3
   5873   5884   5889   5890     1  0.0000000  1.0460000  1
   5873   5884   5889   5890     1  0.0000000  0.6694400  3
   5873   5891   5878   5881     1  0.0000000  1.6038667  3
   5874   5876   5877   5879     1  0.0000000  0.6508444  3
   5874   5876   5883   5885     1  0.0000000  1.0460000  1
   5874   5876   5883   5885     1  0.0000000  0.6694400  3
   5874   5873   5884   5887     1  0.0000000  0.6508444  3
   5874   5873   5884   5888     1  0.0000000  0.6508444  3
   5875   5873   5874   5876     1  0.0000000  0.6508444  3
   5875   5873   5874   5894     1  0.0000000  1.0460000  1
   5875   5873   5874   5894     1  0.0000000  0.0000000  3
   5875   5873   5874   5893     1  0.0000000  0.6508444  3
   5875   5873   5884   5889     1  0.0000000  1.0460000  1
   5875   5873   5884   5889     1  0.0000000  0.0000000  3
   5875   5873   5884   5887     1  0.0000000  0.6508444  3
   5875   5873   5884   5888     1  0.0000000  0.6508444  3
   5875   5873   5891   5878     1  0.0000000  1.6038667  3
   5876   5877   5878   5881     1  0.0000000  0.6508444  3
   5876   5877   5896   5886     1  0.0000000  1.2552000  3
   5876   5874   5894   5895     1  0.0000000  1.0460000  1
   5876   5874   5894   5895     1  0.0000000  0.6694400  3
   5877   5878   5882   5892     1  0.0000000  1.0460000  1
   5877   5878   5882   5892     1  0.0000000  0.6694400  3
   5877   5876   5883   5885     1  0.0000000  1.0460000  1
   5877   5876   5883   5885     1  0.0000000  0.6694400  3
   5877   5876   5874   5893     1  0.0000000  0.6508444  3
   5878   5877   5896   5886     1  0.0000000  1.2552000  3
   5878   5877   5876   5880     1  0.0000000  0.6508444  3
   5879   5877   5878   5882     1  0.0000000  1.0460000  1
   5879   5877   5878   5882     1  0.0000000  0.0000000  3
   5879   5877   5878   5891     1  0.0000000  1.0460000  1
   5879   5877   5878   5891     1  0.0000000  0.0000000  3
   5879   5877   5878   5881     1  0.0000000  0.6508444  3
   5879   5877   5896   5886     1  0.0000000  1.2552000  3
   5879   5877   5876   5883     1  0.0000000  1.0460000  1
   5879   5877   5876   5883     1  0.0000000  0.0000000  3
   5879   5877   5876   5880     1  0.0000000  0.6508444  3
   5880   5876   5877   5896     1  0.0000000  0.6508444  3
   5880   5876   5883   5885     1  0.0000000  0.6973333  3
   5880   5876   5874   5894     1  0.0000000  1.0460000  1
   5880   5876   5874   5894     1  0.0000000  0.0000000  3
   5880   5876   5874   5893     1  0.0000000  0.6508444  3
   5881   5878   5882   5892     1  0.0000000  0.6973333  3
   5881   5878   5877   5896     1  0.0000000  0.6508444  3
   5883   5876   5874   5893     1  0.0000000  1.0460000  1
   5883   5876   5874   5893     1  0.0000000  0.0000000  3
   5884   5873   5874   5893     1  0.0000000  0.6508444  3
   5887   5884   5889   5890     1  0.0000000  0.6973333  3
   5887   5884   5873   5891     1  0.0000000  1.0460000  1
   5887   5884   5873   5891     1  0.0000000  0.0000000  3
   5888   5884   5889   5890     1  0.0000000  0.6973333  3
   5888   5884   5873   5891     1  0.0000000  1.0460000  1
   5888   5884   5873   5891     1  0.0000000  0.0000000  3
   5891   5878   5882   5892     1  0.0000000  0.6973333  3
   5891   5873   5874   5893     1  0.0000000  1.0460000  1
   5891   5873   5874   5893     1  0.0000000  0.0000000  3
   5893   5874   5894   5895     1  0.0000000  0.6973333  3
   5897   5898   5900   5904     1  0.0000000  0.6508444  3
   5897   5898   5918   5919     1  0.0000000  1.0460000  1
   5897   5898   5918   5919     1  0.0000000  0.6694400  3
   5897   5908   5913   5914     1  0.0000000  1.0460000  1
   5897   5908   5913   5914     1  0.0000000  0.6694400  3
   5897   5915   5902   5905     1  0.0000000  1.6038667  3
   5898   5900   5901   5903     1  0.0000000  0.6508444  3
   5898   5900   5907   5909     1  0.0000000  1.0460000  1
   5898   5900   5907   5909     1  0.0000000  0.6694400  3
   5898   5897   5908   5911     1  0.0000000  0.6508444  3
   5898   5897   5908   5912     1  0.0000000  0.6508444  3
   5899   5897   5898   5900     1  0.0000000  0.6508444  3
   5899   5897   5898   5918     1  0.0000000  1.0460000  1
   5899   5897   5898   5918     1  0.0000000  0.0000000  3
   5899   5897   5898   5917     1  0.0000000  0.6508444  3
   5899   5897   5908   5913     1  0.0000000  1.0460000  1
   5899   5897   5908   5913     1  0.0000000  0.0000000  3
   5899   5897   5908   5911     1  0.0000000  0.6508444  3
   5899   5897   5908   5912     1  0.0000000  0.6508444  3
   5899   5897   5915   5902     1  0.0000000  1.6038667  3
   5900   5901   5902   5905     1  0.0000000  0.6508444  3
   5900   5901   5920   5910     1  0.0000000  1.2552000  3
   5900   5898   5918   5919     1  0.0000000  1.0460000  1
   5900   5898   5918   5919     1  0.0000000  0.6694400  3
   5901   5902   5906   5916     1  0.0000000  1.0460000  1
   5901   5902   5906   5916     1  0.0000000  0.6694400  3
   5901   5900   5907   5909     1  0.0000000  1.0460000  1
   5901   5900   5907   5909     1  0.0000000  0.6694400  3
   5901   5900   5898   5917     1  0.0000000  0.6508444  3
   5902   5901   5920   5910     1  0.0000000  1.2552000  3
   5902   5901   5900   5904     1  0.0000000  0.6508444  3
   5903   5901   5902   5906     1  0.0000000  1.0460000  1
   5903   5901   5902   5906     1  0.0000000  0.0000000  3
   5903   5901   5902   5915     1  0.0000000  1.0460000  1
   5903   5901   5902   5915     1  0.0000000  0.0000000  3
   5903   5901   5902   5905     1  0.0000000  0.6508444  3
   5903   5901   5920   5910     1  0.0000000  1.2552000  3
   5903   5901   5900   5907     1  0.0000000  1.0460000  1
   5903   5901   5900   5907     1  0.0000000  0.0000000  3
   5903   5901   5900   5904     1  0.0000000  0.6508444  3
   5904   5900   5901   5920     1  0.0000000  0.6508444  3
   5904   5900   5907   5909     1  0.0000000  0.6973333  3
   5904   5900   5898   5918     1  0.0000000  1.0460000  1
   5904   5900   5898   5918     1  0.0000000  0.0000000  3
   5904   5900   5898   5917     1  0.0000000  0.6508444  3
   5905   5902   5906   5916     1  0.0000000  0.6973333  3
   5905   5902   5901   5920     1  0.0000000  0.6508444  3
   5907   5900   5898   5917     1  0.0000000  1.0460000  1
   5907   5900   5898   5917     1  0.0000000  0.0000000  3
   5908   5897   5898   5917     1  0.0000000  0.6508444  3
   5911   5908   5913   5914     1  0.0000000  0.6973333  3
   5911   5908   5897   5915     1  0.0000000  1.0460000  1
   5911   5908   5897   5915     1  0.0000000  0.0000000  3
   5912   5908   5913   5914     1  0.0000000  0.6973333  3
   5912   5908   5897   5915     1  0.0000000  1.0460000  1
   5912   5908   5897   5915     1  0.0000000  0.0000000  3
   5915   5902   5906   5916     1  0.0000000  0.6973333  3
   5915   5897   5898   5917     1  0.0000000  1.0460000  1
   5915   5897   5898   5917     1  0.0000000  0.0000000  3
   5917   5898   5918   5919     1  0.0000000  0.6973333  3
   5921   5923   5925   5927     1  0.0000000  0.6508444  3
   5921   5923   5925   5928     1  0.0000000  0.6508444  3
   5922   5921   5923   5925     1  0.0000000  0.0000000  2
   5922   5921   5923   5924     1  0.0000000  0.0000000  2
   5922   5921   5923   5926     1  0.0000000  0.0000000  2
   5924   5923   5925   5929     1  0.0000000  0.6508444  3
   5924   5923   5925   5927     1  0.0000000  0.6508444  3
   5924   5923   5925   5928     1  0.0000000  0.6508444  3
   5925   5929   5930   5939     1  0.0000000  1.2552000  3
   5925   5929   5930   5940     1  0.0000000  1.2552000  3
   5925   5929   5931   5932     1  0.0000000  1.2552000  3
   5925   5929   5931   5934     1  0.0000000  1.2552000  3
   5926   5923   5925   5929     1  0.0000000  0.6508444  3
   5926   5923   5925   5927     1  0.0000000  0.6508444  3
   5926   5923   5925   5928     1  0.0000000  0.6508444  3
   5927   5925   5929   5930     1  0.0000000  1.2552000  3
   5927   5925   5929   5931     1  0.0000000  1.2552000  3
   5928   5925   5929   5930     1  0.0000000  1.2552000  3
   5928   5925   5929   5931     1  0.0000000  1.2552000  3
   5929   5930   5941   5942     1  0.0000000  0.6508444  3
   5929   5930   5941   5943     1  0.0000000  0.6508444  3
   5929   5931   5933   5935     1  0.0000000  0.6508444  3
   5929   5931   5933   5936     1  0.0000000  0.6508444  3
   5930   5929   5931   5932     1  0.0000000  1.2552000  3
   5930   5929   5931   5934     1  0.0000000  1.2552000  3
   5931   5929   5930   5939     1  0.0000000  1.2552000  3
   5931   5929   5930   5940     1  0.0000000  1.2552000  3
   5932   5931   5933   5937     1  0.0000000  0.6508444  3
   5932   5931   5933   5935     1  0.0000000  0.6508444  3
   5932   5931   5933   5936     1  0.0000000  0.6508444  3
   5933   5937   5969   5959     1  180.0000771  6.0668000  2
   5933   5937   5969   5959     1  180.0000771  1.4644000  4
   5934   5931   5933   5937     1  0.0000000  0.6508444  3
   5934   5931   5933   5935     1  0.0000000  0.6508444  3
   5934   5931   5933   5936     1  0.0000000  0.6508444  3
   5935   5933   5937   5938     1  0.0000000  3.3472000  1
   5935   5933   5937   5938     1  0.0000000  0.0000000  2
   5935   5933   5937   5938     1  180.0000771  0.3347200  3
   5935   5933   5937   5969     1  180.0000771  0.0000000  2
   5936   5933   5937   5938     1  0.0000000  3.3472000  1
   5936   5933   5937   5938     1  0.0000000  0.0000000  2
   5936   5933   5937   5938     1  180.0000771  0.3347200  3
   5936   5933   5937   5969     1  180.0000771  0.0000000  2
   5937   5969   5950   5952     1  0.0000000  1.2552000  3
   5938   5937   5969   5959     1  180.0000771  6.0668000  2
   5938   5937   5969   5959     1  180.0000771  1.4644000  4
   5939   5930   5941   5944     1  0.0000000  0.6508444  3
   5939   5930   5941   5942     1  0.0000000  0.6508444  3
   5939   5930   5941   5943     1  0.0000000  0.6508444  3
   5940   5930   5941   5944     1  0.0000000  0.6508444  3
   5940   5930   5941   5942     1  0.0000000  0.6508444  3
   5940   5930   5941   5943     1  0.0000000  0.6508444  3
   5941   5944   5993   5983     1  180.0000771  6.0668000  2
   5941   5944   5993   5983     1  180.0000771  1.4644000  4
   5942   5941   5944   5945     1  0.0000000  3.3472000  1
   5942   5941   5944   5945     1  0.0000000  0.0000000  2
   5942   5941   5944   5945     1  180.0000771  0.3347200  3
   5942   5941   5944   5993     1  180.0000771  0.0000000  2
   5943   5941   5944   5945     1  0.0000000  3.3472000  1
   5943   5941   5944   5945     1  0.0000000  0.0000000  2
   5943   5941   5944   5945     1  180.0000771  0.3347200  3
   5943   5941   5944   5993     1  180.0000771  0.0000000  2
   5944   5993   5974   5976     1  0.0000000  1.2552000  3
   5945   5944   5993   5983     1  180.0000771  6.0668000  2
   5945   5944   5993   5983     1  180.0000771  1.4644000  4
   5946   5947   5949   5953     1  0.0000000  0.6508444  3
   5946   5947   5967   5968     1  0.0000000  1.0460000  1
   5946   5947   5967   5968     1  0.0000000  0.6694400  3
   5946   5957   5962   5963     1  0.0000000  1.0460000  1
   5946   5957   5962   5963     1  0.0000000  0.6694400  3
   5946   5964   5951   5954     1  0.0000000  1.6038667  3
   5947   5946   5957   5960     1  0.0000000  0.6508444  3
   5947   5946   5957   5961     1  0.0000000  0.6508444  3
   5947   5949   5950   5952     1  0.0000000  0.6508444  3
   5947   5949   5956   5958     1  0.0000000  1.0460000  1
   5947   5949   5956   5958     1  0.0000000  0.6694400  3
   5948   5946   5947   5949     1  0.0000000  0.6508444  3
   5948   5946   5947   5967     1  0.0000000  1.0460000  1
   5948   5946   5947   5967     1  0.0000000  0.0000000  3
   5948   5946   5947   5966     1  0.0000000  0.6508444  3
   5948   5946   5957   5962     1  0.0000000  1.0460000  1
   5948   5946   5957   5962     1  0.0000000  0.0000000  3
   5948   5946   5957   5960     1  0.0000000  0.6508444  3
   5948   5946   5957   5961     1  0.0000000  0.6508444  3
   5948   5946   5964   5951     1  0.0000000  1.6038667  3
   5949   5947   5967   5968     1  0.0000000  1.0460000  1
   5949   5947   5967   5968     1  0.0000000  0.6694400  3
   5949   5950   5951   5954     1  0.0000000  0.6508444  3
   5949   5950   5969   5959     1  0.0000000  1.2552000  3
   5950   5949   5947   5966     1  0.0000000  0.6508444  3
   5950   5949   5956   5958     1  0.0000000  1.0460000  1
   5950   5949   5956   5958     1  0.0000000  0.6694400  3
   5950   5951   5955   5965     1  0.0000000  1.0460000  1
   5950   5951   5955   5965     1  0.0000000  0.6694400  3
   5951   5950   5949   5953     1  0.0000000  0.6508444  3
   5951   5950   5969   5959     1  0.0000000  1.2552000  3
   5952   5950   5949   5956     1  0.0000000  1.0460000  1
   5952   5950   5949   5956     1  0.0000000  0.0000000  3
   5952   5950   5949   5953     1  0.0000000  0.6508444  3
   5952   5950   5951   5955     1  0.0000000  1.0460000  1
   5952   5950   5951   5955     1  0.0000000  0.0000000  3
   5952   5950   5951   5964     1  0.0000000  1.0460000  1
   5952   5950   5951   5964     1  0.0000000  0.0000000  3
   5952   5950   5951   5954     1  0.0000000  0.6508444  3
   5952   5950   5969   5959     1  0.0000000  1.2552000  3
   5953   5949   5947   5967     1  0.0000000  1.0460000  1
   5953   5949   5947   5967     1  0.0000000  0.0000000  3
   5953   5949   5947   5966     1  0.0000000  0.6508444  3
   5953   5949   5950   5969     1  0.0000000  0.6508444  3
   5953   5949   5956   5958     1  0.0000000  0.6973333  3
   5954   5951   5950   5969     1  0.0000000  0.6508444  3
   5954   5951   5955   5965     1  0.0000000  0.6973333  3
   5956   5949   5947   5966     1  0.0000000  1.0460000  1
   5956   5949   5947   5966     1  0.0000000  0.0000000  3
   5957   5946   5947   5966     1  0.0000000  0.6508444  3
   5960   5957   5946   5964     1  0.0000000  1.0460000  1
   5960   5957   5946   5964     1  0.0000000  0.0000000  3
   5960   5957   5962   5963     1  0.0000000  0.6973333  3
   5961   5957   5946   5964     1  0.0000000  1.0460000  1
   5961   5957   5946   5964     1  0.0000000  0.0000000  3
   5961   5957   5962   5963     1  0.0000000  0.6973333  3
   5964   5946   5947   5966     1  0.0000000  1.0460000  1
   5964   5946   5947   5966     1  0.0000000  0.0000000  3
   5964   5951   5955   5965     1  0.0000000  0.6973333  3
   5966   5947   5967   5968     1  0.0000000  0.6973333  3
   5970   5971   5973   5977     1  0.0000000  0.6508444  3
   5970   5971   5991   5992     1  0.0000000  1.0460000  1
   5970   5971   5991   5992     1  0.0000000  0.6694400  3
   5970   5981   5986   5987     1  0.0000000  1.0460000  1
   5970   5981   5986   5987     1  0.0000000  0.6694400  3
   5970   5988   5975   5978     1  0.0000000  1.6038667  3
   5971   5970   5981   5984     1  0.0000000  0.6508444  3
   5971   5970   5981   5985     1  0.0000000  0.6508444  3
   5971   5973   5974   5976     1  0.0000000  0.6508444  3
   5971   5973   5980   5982     1  0.0000000  1.0460000  1
   5971   5973   5980   5982     1  0.0000000  0.6694400  3
   5972   5970   5971   5973     1  0.0000000  0.6508444  3
   5972   5970   5971   5991     1  0.0000000  1.0460000  1
   5972   5970   5971   5991     1  0.0000000  0.0000000  3
   5972   5970   5971   5990     1  0.0000000  0.6508444  3
   5972   5970   5981   5986     1  0.0000000  1.0460000  1
   5972   5970   5981   5986     1  0.0000000  0.0000000  3
   5972   5970   5981   5984     1  0.0000000  0.6508444  3
   5972   5970   5981   5985     1  0.0000000  0.6508444  3
   5972   5970   5988   5975     1  0.0000000  1.6038667  3
   5973   5971   5991   5992     1  0.0000000  1.0460000  1
   5973   5971   5991   5992     1  0.0000000  0.6694400  3
   5973   5974   5975   5978     1  0.0000000  0.6508444  3
   5973   5974   5993   5983     1  0.0000000  1.2552000  3
   5974   5973   5971   5990     1  0.0000000  0.6508444  3
   5974   5973   5980   5982     1  0.0000000  1.0460000  1
   5974   5973   5980   5982     1  0.0000000  0.6694400  3
   5974   5975   5979   5989     1  0.0000000  1.0460000  1
   5974   5975   5979   5989     1  0.0000000  0.6694400  3
   5975   5974   5973   5977     1  0.0000000  0.6508444  3
   5975   5974   5993   5983     1  0.0000000  1.2552000  3
   5976   5974   5973   5980     1  0.0000000  1.0460000  1
   5976   5974   5973   5980     1  0.0000000  0.0000000  3
   5976   5974   5973   5977     1  0.0000000  0.6508444  3
   5976   5974   5975   5979     1  0.0000000  1.0460000  1
   5976   5974   5975   5979     1  0.0000000  0.0000000  3
   5976   5974   5975   5988     1  0.0000000  1.0460000  1
   5976   5974   5975   5988     1  0.0000000  0.0000000  3
   5976   5974   5975   5978     1  0.0000000  0.6508444  3
   5976   5974   5993   5983     1  0.0000000  1.2552000  3
   5977   5973   5971   5991     1  0.0000000  1.0460000  1
   5977   5973   5971   5991     1  0.0000000  0.0000000  3
   5977   5973   5971   5990     1  0.0000000  0.6508444  3
   5977   5973   5974   5993     1  0.0000000  0.6508444  3
   5977   5973   5980   5982     1  0.0000000  0.6973333  3
   5978   5975   5974   5993     1  0.0000000  0.6508444  3
   5978   5975   5979   5989     1  0.0000000  0.6973333  3
   5980   5973   5971   5990     1  0.0000000  1.0460000  1
   5980   5973   5971   5990     1  0.0000000  0.0000000  3
   5981   5970   5971   5990     1  0.0000000  0.6508444  3
   5984   5981   5970   5988     1  0.0000000  1.0460000  1
   5984   5981   5970   5988     1  0.0000000  0.0000000  3
   5984   5981   5986   5987     1  0.0000000  0.6973333  3
   5985   5981   5970   5988     1  0.0000000  1.0460000  1
   5985   5981   5970   5988     1  0.0000000  0.0000000  3
   5985   5981   5986   5987     1  0.0000000  0.6973333  3
   5988   5970   5971   5990     1  0.0000000  1.0460000  1
   5988   5970   5971   5990     1  0.0000000  0.0000000  3
   5988   5975   5979   5989     1  0.0000000  0.6973333  3
   5990   5971   5991   5992     1  0.0000000  0.6973333  3
   5994   5996   5998   6000     1  0.0000000  0.6508444  3
   5994   5996   5998   6001     1  0.0000000  0.6508444  3
   5995   5994   5996   5998     1  0.0000000  0.0000000  2
   5995   5994   5996   5997     1  0.0000000  0.0000000  2
   5995   5994   5996   5999     1  0.0000000  0.0000000  2
   5997   5996   5998   6002     1  0.0000000  0.6508444  3
   5997   5996   5998   6000     1  0.0000000  0.6508444  3
   5997   5996   5998   6001     1  0.0000000  0.6508444  3
   5998   6002   6003   6012     1  0.0000000  1.2552000  3
   5998   6002   6003   6013     1  0.0000000  1.2552000  3
   5998   6002   6004   6005     1  0.0000000  1.2552000  3
   5998   6002   6004   6007     1  0.0000000  1.2552000  3
   5999   5996   5998   6002     1  0.0000000  0.6508444  3
   5999   5996   5998   6000     1  0.0000000  0.6508444  3
   5999   5996   5998   6001     1  0.0000000  0.6508444  3
   6000   5998   6002   6003     1  0.0000000  1.2552000  3
   6000   5998   6002   6004     1  0.0000000  1.2552000  3
   6001   5998   6002   6003     1  0.0000000  1.2552000  3
   6001   5998   6002   6004     1  0.0000000  1.2552000  3
   6002   6003   6014   6015     1  0.0000000  0.6508444  3
   6002   6003   6014   6016     1  0.0000000  0.6508444  3
   6002   6004   6006   6008     1  0.0000000  0.6508444  3
   6002   6004   6006   6009     1  0.0000000  0.6508444  3
   6003   6002   6004   6005     1  0.0000000  1.2552000  3
   6003   6002   6004   6007     1  0.0000000  1.2552000  3
   6004   6002   6003   6012     1  0.0000000  1.2552000  3
   6004   6002   6003   6013     1  0.0000000  1.2552000  3
   6005   6004   6006   6010     1  0.0000000  0.6508444  3
   6005   6004   6006   6008     1  0.0000000  0.6508444  3
   6005   6004   6006   6009     1  0.0000000  0.6508444  3
   6006   6010   6042   6032     1  180.0000771  6.0668000  2
   6006   6010   6042   6032     1  180.0000771  1.4644000  4
   6007   6004   6006   6010     1  0.0000000  0.6508444  3
   6007   6004   6006   6008     1  0.0000000  0.6508444  3
   6007   6004   6006   6009     1  0.0000000  0.6508444  3
   6008   6006   6010   6011     1  0.0000000  3.3472000  1
   6008   6006   6010   6011     1  0.0000000  0.0000000  2
   6008   6006   6010   6011     1  180.0000771  0.3347200  3
   6008   6006   6010   6042     1  180.0000771  0.0000000  2
   6009   6006   6010   6011     1  0.0000000  3.3472000  1
   6009   6006   6010   6011     1  0.0000000  0.0000000  2
   6009   6006   6010   6011     1  180.0000771  0.3347200  3
   6009   6006   6010   6042     1  180.0000771  0.0000000  2
   6010   6042   6023   6025     1  0.0000000  1.2552000  3
   6011   6010   6042   6032     1  180.0000771  6.0668000  2
   6011   6010   6042   6032     1  180.0000771  1.4644000  4
   6012   6003   6014   6017     1  0.0000000  0.6508444  3
   6012   6003   6014   6015     1  0.0000000  0.6508444  3
   6012   6003   6014   6016     1  0.0000000  0.6508444  3
   6013   6003   6014   6017     1  0.0000000  0.6508444  3
   6013   6003   6014   6015     1  0.0000000  0.6508444  3
   6013   6003   6014   6016     1  0.0000000  0.6508444  3
   6014   6017   6066   6056     1  180.0000771  6.0668000  2
   6014   6017   6066   6056     1  180.0000771  1.4644000  4
   6015   6014   6017   6018     1  0.0000000  3.3472000  1
   6015   6014   6017   6018     1  0.0000000  0.0000000  2
   6015   6014   6017   6018     1  180.0000771  0.3347200  3
   6015   6014   6017   6066     1  180.0000771  0.0000000  2
   6016   6014   6017   6018     1  0.0000000  3.3472000  1
   6016   6014   6017   6018     1  0.0000000  0.0000000  2
   6016   6014   6017   6018     1  180.0000771  0.3347200  3
   6016   6014   6017   6066     1  180.0000771  0.0000000  2
   6017   6066   6047   6049     1  0.0000000  1.2552000  3
   6018   6017   6066   6056     1  180.0000771  6.0668000  2
   6018   6017   6066   6056     1  180.0000771  1.4644000  4
   6019   6020   6022   6026     1  0.0000000  0.6508444  3
   6019   6020   6040   6041     1  0.0000000  1.0460000  1
   6019   6020   6040   6041     1  0.0000000  0.6694400  3
   6019   6030   6035   6036     1  0.0000000  1.0460000  1
   6019   6030   6035   6036     1  0.0000000  0.6694400  3
   6019   6037   6024   6027     1  0.0000000  1.6038667  3
   6020   6022   6023   6025     1  0.0000000  0.6508444  3
   6020   6022   6029   6031     1  0.0000000  1.0460000  1
   6020   6022   6029   6031     1  0.0000000  0.6694400  3
   6020   6019   6030   6033     1  0.0000000  0.6508444  3
   6020   6019   6030   6034     1  0.0000000  0.6508444  3
   6021   6019   6020   6022     1  0.0000000  0.6508444  3
   6021   6019   6020   6040     1  0.0000000  1.0460000  1
   6021   6019   6020   6040     1  0.0000000  0.0000000  3
   6021   6019   6020   6039     1  0.0000000  0.6508444  3
   6021   6019   6030   6035     1  0.0000000  1.0460000  1
   6021   6019   6030   6035     1  0.0000000  0.0000000  3
   6021   6019   6030   6033     1  0.0000000  0.6508444  3
   6021   6019   6030   6034     1  0.0000000  0.6508444  3
   6021   6019   6037   6024     1  0.0000000  1.6038667  3
   6022   6023   6024   6027     1  0.0000000  0.6508444  3
   6022   6023   6042   6032     1  0.0000000  1.2552000  3
   6022   6020   6040   6041     1  0.0000000  1.0460000  1
   6022   6020   6040   6041     1  0.0000000  0.6694400  3
   6023   6024   6028   6038     1  0.0000000  1.0460000  1
   6023   6024   6028   6038     1  0.0000000  0.6694400  3
   6023   6022   6029   6031     1  0.0000000  1.0460000  1
   6023   6022   6029   6031     1  0.0000000  0.6694400  3
   6023   6022   6020   6039     1  0.0000000  0.6508444  3
   6024   6023   6042   6032     1  0.0000000  1.2552000  3
   6024   6023   6022   6026     1  0.0000000  0.6508444  3
   6025   6023   6024   6028     1  0.0000000  1.0460000  1
   6025   6023   6024   6028     1  0.0000000  0.0000000  3
   6025   6023   6024   6037     1  0.0000000  1.0460000  1
   6025   6023   6024   6037     1  0.0000000  0.0000000  3
   6025   6023   6024   6027     1  0.0000000  0.6508444  3
   6025   6023   6042   6032     1  0.0000000  1.2552000  3
   6025   6023   6022   6029     1  0.0000000  1.0460000  1
   6025   6023   6022   6029     1  0.0000000  0.0000000  3
   6025   6023   6022   6026     1  0.0000000  0.6508444  3
   6026   6022   6023   6042     1  0.0000000  0.6508444  3
   6026   6022   6029   6031     1  0.0000000  0.6973333  3
   6026   6022   6020   6040     1  0.0000000  1.0460000  1
   6026   6022   6020   6040     1  0.0000000  0.0000000  3
   6026   6022   6020   6039     1  0.0000000  0.6508444  3
   6027   6024   6028   6038     1  0.0000000  0.6973333  3
   6027   6024   6023   6042     1  0.0000000  0.6508444  3
   6029   6022   6020   6039     1  0.0000000  1.0460000  1
   6029   6022   6020   6039     1  0.0000000  0.0000000  3
   6030   6019   6020   6039     1  0.0000000  0.6508444  3
   6033   6030   6035   6036     1  0.0000000  0.6973333  3
   6033   6030   6019   6037     1  0.0000000  1.0460000  1
   6033   6030   6019   6037     1  0.0000000  0.0000000  3
   6034   6030   6035   6036     1  0.0000000  0.6973333  3
   6034   6030   6019   6037     1  0.0000000  1.0460000  1
   6034   6030   6019   6037     1  0.0000000  0.0000000  3
   6037   6024   6028   6038     1  0.0000000  0.6973333  3
   6037   6019   6020   6039     1  0.0000000  1.0460000  1
   6037   6019   6020   6039     1  0.0000000  0.0000000  3
   6039   6020   6040   6041     1  0.0000000  0.6973333  3
   6043   6044   6046   6050     1  0.0000000  0.6508444  3
   6043   6044   6064   6065     1  0.0000000  1.0460000  1
   6043   6044   6064   6065     1  0.0000000  0.6694400  3
   6043   6054   6059   6060     1  0.0000000  1.0460000  1
   6043   6054   6059   6060     1  0.0000000  0.6694400  3
   6043   6061   6048   6051     1  0.0000000  1.6038667  3
   6044   6046   6047   6049     1  0.0000000  0.6508444  3
   6044   6046   6053   6055     1  0.0000000  1.0460000  1
   6044   6046   6053   6055     1  0.0000000  0.6694400  3
   6044   6043   6054   6057     1  0.0000000  0.6508444  3
   6044   6043   6054   6058     1  0.0000000  0.6508444  3
   6045   6043   6044   6046     1  0.0000000  0.6508444  3
   6045   6043   6044   6064     1  0.0000000  1.0460000  1
   6045   6043   6044   6064     1  0.0000000  0.0000000  3
   6045   6043   6044   6063     1  0.0000000  0.6508444  3
   6045   6043   6054   6059     1  0.0000000  1.0460000  1
   6045   6043   6054   6059     1  0.0000000  0.0000000  3
   6045   6043   6054   6057     1  0.0000000  0.6508444  3
   6045   6043   6054   6058     1  0.0000000  0.6508444  3
   6045   6043   6061   6048     1  0.0000000  1.6038667  3
   6046   6047   6048   6051     1  0.0000000  0.6508444  3
   6046   6047   6066   6056     1  0.0000000  1.2552000  3
   6046   6044   6064   6065     1  0.0000000  1.0460000  1
   6046   6044   6064   6065     1  0.0000000  0.6694400  3
   6047   6048   6052   6062     1  0.0000000  1.0460000  1
   6047   6048   6052   6062     1  0.0000000  0.6694400  3
   6047   6046   6053   6055     1  0.0000000  1.0460000  1
   6047   6046   6053   6055     1  0.0000000  0.6694400  3
   6047   6046   6044   6063     1  0.0000000  0.6508444  3
   6048   6047   6066   6056     1  0.0000000  1.2552000  3
   6048   6047   6046   6050     1  0.0000000  0.6508444  3
   6049   6047   6048   6052     1  0.0000000  1.0460000  1
   6049   6047   6048   6052     1  0.0000000  0.0000000  3
   6049   6047   6048   6061     1  0.0000000  1.0460000  1
   6049   6047   6048   6061     1  0.0000000  0.0000000  3
   6049   6047   6048   6051     1  0.0000000  0.6508444  3
   6049   6047   6066   6056     1  0.0000000  1.2552000  3
   6049   6047   6046   6053     1  0.0000000  1.0460000  1
   6049   6047   6046   6053     1  0.0000000  0.0000000  3
   6049   6047   6046   6050     1  0.0000000  0.6508444  3
   6050   6046   6047   6066     1  0.0000000  0.6508444  3
   6050   6046   6053   6055     1  0.0000000  0.6973333  3
   6050   6046   6044   6064     1  0.0000000  1.0460000  1
   6050   6046   6044   6064     1  0.0000000  0.0000000  3
   6050   6046   6044   6063     1  0.0000000  0.6508444  3
   6051   6048   6052   6062     1  0.0000000  0.6973333  3
   6051   6048   6047   6066     1  0.0000000  0.6508444  3
   6053   6046   6044   6063     1  0.0000000  1.0460000  1
   6053   6046   6044   6063     1  0.0000000  0.0000000  3
   6054   6043   6044   6063     1  0.0000000  0.6508444  3
   6057   6054   6059   6060     1  0.0000000  0.6973333  3
   6057   6054   6043   6061     1  0.0000000  1.0460000  1
   6057   6054   6043   6061     1  0.0000000  0.0000000  3
   6058   6054   6059   6060     1  0.0000000  0.6973333  3
   6058   6054   6043   6061     1  0.0000000  1.0460000  1
   6058   6054   6043   6061     1  0.0000000  0.0000000  3
   6061   6048   6052   6062     1  0.0000000  0.6973333  3
   6061   6043   6044   6063     1  0.0000000  1.0460000  1
   6061   6043   6044   6063     1  0.0000000  0.0000000  3
   6063   6044   6064   6065     1  0.0000000  0.6973333  3
   6067   6069   6071   6073     1  0.0000000  0.6508444  3
   6067   6069   6071   6074     1  0.0000000  0.6508444  3
   6068   6067   6069   6071     1  0.0000000  0.0000000  2
   6068   6067   6069   6070     1  0.0000000  0.0000000  2
   6068   6067   6069   6072     1  0.0000000  0.0000000  2
   6070   6069   6071   6075     1  0.0000000  0.6508444  3
   6070   6069   6071   6073     1  0.0000000  0.6508444  3
   6070   6069   6071   6074     1  0.0000000  0.6508444  3
   6071   6075   6076   6085     1  0.0000000  1.2552000  3
   6071   6075   6076   6086     1  0.0000000  1.2552000  3
   6071   6075   6077   6078     1  0.0000000  1.2552000  3
   6071   6075   6077   6080     1  0.0000000  1.2552000  3
   6072   6069   6071   6075     1  0.0000000  0.6508444  3
   6072   6069   6071   6073     1  0.0000000  0.6508444  3
   6072   6069   6071   6074     1  0.0000000  0.6508444  3
   6073   6071   6075   6076     1  0.0000000  1.2552000  3
   6073   6071   6075   6077     1  0.0000000  1.2552000  3
   6074   6071   6075   6076     1  0.0000000  1.2552000  3
   6074   6071   6075   6077     1  0.0000000  1.2552000  3
   6075   6076   6087   6088     1  0.0000000  0.6508444  3
   6075   6076   6087   6089     1  0.0000000  0.6508444  3
   6075   6077   6079   6081     1  0.0000000  0.6508444  3
   6075   6077   6079   6082     1  0.0000000  0.6508444  3
   6076   6075   6077   6078     1  0.0000000  1.2552000  3
   6076   6075   6077   6080     1  0.0000000  1.2552000  3
   6077   6075   6076   6085     1  0.0000000  1.2552000  3
   6077   6075   6076   6086     1  0.0000000  1.2552000  3
   6078   6077   6079   6083     1  0.0000000  0.6508444  3
   6078   6077   6079   6081     1  0.0000000  0.6508444  3
   6078   6077   6079   6082     1  0.0000000  0.6508444  3
   6079   6083   6115   6105     1  180.0000771  6.0668000  2
   6079   6083   6115   6105     1  180.0000771  1.4644000  4
   6080   6077   6079   6083     1  0.0000000  0.6508444  3
   6080   6077   6079   6081     1  0.0000000  0.6508444  3
   6080   6077   6079   6082     1  0.0000000  0.6508444  3
   6081   6079   6083   6084     1  0.0000000  3.3472000  1
   6081   6079   6083   6084     1  0.0000000  0.0000000  2
   6081   6079   6083   6084     1  180.0000771  0.3347200  3
   6081   6079   6083   6115     1  180.0000771  0.0000000  2
   6082   6079   6083   6084     1  0.0000000  3.3472000  1
   6082   6079   6083   6084     1  0.0000000  0.0000000  2
   6082   6079   6083   6084     1  180.0000771  0.3347200  3
   6082   6079   6083   6115     1  180.0000771  0.0000000  2
   6083   6115   6096   6098     1  0.0000000  1.2552000  3
   6084   6083   6115   6105     1  180.0000771  6.0668000  2
   6084   6083   6115   6105     1  180.0000771  1.4644000  4
   6085   6076   6087   6090     1  0.0000000  0.6508444  3
   6085   6076   6087   6088     1  0.0000000  0.6508444  3
   6085   6076   6087   6089     1  0.0000000  0.6508444  3
   6086   6076   6087   6090     1  0.0000000  0.6508444  3
   6086   6076   6087   6088     1  0.0000000  0.6508444  3
   6086   6076   6087   6089     1  0.0000000  0.6508444  3
   6087   6090   6139   6129     1  180.0000771  6.0668000  2
   6087   6090   6139   6129     1  180.0000771  1.4644000  4
   6088   6087   6090   6091     1  0.0000000  3.3472000  1
   6088   6087   6090   6091     1  0.0000000  0.0000000  2
   6088   6087   6090   6091     1  180.0000771  0.3347200  3
   6088   6087   6090   6139     1  180.0000771  0.0000000  2
   6089   6087   6090   6091     1  0.0000000  3.3472000  1
   6089   6087   6090   6091     1  0.0000000  0.0000000  2
   6089   6087   6090   6091     1  180.0000771  0.3347200  3
   6089   6087   6090   6139     1  180.0000771  0.0000000  2
   6090   6139   6120   6122     1  0.0000000  1.2552000  3
   6091   6090   6139   6129     1  180.0000771  6.0668000  2
   6091   6090   6139   6129     1  180.0000771  1.4644000  4
   6092   6093   6095   6099     1  0.0000000  0.6508444  3
   6092   6093   6113   6114     1  0.0000000  1.0460000  1
   6092   6093   6113   6114     1  0.0000000  0.6694400  3
   6092   6103   6108   6109     1  0.0000000  1.0460000  1
   6092   6103   6108   6109     1  0.0000000  0.6694400  3
   6092   6110   6097   6100     1  0.0000000  1.6038667  3
   6093   6092   6103   6106     1  0.0000000  0.6508444  3
   6093   6092   6103   6107     1  0.0000000  0.6508444  3
   6093   6095   6096   6098     1  0.0000000  0.6508444  3
   6093   6095   6102   6104     1  0.0000000  1.0460000  1
   6093   6095   6102   6104     1  0.0000000  0.6694400  3
   6094   6092   6093   6095     1  0.0000000  0.6508444  3
   6094   6092   6093   6113     1  0.0000000  1.0460000  1
   6094   6092   6093   6113     1  0.0000000  0.0000000  3
   6094   6092   6093   6112     1  0.0000000  0.6508444  3
   6094   6092   6103   6108     1  0.0000000  1.0460000  1
   6094   6092   6103   6108     1  0.0000000  0.0000000  3
   6094   6092   6103   6106     1  0.0000000  0.6508444  3
   6094   6092   6103   6107     1  0.0000000  0.6508444  3
   6094   6092   6110   6097     1  0.0000000  1.6038667  3
   6095   6093   6113   6114     1  0.0000000  1.0460000  1
   6095   6093   6113   6114     1  0.0000000  0.6694400  3
   6095   6096   6097   6100     1  0.0000000  0.6508444  3
   6095   6096   6115   6105     1  0.0000000  1.2552000  3
   6096   6095   6093   6112     1  0.0000000  0.6508444  3
   6096   6095   6102   6104     1  0.0000000  1.0460000  1
   6096   6095   6102   6104     1  0.0000000  0.6694400  3
   6096   6097   6101   6111     1  0.0000000  1.0460000  1
   6096   6097   6101   6111     1  0.0000000  0.6694400  3
   6097   6096   6095   6099     1  0.0000000  0.6508444  3
   6097   6096   6115   6105     1  0.0000000  1.2552000  3
   6098   6096   6095   6102     1  0.0000000  1.0460000  1
   6098   6096   6095   6102     1  0.0000000  0.0000000  3
   6098   6096   6095   6099     1  0.0000000  0.6508444  3
   6098   6096   6097   6101     1  0.0000000  1.0460000  1
   6098   6096   6097   6101     1  0.0000000  0.0000000  3
   6098   6096   6097   6110     1  0.0000000  1.0460000  1
   6098   6096   6097   6110     1  0.0000000  0.0000000  3
   6098   6096   6097   6100     1  0.0000000  0.6508444  3
   6098   6096   6115   6105     1  0.0000000  1.2552000  3
   6099   6095   6093   6113     1  0.0000000  1.0460000  1
   6099   6095   6093   6113     1  0.0000000  0.0000000  3
   6099   6095   6093   6112     1  0.0000000  0.6508444  3
   6099   6095   6096   6115     1  0.0000000  0.6508444  3
   6099   6095   6102   6104     1  0.0000000  0.6973333  3
   6100   6097   6096   6115     1  0.0000000  0.6508444  3
   6100   6097   6101   6111     1  0.0000000  0.6973333  3
   6102   6095   6093   6112     1  0.0000000  1.0460000  1
   6102   6095   6093   6112     1  0.0000000  0.0000000  3
   6103   6092   6093   6112     1  0.0000000  0.6508444  3
   6106   6103   6092   6110     1  0.0000000  1.0460000  1
   6106   6103   6092   6110     1  0.0000000  0.0000000  3
   6106   6103   6108   6109     1  0.0000000  0.6973333  3
   6107   6103   6092   6110     1  0.0000000  1.0460000  1
   6107   6103   6092   6110     1  0.0000000  0.0000000  3
   6107   6103   6108   6109     1  0.0000000  0.6973333  3
   6110   6092   6093   6112     1  0.0000000  1.0460000  1
   6110   6092   6093   6112     1  0.0000000  0.0000000  3
   6110   6097   6101   6111     1  0.0000000  0.6973333  3
   6112   6093   6113   6114     1  0.0000000  0.6973333  3
   6116   6117   6119   6123     1  0.0000000  0.6508444  3
   6116   6117   6137   6138     1  0.0000000  1.0460000  1
   6116   6117   6137   6138     1  0.0000000  0.6694400  3
   6116   6127   6132   6133     1  0.0000000  1.0460000  1
   6116   6127   6132   6133     1  0.0000000  0.6694400  3
   6116   6134   6121   6124     1  0.0000000  1.6038667  3
   6117   6116   6127   6130     1  0.0000000  0.6508444  3
   6117   6116   6127   6131     1  0.0000000  0.6508444  3
   6117   6119   6120   6122     1  0.0000000  0.6508444  3
   6117   6119   6126   6128     1  0.0000000  1.0460000  1
   6117   6119   6126   6128     1  0.0000000  0.6694400  3
   6118   6116   6117   6119     1  0.0000000  0.6508444  3
   6118   6116   6117   6137     1  0.0000000  1.0460000  1
   6118   6116   6117   6137     1  0.0000000  0.0000000  3
   6118   6116   6117   6136     1  0.0000000  0.6508444  3
   6118   6116   6127   6132     1  0.0000000  1.0460000  1
   6118   6116   6127   6132     1  0.0000000  0.0000000  3
   6118   6116   6127   6130     1  0.0000000  0.6508444  3
   6118   6116   6127   6131     1  0.0000000  0.6508444  3
   6118   6116   6134   6121     1  0.0000000  1.6038667  3
   6119   6117   6137   6138     1  0.0000000  1.0460000  1
   6119   6117   6137   6138     1  0.0000000  0.6694400  3
   6119   6120   6121   6124     1  0.0000000  0.6508444  3
   6119   6120   6139   6129     1  0.0000000  1.2552000  3
   6120   6119   6117   6136     1  0.0000000  0.6508444  3
   6120   6119   6126   6128     1  0.0000000  1.0460000  1
   6120   6119   6126   6128     1  0.0000000  0.6694400  3
   6120   6121   6125   6135     1  0.0000000  1.0460000  1
   6120   6121   6125   6135     1  0.0000000  0.6694400  3
   6121   6120   6119   6123     1  0.0000000  0.6508444  3
   6121   6120   6139   6129     1  0.0000000  1.2552000  3
   6122   6120   6119   6126     1  0.0000000  1.0460000  1
   6122   6120   6119   6126     1  0.0000000  0.0000000  3
   6122   6120   6119   6123     1  0.0000000  0.6508444  3
   6122   6120   6121   6125     1  0.0000000  1.0460000  1
   6122   6120   6121   6125     1  0.0000000  0.0000000  3
   6122   6120   6121   6134     1  0.0000000  1.0460000  1
   6122   6120   6121   6134     1  0.0000000  0.0000000  3
   6122   6120   6121   6124     1  0.0000000  0.6508444  3
   6122   6120   6139   6129     1  0.0000000  1.2552000  3
   6123   6119   6117   6137     1  0.0000000  1.0460000  1
   6123   6119   6117   6137     1  0.0000000  0.0000000  3
   6123   6119   6117   6136     1  0.0000000  0.6508444  3
   6123   6119   6120   6139     1  0.0000000  0.6508444  3
   6123   6119   6126   6128     1  0.0000000  0.6973333  3
   6124   6121   6120   6139     1  0.0000000  0.6508444  3
   6124   6121   6125   6135     1  0.0000000  0.6973333  3
   6126   6119   6117   6136     1  0.0000000  1.0460000  1
   6126   6119   6117   6136     1  0.0000000  0.0000000  3
   6127   6116   6117   6136     1  0.0000000  0.6508444  3
   6130   6127   6116   6134     1  0.0000000  1.0460000  1
   6130   6127   6116   6134     1  0.0000000  0.0000000  3
   6130   6127   6132   6133     1  0.0000000  0.6973333  3
   6131   6127   6116   6134     1  0.0000000  1.0460000  1
   6131   6127   6116   6134     1  0.0000000  0.0000000  3
   6131   6127   6132   6133     1  0.0000000  0.6973333  3
   6134   6116   6117   6136     1  0.0000000  1.0460000  1
   6134   6116   6117   6136     1  0.0000000  0.0000000  3
   6134   6121   6125   6135     1  0.0000000  0.6973333  3
   6136   6117   6137   6138     1  0.0000000  0.6973333  3
   6140   6142   6144   6146     1  0.0000000  0.6508444  3
   6140   6142   6144   6147     1  0.0000000  0.6508444  3
   6141   6140   6142   6144     1  0.0000000  0.0000000  2
   6141   6140   6142   6143     1  0.0000000  0.0000000  2
   6141   6140   6142   6145     1  0.0000000  0.0000000  2
   6143   6142   6144   6148     1  0.0000000  0.6508444  3
   6143   6142   6144   6146     1  0.0000000  0.6508444  3
   6143   6142   6144   6147     1  0.0000000  0.6508444  3
   6144   6148   6149   6158     1  0.0000000  1.2552000  3
   6144   6148   6149   6159     1  0.0000000  1.2552000  3
   6144   6148   6150   6151     1  0.0000000  1.2552000  3
   6144   6148   6150   6153     1  0.0000000  1.2552000  3
   6145   6142   6144   6148     1  0.0000000  0.6508444  3
   6145   6142   6144   6146     1  0.0000000  0.6508444  3
   6145   6142   6144   6147     1  0.0000000  0.6508444  3
   6146   6144   6148   6149     1  0.0000000  1.2552000  3
   6146   6144   6148   6150     1  0.0000000  1.2552000  3
   6147   6144   6148   6149     1  0.0000000  1.2552000  3
   6147   6144   6148   6150     1  0.0000000  1.2552000  3
   6148   6149   6160   6161     1  0.0000000  0.6508444  3
   6148   6149   6160   6162     1  0.0000000  0.6508444  3
   6148   6150   6152   6154     1  0.0000000  0.6508444  3
   6148   6150   6152   6155     1  0.0000000  0.6508444  3
   6149   6148   6150   6151     1  0.0000000  1.2552000  3
   6149   6148   6150   6153     1  0.0000000  1.2552000  3
   6150   6148   6149   6158     1  0.0000000  1.2552000  3
   6150   6148   6149   6159     1  0.0000000  1.2552000  3
   6151   6150   6152   6156     1  0.0000000  0.6508444  3
   6151   6150   6152   6154     1  0.0000000  0.6508444  3
   6151   6150   6152   6155     1  0.0000000  0.6508444  3
   6152   6156   6188   6178     1  180.0000771  6.0668000  2
   6152   6156   6188   6178     1  180.0000771  1.4644000  4
   6153   6150   6152   6156     1  0.0000000  0.6508444  3
   6153   6150   6152   6154     1  0.0000000  0.6508444  3
   6153   6150   6152   6155     1  0.0000000  0.6508444  3
   6154   6152   6156   6157     1  0.0000000  3.3472000  1
   6154   6152   6156   6157     1  0.0000000  0.0000000  2
   6154   6152   6156   6157     1  180.0000771  0.3347200  3
   6154   6152   6156   6188     1  180.0000771  0.0000000  2
   6155   6152   6156   6157     1  0.0000000  3.3472000  1
   6155   6152   6156   6157     1  0.0000000  0.0000000  2
   6155   6152   6156   6157     1  180.0000771  0.3347200  3
   6155   6152   6156   6188     1  180.0000771  0.0000000  2
   6156   6188   6169   6171     1  0.0000000  1.2552000  3
   6157   6156   6188   6178     1  180.0000771  6.0668000  2
   6157   6156   6188   6178     1  180.0000771  1.4644000  4
   6158   6149   6160   6163     1  0.0000000  0.6508444  3
   6158   6149   6160   6161     1  0.0000000  0.6508444  3
   6158   6149   6160   6162     1  0.0000000  0.6508444  3
   6159   6149   6160   6163     1  0.0000000  0.6508444  3
   6159   6149   6160   6161     1  0.0000000  0.6508444  3
   6159   6149   6160   6162     1  0.0000000  0.6508444  3
   6160   6163   6212   6202     1  180.0000771  6.0668000  2
   6160   6163   6212   6202     1  180.0000771  1.4644000  4
   6161   6160   6163   6164     1  0.0000000  3.3472000  1
   6161   6160   6163   6164     1  0.0000000  0.0000000  2
   6161   6160   6163   6164     1  180.0000771  0.3347200  3
   6161   6160   6163   6212     1  180.0000771  0.0000000  2
   6162   6160   6163   6164     1  0.0000000  3.3472000  1
   6162   6160   6163   6164     1  0.0000000  0.0000000  2
   6162   6160   6163   6164     1  180.0000771  0.3347200  3
   6162   6160   6163   6212     1  180.0000771  0.0000000  2
   6163   6212   6193   6195     1  0.0000000  1.2552000  3
   6164   6163   6212   6202     1  180.0000771  6.0668000  2
   6164   6163   6212   6202     1  180.0000771  1.4644000  4
   6165   6166   6168   6172     1  0.0000000  0.6508444  3
   6165   6166   6186   6187     1  0.0000000  1.0460000  1
   6165   6166   6186   6187     1  0.0000000  0.6694400  3
   6165   6176   6181   6182     1  0.0000000  1.0460000  1
   6165   6176   6181   6182     1  0.0000000  0.6694400  3
   6165   6183   6170   6173     1  0.0000000  1.6038667  3
   6166   6168   6169   6171     1  0.0000000  0.6508444  3
   6166   6168   6175   6177     1  0.0000000  1.0460000  1
   6166   6168   6175   6177     1  0.0000000  0.6694400  3
   6166   6165   6176   6179     1  0.0000000  0.6508444  3
   6166   6165   6176   6180     1  0.0000000  0.6508444  3
   6167   6165   6166   6168     1  0.0000000  0.6508444  3
   6167   6165   6166   6186     1  0.0000000  1.0460000  1
   6167   6165   6166   6186     1  0.0000000  0.0000000  3
   6167   6165   6166   6185     1  0.0000000  0.6508444  3
   6167   6165   6176   6181     1  0.0000000  1.0460000  1
   6167   6165   6176   6181     1  0.0000000  0.0000000  3
   6167   6165   6176   6179     1  0.0000000  0.6508444  3
   6167   6165   6176   6180     1  0.0000000  0.6508444  3
   6167   6165   6183   6170     1  0.0000000  1.6038667  3
   6168   6169   6170   6173     1  0.0000000  0.6508444  3
   6168   6169   6188   6178     1  0.0000000  1.2552000  3
   6168   6166   6186   6187     1  0.0000000  1.0460000  1
   6168   6166   6186   6187     1  0.0000000  0.6694400  3
   6169   6170   6174   6184     1  0.0000000  1.0460000  1
   6169   6170   6174   6184     1  0.0000000  0.6694400  3
   6169   6168   6175   6177     1  0.0000000  1.0460000  1
   6169   6168   6175   6177     1  0.0000000  0.6694400  3
   6169   6168   6166   6185     1  0.0000000  0.6508444  3
   6170   6169   6188   6178     1  0.0000000  1.2552000  3
   6170   6169   6168   6172     1  0.0000000  0.6508444  3
   6171   6169   6170   6174     1  0.0000000  1.0460000  1
   6171   6169   6170   6174     1  0.0000000  0.0000000  3
   6171   6169   6170   6183     1  0.0000000  1.0460000  1
   6171   6169   6170   6183     1  0.0000000  0.0000000  3
   6171   6169   6170   6173     1  0.0000000  0.6508444  3
   6171   6169   6188   6178     1  0.0000000  1.2552000  3
   6171   6169   6168   6175     1  0.0000000  1.0460000  1
   6171   6169   6168   6175     1  0.0000000  0.0000000  3
   6171   6169   6168   6172     1  0.0000000  0.6508444  3
   6172   6168   6169   6188     1  0.0000000  0.6508444  3
   6172   6168   6175   6177     1  0.0000000  0.6973333  3
   6172   6168   6166   6186     1  0.0000000  1.0460000  1
   6172   6168   6166   6186     1  0.0000000  0.0000000  3
   6172   6168   6166   6185     1  0.0000000  0.6508444  3
   6173   6170   6174   6184     1  0.0000000  0.6973333  3
   6173   6170   6169   6188     1  0.0000000  0.6508444  3
   6175   6168   6166   6185     1  0.0000000  1.0460000  1
   6175   6168   6166   6185     1  0.0000000  0.0000000  3
   6176   6165   6166   6185     1  0.0000000  0.6508444  3
   6179   6176   6181   6182     1  0.0000000  0.6973333  3
   6179   6176   6165   6183     1  0.0000000  1.0460000  1
   6179   6176   6165   6183     1  0.0000000  0.0000000  3
   6180   6176   6181   6182     1  0.0000000  0.6973333  3
   6180   6176   6165   6183     1  0.0000000  1.0460000  1
   6180   6176   6165   6183     1  0.0000000  0.0000000  3
   6183   6170   6174   6184     1  0.0000000  0.6973333  3
   6183   6165   6166   6185     1  0.0000000  1.0460000  1
   6183   6165   6166   6185     1  0.0000000  0.0000000  3
   6185   6166   6186   6187     1  0.0000000  0.6973333  3
   6189   6190   6192   6196     1  0.0000000  0.6508444  3
   6189   6190   6210   6211     1  0.0000000  1.0460000  1
   6189   6190   6210   6211     1  0.0000000  0.6694400  3
   6189   6200   6205   6206     1  0.0000000  1.0460000  1
   6189   6200   6205   6206     1  0.0000000  0.6694400  3
   6189   6207   6194   6197     1  0.0000000  1.6038667  3
   6190   6192   6193   6195     1  0.0000000  0.6508444  3
   6190   6192   6199   6201     1  0.0000000  1.0460000  1
   6190   6192   6199   6201     1  0.0000000  0.6694400  3
   6190   6189   6200   6203     1  0.0000000  0.6508444  3
   6190   6189   6200   6204     1  0.0000000  0.6508444  3
   6191   6189   6190   6192     1  0.0000000  0.6508444  3
   6191   6189   6190   6210     1  0.0000000  1.0460000  1
   6191   6189   6190   6210     1  0.0000000  0.0000000  3
   6191   6189   6190   6209     1  0.0000000  0.6508444  3
   6191   6189   6200   6205     1  0.0000000  1.0460000  1
   6191   6189   6200   6205     1  0.0000000  0.0000000  3
   6191   6189   6200   6203     1  0.0000000  0.6508444  3
   6191   6189   6200   6204     1  0.0000000  0.6508444  3
   6191   6189   6207   6194     1  0.0000000  1.6038667  3
   6192   6193   6194   6197     1  0.0000000  0.6508444  3
   6192   6193   6212   6202     1  0.0000000  1.2552000  3
   6192   6190   6210   6211     1  0.0000000  1.0460000  1
   6192   6190   6210   6211     1  0.0000000  0.6694400  3
   6193   6194   6198   6208     1  0.0000000  1.0460000  1
   6193   6194   6198   6208     1  0.0000000  0.6694400  3
   6193   6192   6199   6201     1  0.0000000  1.0460000  1
   6193   6192   6199   6201     1  0.0000000  0.6694400  3
   6193   6192   6190   6209     1  0.0000000  0.6508444  3
   6194   6193   6212   6202     1  0.0000000  1.2552000  3
   6194   6193   6192   6196     1  0.0000000  0.6508444  3
   6195   6193   6194   6198     1  0.0000000  1.0460000  1
   6195   6193   6194   6198     1  0.0000000  0.0000000  3
   6195   6193   6194   6207     1  0.0000000  1.0460000  1
   6195   6193   6194   6207     1  0.0000000  0.0000000  3
   6195   6193   6194   6197     1  0.0000000  0.6508444  3
   6195   6193   6212   6202     1  0.0000000  1.2552000  3
   6195   6193   6192   6199     1  0.0000000  1.0460000  1
   6195   6193   6192   6199     1  0.0000000  0.0000000  3
   6195   6193   6192   6196     1  0.0000000  0.6508444  3
   6196   6192   6193   6212     1  0.0000000  0.6508444  3
   6196   6192   6199   6201     1  0.0000000  0.6973333  3
   6196   6192   6190   6210     1  0.0000000  1.0460000  1
   6196   6192   6190   6210     1  0.0000000  0.0000000  3
   6196   6192   6190   6209     1  0.0000000  0.6508444  3
   6197   6194   6198   6208     1  0.0000000  0.6973333  3
   6197   6194   6193   6212     1  0.0000000  0.6508444  3
   6199   6192   6190   6209     1  0.0000000  1.0460000  1
   6199   6192   6190   6209     1  0.0000000  0.0000000  3
   6200   6189   6190   6209     1  0.0000000  0.6508444  3
   6203   6200   6205   6206     1  0.0000000  0.6973333  3
   6203   6200   6189   6207     1  0.0000000  1.0460000  1
   6203   6200   6189   6207     1  0.0000000  0.0000000  3
   6204   6200   6205   6206     1  0.0000000  0.6973333  3
   6204   6200   6189   6207     1  0.0000000  1.0460000  1
   6204   6200   6189   6207     1  0.0000000  0.0000000  3
   6207   6194   6198   6208     1  0.0000000  0.6973333  3
   6207   6189   6190   6209     1  0.0000000  1.0460000  1
   6207   6189   6190   6209     1  0.0000000  0.0000000  3
   6209   6190   6210   6211     1  0.0000000  0.6973333  3
     33     44     64     65     4  180.0000771  4.6024000  2
     34     69     89     90     4  180.0000771  4.6024000  2
     35     94    114    115     4  180.0000771  4.6024000  2
     36    119    139    140     4  180.0000771  4.6024000  2
     60    144    164    165     4  180.0000771  4.6024000  2
     61    169    189    190     4  180.0000771  4.6024000  2
     85    194    214    215     4  180.0000771  4.6024000  2
     86    219    239    240     4  180.0000771  4.6024000  2
    110    244    264    265     4  180.0000771  4.6024000  2
    111    269    289    290     4  180.0000771  4.6024000  2
    135    294    314    315     4  180.0000771  4.6024000  2
    136    319    339    340     4  180.0000771  4.6024000  2
    160    344    364    365     4  180.0000771  4.6024000  2
    161    369    389    390     4  180.0000771  4.6024000  2
    185    394    414    415     4  180.0000771  4.6024000  2
    186    419    439    440     4  180.0000771  4.6024000  2
    210    444    464    465     4  180.0000771  4.6024000  2
    211    469    489    490     4  180.0000771  4.6024000  2
    235    494    514    515     4  180.0000771  4.6024000  2
    236    519    539    540     4  180.0000771  4.6024000  2
    260    544    564    565     4  180.0000771  4.6024000  2
    261    569    589    590     4  180.0000771  4.6024000  2
    285    594    614    615     4  180.0000771  4.6024000  2
    286    619    639    640     4  180.0000771  4.6024000  2
    310    644    664    665     4  180.0000771  4.6024000  2
    311    669    689    690     4  180.0000771  4.6024000  2
    335    694    714    715     4  180.0000771  4.6024000  2
    336    719    739    740     4  180.0000771  4.6024000  2
    360    744    764    765     4  180.0000771  4.6024000  2
    361    769    789    790     4  180.0000771  4.6024000  2
    385    794    814    815     4  180.0000771  4.6024000  2
    386    819    839    840     4  180.0000771  4.6024000  2
    410    844    864    865     4  180.0000771  4.6024000  2
    411    869    889    890     4  180.0000771  4.6024000  2
    435    894    914    915     4  180.0000771  4.6024000  2
    436    919    939    940     4  180.0000771  4.6024000  2
    460    944    964    965     4  180.0000771  4.6024000  2
    461    969    989    990     4  180.0000771  4.6024000  2
    485    994   1014   1015     4  180.0000771  4.6024000  2
    486   1019   1039   1040     4  180.0000771  4.6024000  2
    510   1044   1064   1065     4  180.0000771  4.6024000  2
    511   1069   1089   1090     4  180.0000771  4.6024000  2
    535   1094   1114   1115     4  180.0000771  4.6024000  2
    536   1119   1139   1140     4  180.0000771  4.6024000  2
    560   1144   1164   1165     4  180.0000771  4.6024000  2
    561   1169   1189   1190     4  180.0000771  4.6024000  2
    585   1194   1214   1215     4  180.0000771  4.6024000  2
    586   1219   1239   1240     4  180.0000771  4.6024000  2
    610   1244   1264   1265     4  180.0000771  4.6024000  2
    611   1269   1289   1290     4  180.0000771  4.6024000  2
    635   1294   1314   1315     4  180.0000771  4.6024000  2
    636   1319   1339   1340     4  180.0000771  4.6024000  2
    660   1344   1364   1365     4  180.0000771  4.6024000  2
    661   1369   1389   1390     4  180.0000771  4.6024000  2
    685   1394   1414   1415     4  180.0000771  4.6024000  2
    686   1419   1439   1440     4  180.0000771  4.6024000  2
    710   1444   1464   1465     4  180.0000771  4.6024000  2
    711   1469   1489   1490     4  180.0000771  4.6024000  2
    735   1494   1514   1515     4  180.0000771  4.6024000  2
    736   1519   1539   1540     4  180.0000771  4.6024000  2
    760   1543   1541   1542     4  180.0000771  4.6024000  2
    761   1616   1614   1615     4  180.0000771  4.6024000  2
    785   1689   1687   1688     4  180.0000771  4.6024000  2
    786   1762   1760   1761     4  180.0000771  4.6024000  2
    810   1835   1833   1834     4  180.0000771  4.6024000  2
    811   1908   1906   1907     4  180.0000771  4.6024000  2
    835   1981   1979   1980     4  180.0000771  4.6024000  2
    836   2054   2052   2053     4  180.0000771  4.6024000  2
    860   2127   2125   2126     4  180.0000771  4.6024000  2
    861   2200   2198   2199     4  180.0000771  4.6024000  2
    885   2273   2271   2272     4  180.0000771  4.6024000  2
    886   2346   2344   2345     4  180.0000771  4.6024000  2
    910   2419   2417   2418     4  180.0000771  4.6024000  2
    911   2492   2490   2491     4  180.0000771  4.6024000  2
    935   2565   2563   2564     4  180.0000771  4.6024000  2
    936   2638   2636   2637     4  180.0000771  4.6024000  2
    960   2711   2709   2710     4  180.0000771  4.6024000  2
    961   2784   2782   2783     4  180.0000771  4.6024000  2
    985   2857   2855   2856     4  180.0000771  4.6024000  2
    986   2930   2928   2929     4  180.0000771  4.6024000  2
   1010   3003   3001   3002     4  180.0000771  4.6024000  2
   1011   3076   3074   3075     4  180.0000771  4.6024000  2
   1035   3149   3147   3148     4  180.0000771  4.6024000  2
   1036   3222   3220   3221     4  180.0000771  4.6024000  2
   1060   3295   3293   3294     4  180.0000771  4.6024000  2
   1061   3368   3366   3367     4  180.0000771  4.6024000  2
   1085   3441   3439   3440     4  180.0000771  4.6024000  2
   1086   3514   3512   3513     4  180.0000771  4.6024000  2
   1110   3587   3585   3586     4  180.0000771  4.6024000  2
   1111   3660   3658   3659     4  180.0000771  4.6024000  2
   1135   3733   3731   3732     4  180.0000771  4.6024000  2
   1136   3806   3804   3805     4  180.0000771  4.6024000  2
   1160   3879   3877   3878     4  180.0000771  4.6024000  2
   1161   3952   3950   3951     4  180.0000771  4.6024000  2
   1185   4025   4023   4024     4  180.0000771  4.6024000  2
   1186   4098   4096   4097     4  180.0000771  4.6024000  2
   1210   4171   4169   4170     4  180.0000771  4.6024000  2
   1211   4244   4242   4243     4  180.0000771  4.6024000  2
   1235   4317   4315   4316     4  180.0000771  4.6024000  2
   1236   4390   4388   4389     4  180.0000771  4.6024000  2
   1260   4463   4461   4462     4  180.0000771  4.6024000  2
   1261   4536   4534   4535     4  180.0000771  4.6024000  2
   1285   4609   4607   4608     4  180.0000771  4.6024000  2
   1286   4682   4680   4681     4  180.0000771  4.6024000  2
   1310   4755   4753   4754     4  180.0000771  4.6024000  2
   1311   4828   4826   4827     4  180.0000771  4.6024000  2
   1335   4901   4899   4900     4  180.0000771  4.6024000  2
   1336   4974   4972   4973     4  180.0000771  4.6024000  2
   1360   5047   5045   5046     4  180.0000771  4.6024000  2
   1361   5120   5118   5119     4  180.0000771  4.6024000  2
   1385   5193   5191   5192     4  180.0000771  4.6024000  2
   1386   5266   5264   5265     4  180.0000771  4.6024000  2
   1410   5339   5337   5338     4  180.0000771  4.6024000  2
   1411   5412   5410   5411     4  180.0000771  4.6024000  2
   1435   5485   5483   5484     4  180.0000771  4.6024000  2
   1436   5558   5556   5557     4  180.0000771  4.6024000  2
   1460   5631   5629   5630     4  180.0000771  4.6024000  2
   1461   5704   5702   5703     4  180.0000771  4.6024000  2
   1485   5777   5775   5776     4  180.0000771  4.6024000  2
   1486   5850   5848   5849     4  180.0000771  4.6024000  2
   1510   5923   5921   5922     4  180.0000771  4.6024000  2
   1511   5996   5994   5995     4  180.0000771  4.6024000  2
   1535   6069   6067   6068     4  180.0000771  4.6024000  2
   1536   6142   6140   6141     4  180.0000771  4.6024000  2

;[ system ]
;; Name
;Generic title
;
;[ molecules ]
;; Compound       #mols
;system1              1
