;
;   File g3np_pamam.itp  was generated
;   By user: sairam (1000)
;   On host: sairam
;   At date: Sat. August  6 14:04:16 2023
;
;   This is a standalone topology file
;
;   Created by:
;   ParmEd:       amb2gro_top_gro.py, VERSION 3.4.1
;   Executable:   amb2gro_top_gro.py
;   Library dir:  /usr/local/gromacs/share/gromacs/top
;   Command line:
;     ./amb2gro_top_gro.py -p g3np_pamam.prmtop -c g3np_pamam.inpcrd -t g3np_pamam.itp -g g3np_pamam.gro -b g3np_pamam.pdb
;

;[ defaults ]
;; nbfunc        comb-rule       gen-pairs       fudgeLJ fudgeQQ
;1               2               yes             0.5          0.83333333  
;
;[ atomtypes ]
;; name    at.num    mass    charge ptype  sigma      epsilon
;c3             6  12.010000  0.00000000  A     0.33996695      0.4577296
;h1             1   1.008000  0.00000000  A      0.2471353      0.0656888
;n3             7  14.010000  0.00000000  A     0.32499985        0.71128
;hc             1   1.008000  0.00000000  A     0.26495328      0.0656888
;c              6  12.010000  0.00000000  A     0.33996695       0.359824
;o              8  16.000000  0.00000000  A     0.29599219        0.87864
;n              7  14.010000  0.00000000  A     0.32499985        0.71128
;hn             1   1.008000  0.00000000  A     0.10690785      0.0656888
;

[ moleculetype ]
; Name            nrexcl
g3np_pamam       3

[ atoms ]
;   nr       type  resnr residue  atom   cgnr    charge       mass  typeB    chargeB      massB
; residue    1 aaa rtp aaa q -0.0
    1         c3      1    aaa     C1      1 0.02890000  12.010000   ; qtot 0.028900
    2         h1      1    aaa     H1      2 0.08460000   1.008000   ; qtot 0.113500
    3         h1      1    aaa     H2      3 0.08460000   1.008000   ; qtot 0.198100
    4         c3      1    aaa     C2      4 0.02890000  12.010000   ; qtot 0.227000
    5         h1      1    aaa     H3      5 0.08460000   1.008000   ; qtot 0.311600
    6         h1      1    aaa     H4      6 0.08460000   1.008000   ; qtot 0.396200
    7         n3      1    aaa     N1      7 -0.65770000  14.010000   ; qtot -0.261500
    8         n3      1    aaa     N2      8 -0.65770000  14.010000   ; qtot -0.919200
    9         c3      1    aaa     C3      9 0.36940000  12.010000   ; qtot -0.549800
   10         h1      1    aaa     H5     10 0.00650000   1.008000   ; qtot -0.543300
   11         h1      1    aaa     H6     11 0.00650000   1.008000   ; qtot -0.536800
   12         c3      1    aaa     C4     12 0.36940000  12.010000   ; qtot -0.167400
   13         h1      1    aaa     H7     13 0.00650000   1.008000   ; qtot -0.160900
   14         h1      1    aaa     H8     14 0.00650000   1.008000   ; qtot -0.154400
   15         c3      1    aaa     C5     15 0.36940000  12.010000   ; qtot 0.215000
   16         h1      1    aaa     H9     16 0.00650000   1.008000   ; qtot 0.221500
   17         h1      1    aaa    H10     17 0.00650000   1.008000   ; qtot 0.228000
   18         c3      1    aaa     C6     18 0.36940000  12.010000   ; qtot 0.597400
   19         h1      1    aaa    H11     19 0.00650000   1.008000   ; qtot 0.603900
   20         h1      1    aaa    H12     20 0.00650000   1.008000   ; qtot 0.610400
   21         c3      1    aaa     C7     21 -0.54350000  12.010000   ; qtot 0.066900
   22         hc      1    aaa    H13     22 0.15890000   1.008000   ; qtot 0.225800
   23         hc      1    aaa    H14     23 0.15890000   1.008000   ; qtot 0.384700
   24         c3      1    aaa     C8     24 -0.54350000  12.010000   ; qtot -0.158800
   25         hc      1    aaa    H15     25 0.15890000   1.008000   ; qtot 0.000100
   26         hc      1    aaa    H16     26 0.15890000   1.008000   ; qtot 0.159000
   27         c3      1    aaa     C9     27 -0.54350000  12.010000   ; qtot -0.384500
   28         hc      1    aaa    H17     28 0.15890000   1.008000   ; qtot -0.225600
   29         hc      1    aaa    H18     29 0.15890000   1.008000   ; qtot -0.066700
   30         c3      1    aaa    C10     30 -0.54350000  12.010000   ; qtot -0.610200
   31         hc      1    aaa    H19     31 0.15890000   1.008000   ; qtot -0.451300
   32         hc      1    aaa    H20     32 0.15890000   1.008000   ; qtot -0.292400
   33          c      1    aaa    C11     33 0.67800000  12.010000   ; qtot 0.385600
   34          c      1    aaa    C12     34 0.67800000  12.010000   ; qtot 1.063600
   35          c      1    aaa    C13     35 0.67800000  12.010000   ; qtot 1.741600
   36          c      1    aaa    C14     36 0.67800000  12.010000   ; qtot 2.419600
   37          o      1    aaa     O1     37 -0.60490000  16.000000   ; qtot 1.814700
   38          o      1    aaa     O2     38 -0.60490000  16.000000   ; qtot 1.209800
   39          o      1    aaa     O3     39 -0.60490000  16.000000   ; qtot 0.604900
   40          o      1    aaa     O4     40 -0.60490000  16.000000   ; qtot -0.000000
; residue    2 bbb rtp bbb q -0.0
   41         c3      2    bbb     C1     41 0.44180000  12.010000   ; qtot 0.441800
   42         h1      2    bbb     H1     42 -0.03530000   1.008000   ; qtot 0.406500
   43         h1      2    bbb     H2     43 -0.03530000   1.008000   ; qtot 0.371200
   44         c3      2    bbb     C2     44 -0.28250000  12.010000   ; qtot 0.088700
   45         h1      2    bbb     H3     45 0.15710000   1.008000   ; qtot 0.245800
   46         h1      2    bbb     H4     46 0.15710000   1.008000   ; qtot 0.402900
   47         n3      2    bbb     N1     47 -0.74090000  14.010000   ; qtot -0.338000
   48         c3      2    bbb     C3     48 0.51680000  12.010000   ; qtot 0.178800
   49         h1      2    bbb     H5     49 -0.05230000   1.008000   ; qtot 0.126500
   50         h1      2    bbb     H6     50 -0.05230000   1.008000   ; qtot 0.074200
   51         c3      2    bbb     C4     51 0.51680000  12.010000   ; qtot 0.591000
   52         h1      2    bbb     H7     52 -0.05230000   1.008000   ; qtot 0.538700
   53         h1      2    bbb     H8     53 -0.05230000   1.008000   ; qtot 0.486400
   54         c3      2    bbb     C5     54 -0.60390000  12.010000   ; qtot -0.117500
   55         hc      2    bbb     H9     55 0.16730000   1.008000   ; qtot 0.049800
   56         hc      2    bbb    H10     56 0.16730000   1.008000   ; qtot 0.217100
   57         c3      2    bbb     C6     57 -0.60390000  12.010000   ; qtot -0.386800
   58         hc      2    bbb    H11     58 0.16730000   1.008000   ; qtot -0.219500
   59         hc      2    bbb    H12     59 0.16730000   1.008000   ; qtot -0.052200
   60          c      2    bbb     C7     60 0.72110000  12.010000   ; qtot 0.668900
   61          c      2    bbb     C8     61 0.72110000  12.010000   ; qtot 1.390000
   62          o      2    bbb     O1     62 -0.61950000  16.000000   ; qtot 0.770500
   63          o      2    bbb     O2     63 -0.61950000  16.000000   ; qtot 0.151000
   64          n      2    bbb     N4     64 -0.46580000  14.010000   ; qtot -0.314800
   65         hn      2    bbb    H21     65 0.31480000   1.008000   ; qtot -0.000000
; residue    3 bbb rtp bbb q -0.0
   66         c3      3    bbb     C1     66 0.44180000  12.010000   ; qtot 0.441800
   67         h1      3    bbb     H1     67 -0.03530000   1.008000   ; qtot 0.406500
   68         h1      3    bbb     H2     68 -0.03530000   1.008000   ; qtot 0.371200
   69         c3      3    bbb     C2     69 -0.28250000  12.010000   ; qtot 0.088700
   70         h1      3    bbb     H3     70 0.15710000   1.008000   ; qtot 0.245800
   71         h1      3    bbb     H4     71 0.15710000   1.008000   ; qtot 0.402900
   72         n3      3    bbb     N1     72 -0.74090000  14.010000   ; qtot -0.338000
   73         c3      3    bbb     C3     73 0.51680000  12.010000   ; qtot 0.178800
   74         h1      3    bbb     H5     74 -0.05230000   1.008000   ; qtot 0.126500
   75         h1      3    bbb     H6     75 -0.05230000   1.008000   ; qtot 0.074200
   76         c3      3    bbb     C4     76 0.51680000  12.010000   ; qtot 0.591000
   77         h1      3    bbb     H7     77 -0.05230000   1.008000   ; qtot 0.538700
   78         h1      3    bbb     H8     78 -0.05230000   1.008000   ; qtot 0.486400
   79         c3      3    bbb     C5     79 -0.60390000  12.010000   ; qtot -0.117500
   80         hc      3    bbb     H9     80 0.16730000   1.008000   ; qtot 0.049800
   81         hc      3    bbb    H10     81 0.16730000   1.008000   ; qtot 0.217100
   82         c3      3    bbb     C6     82 -0.60390000  12.010000   ; qtot -0.386800
   83         hc      3    bbb    H11     83 0.16730000   1.008000   ; qtot -0.219500
   84         hc      3    bbb    H12     84 0.16730000   1.008000   ; qtot -0.052200
   85          c      3    bbb     C7     85 0.72110000  12.010000   ; qtot 0.668900
   86          c      3    bbb     C8     86 0.72110000  12.010000   ; qtot 1.390000
   87          o      3    bbb     O1     87 -0.61950000  16.000000   ; qtot 0.770500
   88          o      3    bbb     O2     88 -0.61950000  16.000000   ; qtot 0.151000
   89          n      3    bbb     N4     89 -0.46580000  14.010000   ; qtot -0.314800
   90         hn      3    bbb    H21     90 0.31480000   1.008000   ; qtot -0.000000
; residue    4 bbb rtp bbb q -0.0
   91         c3      4    bbb     C1     91 0.44180000  12.010000   ; qtot 0.441800
   92         h1      4    bbb     H1     92 -0.03530000   1.008000   ; qtot 0.406500
   93         h1      4    bbb     H2     93 -0.03530000   1.008000   ; qtot 0.371200
   94         c3      4    bbb     C2     94 -0.28250000  12.010000   ; qtot 0.088700
   95         h1      4    bbb     H3     95 0.15710000   1.008000   ; qtot 0.245800
   96         h1      4    bbb     H4     96 0.15710000   1.008000   ; qtot 0.402900
   97         n3      4    bbb     N1     97 -0.74090000  14.010000   ; qtot -0.338000
   98         c3      4    bbb     C3     98 0.51680000  12.010000   ; qtot 0.178800
   99         h1      4    bbb     H5     99 -0.05230000   1.008000   ; qtot 0.126500
  100         h1      4    bbb     H6    100 -0.05230000   1.008000   ; qtot 0.074200
  101         c3      4    bbb     C4    101 0.51680000  12.010000   ; qtot 0.591000
  102         h1      4    bbb     H7    102 -0.05230000   1.008000   ; qtot 0.538700
  103         h1      4    bbb     H8    103 -0.05230000   1.008000   ; qtot 0.486400
  104         c3      4    bbb     C5    104 -0.60390000  12.010000   ; qtot -0.117500
  105         hc      4    bbb     H9    105 0.16730000   1.008000   ; qtot 0.049800
  106         hc      4    bbb    H10    106 0.16730000   1.008000   ; qtot 0.217100
  107         c3      4    bbb     C6    107 -0.60390000  12.010000   ; qtot -0.386800
  108         hc      4    bbb    H11    108 0.16730000   1.008000   ; qtot -0.219500
  109         hc      4    bbb    H12    109 0.16730000   1.008000   ; qtot -0.052200
  110          c      4    bbb     C7    110 0.72110000  12.010000   ; qtot 0.668900
  111          c      4    bbb     C8    111 0.72110000  12.010000   ; qtot 1.390000
  112          o      4    bbb     O1    112 -0.61950000  16.000000   ; qtot 0.770500
  113          o      4    bbb     O2    113 -0.61950000  16.000000   ; qtot 0.151000
  114          n      4    bbb     N4    114 -0.46580000  14.010000   ; qtot -0.314800
  115         hn      4    bbb    H21    115 0.31480000   1.008000   ; qtot -0.000000
; residue    5 bbb rtp bbb q -0.0
  116         c3      5    bbb     C1    116 0.44180000  12.010000   ; qtot 0.441800
  117         h1      5    bbb     H1    117 -0.03530000   1.008000   ; qtot 0.406500
  118         h1      5    bbb     H2    118 -0.03530000   1.008000   ; qtot 0.371200
  119         c3      5    bbb     C2    119 -0.28250000  12.010000   ; qtot 0.088700
  120         h1      5    bbb     H3    120 0.15710000   1.008000   ; qtot 0.245800
  121         h1      5    bbb     H4    121 0.15710000   1.008000   ; qtot 0.402900
  122         n3      5    bbb     N1    122 -0.74090000  14.010000   ; qtot -0.338000
  123         c3      5    bbb     C3    123 0.51680000  12.010000   ; qtot 0.178800
  124         h1      5    bbb     H5    124 -0.05230000   1.008000   ; qtot 0.126500
  125         h1      5    bbb     H6    125 -0.05230000   1.008000   ; qtot 0.074200
  126         c3      5    bbb     C4    126 0.51680000  12.010000   ; qtot 0.591000
  127         h1      5    bbb     H7    127 -0.05230000   1.008000   ; qtot 0.538700
  128         h1      5    bbb     H8    128 -0.05230000   1.008000   ; qtot 0.486400
  129         c3      5    bbb     C5    129 -0.60390000  12.010000   ; qtot -0.117500
  130         hc      5    bbb     H9    130 0.16730000   1.008000   ; qtot 0.049800
  131         hc      5    bbb    H10    131 0.16730000   1.008000   ; qtot 0.217100
  132         c3      5    bbb     C6    132 -0.60390000  12.010000   ; qtot -0.386800
  133         hc      5    bbb    H11    133 0.16730000   1.008000   ; qtot -0.219500
  134         hc      5    bbb    H12    134 0.16730000   1.008000   ; qtot -0.052200
  135          c      5    bbb     C7    135 0.72110000  12.010000   ; qtot 0.668900
  136          c      5    bbb     C8    136 0.72110000  12.010000   ; qtot 1.390000
  137          o      5    bbb     O1    137 -0.61950000  16.000000   ; qtot 0.770500
  138          o      5    bbb     O2    138 -0.61950000  16.000000   ; qtot 0.151000
  139          n      5    bbb     N4    139 -0.46580000  14.010000   ; qtot -0.314800
  140         hn      5    bbb    H21    140 0.31480000   1.008000   ; qtot -0.000000
; residue    6 bbb rtp bbb q -0.0
  141         c3      6    bbb     C1    141 0.44180000  12.010000   ; qtot 0.441800
  142         h1      6    bbb     H1    142 -0.03530000   1.008000   ; qtot 0.406500
  143         h1      6    bbb     H2    143 -0.03530000   1.008000   ; qtot 0.371200
  144         c3      6    bbb     C2    144 -0.28250000  12.010000   ; qtot 0.088700
  145         h1      6    bbb     H3    145 0.15710000   1.008000   ; qtot 0.245800
  146         h1      6    bbb     H4    146 0.15710000   1.008000   ; qtot 0.402900
  147         n3      6    bbb     N1    147 -0.74090000  14.010000   ; qtot -0.338000
  148         c3      6    bbb     C3    148 0.51680000  12.010000   ; qtot 0.178800
  149         h1      6    bbb     H5    149 -0.05230000   1.008000   ; qtot 0.126500
  150         h1      6    bbb     H6    150 -0.05230000   1.008000   ; qtot 0.074200
  151         c3      6    bbb     C4    151 0.51680000  12.010000   ; qtot 0.591000
  152         h1      6    bbb     H7    152 -0.05230000   1.008000   ; qtot 0.538700
  153         h1      6    bbb     H8    153 -0.05230000   1.008000   ; qtot 0.486400
  154         c3      6    bbb     C5    154 -0.60390000  12.010000   ; qtot -0.117500
  155         hc      6    bbb     H9    155 0.16730000   1.008000   ; qtot 0.049800
  156         hc      6    bbb    H10    156 0.16730000   1.008000   ; qtot 0.217100
  157         c3      6    bbb     C6    157 -0.60390000  12.010000   ; qtot -0.386800
  158         hc      6    bbb    H11    158 0.16730000   1.008000   ; qtot -0.219500
  159         hc      6    bbb    H12    159 0.16730000   1.008000   ; qtot -0.052200
  160          c      6    bbb     C7    160 0.72110000  12.010000   ; qtot 0.668900
  161          c      6    bbb     C8    161 0.72110000  12.010000   ; qtot 1.390000
  162          o      6    bbb     O1    162 -0.61950000  16.000000   ; qtot 0.770500
  163          o      6    bbb     O2    163 -0.61950000  16.000000   ; qtot 0.151000
  164          n      6    bbb     N4    164 -0.46580000  14.010000   ; qtot -0.314800
  165         hn      6    bbb    H21    165 0.31480000   1.008000   ; qtot -0.000000
; residue    7 bbb rtp bbb q -0.0
  166         c3      7    bbb     C1    166 0.44180000  12.010000   ; qtot 0.441800
  167         h1      7    bbb     H1    167 -0.03530000   1.008000   ; qtot 0.406500
  168         h1      7    bbb     H2    168 -0.03530000   1.008000   ; qtot 0.371200
  169         c3      7    bbb     C2    169 -0.28250000  12.010000   ; qtot 0.088700
  170         h1      7    bbb     H3    170 0.15710000   1.008000   ; qtot 0.245800
  171         h1      7    bbb     H4    171 0.15710000   1.008000   ; qtot 0.402900
  172         n3      7    bbb     N1    172 -0.74090000  14.010000   ; qtot -0.338000
  173         c3      7    bbb     C3    173 0.51680000  12.010000   ; qtot 0.178800
  174         h1      7    bbb     H5    174 -0.05230000   1.008000   ; qtot 0.126500
  175         h1      7    bbb     H6    175 -0.05230000   1.008000   ; qtot 0.074200
  176         c3      7    bbb     C4    176 0.51680000  12.010000   ; qtot 0.591000
  177         h1      7    bbb     H7    177 -0.05230000   1.008000   ; qtot 0.538700
  178         h1      7    bbb     H8    178 -0.05230000   1.008000   ; qtot 0.486400
  179         c3      7    bbb     C5    179 -0.60390000  12.010000   ; qtot -0.117500
  180         hc      7    bbb     H9    180 0.16730000   1.008000   ; qtot 0.049800
  181         hc      7    bbb    H10    181 0.16730000   1.008000   ; qtot 0.217100
  182         c3      7    bbb     C6    182 -0.60390000  12.010000   ; qtot -0.386800
  183         hc      7    bbb    H11    183 0.16730000   1.008000   ; qtot -0.219500
  184         hc      7    bbb    H12    184 0.16730000   1.008000   ; qtot -0.052200
  185          c      7    bbb     C7    185 0.72110000  12.010000   ; qtot 0.668900
  186          c      7    bbb     C8    186 0.72110000  12.010000   ; qtot 1.390000
  187          o      7    bbb     O1    187 -0.61950000  16.000000   ; qtot 0.770500
  188          o      7    bbb     O2    188 -0.61950000  16.000000   ; qtot 0.151000
  189          n      7    bbb     N4    189 -0.46580000  14.010000   ; qtot -0.314800
  190         hn      7    bbb    H21    190 0.31480000   1.008000   ; qtot -0.000000
; residue    8 bbb rtp bbb q -0.0
  191         c3      8    bbb     C1    191 0.44180000  12.010000   ; qtot 0.441800
  192         h1      8    bbb     H1    192 -0.03530000   1.008000   ; qtot 0.406500
  193         h1      8    bbb     H2    193 -0.03530000   1.008000   ; qtot 0.371200
  194         c3      8    bbb     C2    194 -0.28250000  12.010000   ; qtot 0.088700
  195         h1      8    bbb     H3    195 0.15710000   1.008000   ; qtot 0.245800
  196         h1      8    bbb     H4    196 0.15710000   1.008000   ; qtot 0.402900
  197         n3      8    bbb     N1    197 -0.74090000  14.010000   ; qtot -0.338000
  198         c3      8    bbb     C3    198 0.51680000  12.010000   ; qtot 0.178800
  199         h1      8    bbb     H5    199 -0.05230000   1.008000   ; qtot 0.126500
  200         h1      8    bbb     H6    200 -0.05230000   1.008000   ; qtot 0.074200
  201         c3      8    bbb     C4    201 0.51680000  12.010000   ; qtot 0.591000
  202         h1      8    bbb     H7    202 -0.05230000   1.008000   ; qtot 0.538700
  203         h1      8    bbb     H8    203 -0.05230000   1.008000   ; qtot 0.486400
  204         c3      8    bbb     C5    204 -0.60390000  12.010000   ; qtot -0.117500
  205         hc      8    bbb     H9    205 0.16730000   1.008000   ; qtot 0.049800
  206         hc      8    bbb    H10    206 0.16730000   1.008000   ; qtot 0.217100
  207         c3      8    bbb     C6    207 -0.60390000  12.010000   ; qtot -0.386800
  208         hc      8    bbb    H11    208 0.16730000   1.008000   ; qtot -0.219500
  209         hc      8    bbb    H12    209 0.16730000   1.008000   ; qtot -0.052200
  210          c      8    bbb     C7    210 0.72110000  12.010000   ; qtot 0.668900
  211          c      8    bbb     C8    211 0.72110000  12.010000   ; qtot 1.390000
  212          o      8    bbb     O1    212 -0.61950000  16.000000   ; qtot 0.770500
  213          o      8    bbb     O2    213 -0.61950000  16.000000   ; qtot 0.151000
  214          n      8    bbb     N4    214 -0.46580000  14.010000   ; qtot -0.314800
  215         hn      8    bbb    H21    215 0.31480000   1.008000   ; qtot -0.000000
; residue    9 bbb rtp bbb q -0.0
  216         c3      9    bbb     C1    216 0.44180000  12.010000   ; qtot 0.441800
  217         h1      9    bbb     H1    217 -0.03530000   1.008000   ; qtot 0.406500
  218         h1      9    bbb     H2    218 -0.03530000   1.008000   ; qtot 0.371200
  219         c3      9    bbb     C2    219 -0.28250000  12.010000   ; qtot 0.088700
  220         h1      9    bbb     H3    220 0.15710000   1.008000   ; qtot 0.245800
  221         h1      9    bbb     H4    221 0.15710000   1.008000   ; qtot 0.402900
  222         n3      9    bbb     N1    222 -0.74090000  14.010000   ; qtot -0.338000
  223         c3      9    bbb     C3    223 0.51680000  12.010000   ; qtot 0.178800
  224         h1      9    bbb     H5    224 -0.05230000   1.008000   ; qtot 0.126500
  225         h1      9    bbb     H6    225 -0.05230000   1.008000   ; qtot 0.074200
  226         c3      9    bbb     C4    226 0.51680000  12.010000   ; qtot 0.591000
  227         h1      9    bbb     H7    227 -0.05230000   1.008000   ; qtot 0.538700
  228         h1      9    bbb     H8    228 -0.05230000   1.008000   ; qtot 0.486400
  229         c3      9    bbb     C5    229 -0.60390000  12.010000   ; qtot -0.117500
  230         hc      9    bbb     H9    230 0.16730000   1.008000   ; qtot 0.049800
  231         hc      9    bbb    H10    231 0.16730000   1.008000   ; qtot 0.217100
  232         c3      9    bbb     C6    232 -0.60390000  12.010000   ; qtot -0.386800
  233         hc      9    bbb    H11    233 0.16730000   1.008000   ; qtot -0.219500
  234         hc      9    bbb    H12    234 0.16730000   1.008000   ; qtot -0.052200
  235          c      9    bbb     C7    235 0.72110000  12.010000   ; qtot 0.668900
  236          c      9    bbb     C8    236 0.72110000  12.010000   ; qtot 1.390000
  237          o      9    bbb     O1    237 -0.61950000  16.000000   ; qtot 0.770500
  238          o      9    bbb     O2    238 -0.61950000  16.000000   ; qtot 0.151000
  239          n      9    bbb     N4    239 -0.46580000  14.010000   ; qtot -0.314800
  240         hn      9    bbb    H21    240 0.31480000   1.008000   ; qtot -0.000000
; residue   10 bbb rtp bbb q -0.0
  241         c3     10    bbb     C1    241 0.44180000  12.010000   ; qtot 0.441800
  242         h1     10    bbb     H1    242 -0.03530000   1.008000   ; qtot 0.406500
  243         h1     10    bbb     H2    243 -0.03530000   1.008000   ; qtot 0.371200
  244         c3     10    bbb     C2    244 -0.28250000  12.010000   ; qtot 0.088700
  245         h1     10    bbb     H3    245 0.15710000   1.008000   ; qtot 0.245800
  246         h1     10    bbb     H4    246 0.15710000   1.008000   ; qtot 0.402900
  247         n3     10    bbb     N1    247 -0.74090000  14.010000   ; qtot -0.338000
  248         c3     10    bbb     C3    248 0.51680000  12.010000   ; qtot 0.178800
  249         h1     10    bbb     H5    249 -0.05230000   1.008000   ; qtot 0.126500
  250         h1     10    bbb     H6    250 -0.05230000   1.008000   ; qtot 0.074200
  251         c3     10    bbb     C4    251 0.51680000  12.010000   ; qtot 0.591000
  252         h1     10    bbb     H7    252 -0.05230000   1.008000   ; qtot 0.538700
  253         h1     10    bbb     H8    253 -0.05230000   1.008000   ; qtot 0.486400
  254         c3     10    bbb     C5    254 -0.60390000  12.010000   ; qtot -0.117500
  255         hc     10    bbb     H9    255 0.16730000   1.008000   ; qtot 0.049800
  256         hc     10    bbb    H10    256 0.16730000   1.008000   ; qtot 0.217100
  257         c3     10    bbb     C6    257 -0.60390000  12.010000   ; qtot -0.386800
  258         hc     10    bbb    H11    258 0.16730000   1.008000   ; qtot -0.219500
  259         hc     10    bbb    H12    259 0.16730000   1.008000   ; qtot -0.052200
  260          c     10    bbb     C7    260 0.72110000  12.010000   ; qtot 0.668900
  261          c     10    bbb     C8    261 0.72110000  12.010000   ; qtot 1.390000
  262          o     10    bbb     O1    262 -0.61950000  16.000000   ; qtot 0.770500
  263          o     10    bbb     O2    263 -0.61950000  16.000000   ; qtot 0.151000
  264          n     10    bbb     N4    264 -0.46580000  14.010000   ; qtot -0.314800
  265         hn     10    bbb    H21    265 0.31480000   1.008000   ; qtot -0.000000
; residue   11 bbb rtp bbb q -0.0
  266         c3     11    bbb     C1    266 0.44180000  12.010000   ; qtot 0.441800
  267         h1     11    bbb     H1    267 -0.03530000   1.008000   ; qtot 0.406500
  268         h1     11    bbb     H2    268 -0.03530000   1.008000   ; qtot 0.371200
  269         c3     11    bbb     C2    269 -0.28250000  12.010000   ; qtot 0.088700
  270         h1     11    bbb     H3    270 0.15710000   1.008000   ; qtot 0.245800
  271         h1     11    bbb     H4    271 0.15710000   1.008000   ; qtot 0.402900
  272         n3     11    bbb     N1    272 -0.74090000  14.010000   ; qtot -0.338000
  273         c3     11    bbb     C3    273 0.51680000  12.010000   ; qtot 0.178800
  274         h1     11    bbb     H5    274 -0.05230000   1.008000   ; qtot 0.126500
  275         h1     11    bbb     H6    275 -0.05230000   1.008000   ; qtot 0.074200
  276         c3     11    bbb     C4    276 0.51680000  12.010000   ; qtot 0.591000
  277         h1     11    bbb     H7    277 -0.05230000   1.008000   ; qtot 0.538700
  278         h1     11    bbb     H8    278 -0.05230000   1.008000   ; qtot 0.486400
  279         c3     11    bbb     C5    279 -0.60390000  12.010000   ; qtot -0.117500
  280         hc     11    bbb     H9    280 0.16730000   1.008000   ; qtot 0.049800
  281         hc     11    bbb    H10    281 0.16730000   1.008000   ; qtot 0.217100
  282         c3     11    bbb     C6    282 -0.60390000  12.010000   ; qtot -0.386800
  283         hc     11    bbb    H11    283 0.16730000   1.008000   ; qtot -0.219500
  284         hc     11    bbb    H12    284 0.16730000   1.008000   ; qtot -0.052200
  285          c     11    bbb     C7    285 0.72110000  12.010000   ; qtot 0.668900
  286          c     11    bbb     C8    286 0.72110000  12.010000   ; qtot 1.390000
  287          o     11    bbb     O1    287 -0.61950000  16.000000   ; qtot 0.770500
  288          o     11    bbb     O2    288 -0.61950000  16.000000   ; qtot 0.151000
  289          n     11    bbb     N4    289 -0.46580000  14.010000   ; qtot -0.314800
  290         hn     11    bbb    H21    290 0.31480000   1.008000   ; qtot -0.000000
; residue   12 bbb rtp bbb q -0.0
  291         c3     12    bbb     C1    291 0.44180000  12.010000   ; qtot 0.441800
  292         h1     12    bbb     H1    292 -0.03530000   1.008000   ; qtot 0.406500
  293         h1     12    bbb     H2    293 -0.03530000   1.008000   ; qtot 0.371200
  294         c3     12    bbb     C2    294 -0.28250000  12.010000   ; qtot 0.088700
  295         h1     12    bbb     H3    295 0.15710000   1.008000   ; qtot 0.245800
  296         h1     12    bbb     H4    296 0.15710000   1.008000   ; qtot 0.402900
  297         n3     12    bbb     N1    297 -0.74090000  14.010000   ; qtot -0.338000
  298         c3     12    bbb     C3    298 0.51680000  12.010000   ; qtot 0.178800
  299         h1     12    bbb     H5    299 -0.05230000   1.008000   ; qtot 0.126500
  300         h1     12    bbb     H6    300 -0.05230000   1.008000   ; qtot 0.074200
  301         c3     12    bbb     C4    301 0.51680000  12.010000   ; qtot 0.591000
  302         h1     12    bbb     H7    302 -0.05230000   1.008000   ; qtot 0.538700
  303         h1     12    bbb     H8    303 -0.05230000   1.008000   ; qtot 0.486400
  304         c3     12    bbb     C5    304 -0.60390000  12.010000   ; qtot -0.117500
  305         hc     12    bbb     H9    305 0.16730000   1.008000   ; qtot 0.049800
  306         hc     12    bbb    H10    306 0.16730000   1.008000   ; qtot 0.217100
  307         c3     12    bbb     C6    307 -0.60390000  12.010000   ; qtot -0.386800
  308         hc     12    bbb    H11    308 0.16730000   1.008000   ; qtot -0.219500
  309         hc     12    bbb    H12    309 0.16730000   1.008000   ; qtot -0.052200
  310          c     12    bbb     C7    310 0.72110000  12.010000   ; qtot 0.668900
  311          c     12    bbb     C8    311 0.72110000  12.010000   ; qtot 1.390000
  312          o     12    bbb     O1    312 -0.61950000  16.000000   ; qtot 0.770500
  313          o     12    bbb     O2    313 -0.61950000  16.000000   ; qtot 0.151000
  314          n     12    bbb     N4    314 -0.46580000  14.010000   ; qtot -0.314800
  315         hn     12    bbb    H21    315 0.31480000   1.008000   ; qtot -0.000000
; residue   13 bbb rtp bbb q -0.0
  316         c3     13    bbb     C1    316 0.44180000  12.010000   ; qtot 0.441800
  317         h1     13    bbb     H1    317 -0.03530000   1.008000   ; qtot 0.406500
  318         h1     13    bbb     H2    318 -0.03530000   1.008000   ; qtot 0.371200
  319         c3     13    bbb     C2    319 -0.28250000  12.010000   ; qtot 0.088700
  320         h1     13    bbb     H3    320 0.15710000   1.008000   ; qtot 0.245800
  321         h1     13    bbb     H4    321 0.15710000   1.008000   ; qtot 0.402900
  322         n3     13    bbb     N1    322 -0.74090000  14.010000   ; qtot -0.338000
  323         c3     13    bbb     C3    323 0.51680000  12.010000   ; qtot 0.178800
  324         h1     13    bbb     H5    324 -0.05230000   1.008000   ; qtot 0.126500
  325         h1     13    bbb     H6    325 -0.05230000   1.008000   ; qtot 0.074200
  326         c3     13    bbb     C4    326 0.51680000  12.010000   ; qtot 0.591000
  327         h1     13    bbb     H7    327 -0.05230000   1.008000   ; qtot 0.538700
  328         h1     13    bbb     H8    328 -0.05230000   1.008000   ; qtot 0.486400
  329         c3     13    bbb     C5    329 -0.60390000  12.010000   ; qtot -0.117500
  330         hc     13    bbb     H9    330 0.16730000   1.008000   ; qtot 0.049800
  331         hc     13    bbb    H10    331 0.16730000   1.008000   ; qtot 0.217100
  332         c3     13    bbb     C6    332 -0.60390000  12.010000   ; qtot -0.386800
  333         hc     13    bbb    H11    333 0.16730000   1.008000   ; qtot -0.219500
  334         hc     13    bbb    H12    334 0.16730000   1.008000   ; qtot -0.052200
  335          c     13    bbb     C7    335 0.72110000  12.010000   ; qtot 0.668900
  336          c     13    bbb     C8    336 0.72110000  12.010000   ; qtot 1.390000
  337          o     13    bbb     O1    337 -0.61950000  16.000000   ; qtot 0.770500
  338          o     13    bbb     O2    338 -0.61950000  16.000000   ; qtot 0.151000
  339          n     13    bbb     N4    339 -0.46580000  14.010000   ; qtot -0.314800
  340         hn     13    bbb    H21    340 0.31480000   1.008000   ; qtot -0.000000
; residue   14 bbb rtp bbb q -0.0
  341         c3     14    bbb     C1    341 0.44180000  12.010000   ; qtot 0.441800
  342         h1     14    bbb     H1    342 -0.03530000   1.008000   ; qtot 0.406500
  343         h1     14    bbb     H2    343 -0.03530000   1.008000   ; qtot 0.371200
  344         c3     14    bbb     C2    344 -0.28250000  12.010000   ; qtot 0.088700
  345         h1     14    bbb     H3    345 0.15710000   1.008000   ; qtot 0.245800
  346         h1     14    bbb     H4    346 0.15710000   1.008000   ; qtot 0.402900
  347         n3     14    bbb     N1    347 -0.74090000  14.010000   ; qtot -0.338000
  348         c3     14    bbb     C3    348 0.51680000  12.010000   ; qtot 0.178800
  349         h1     14    bbb     H5    349 -0.05230000   1.008000   ; qtot 0.126500
  350         h1     14    bbb     H6    350 -0.05230000   1.008000   ; qtot 0.074200
  351         c3     14    bbb     C4    351 0.51680000  12.010000   ; qtot 0.591000
  352         h1     14    bbb     H7    352 -0.05230000   1.008000   ; qtot 0.538700
  353         h1     14    bbb     H8    353 -0.05230000   1.008000   ; qtot 0.486400
  354         c3     14    bbb     C5    354 -0.60390000  12.010000   ; qtot -0.117500
  355         hc     14    bbb     H9    355 0.16730000   1.008000   ; qtot 0.049800
  356         hc     14    bbb    H10    356 0.16730000   1.008000   ; qtot 0.217100
  357         c3     14    bbb     C6    357 -0.60390000  12.010000   ; qtot -0.386800
  358         hc     14    bbb    H11    358 0.16730000   1.008000   ; qtot -0.219500
  359         hc     14    bbb    H12    359 0.16730000   1.008000   ; qtot -0.052200
  360          c     14    bbb     C7    360 0.72110000  12.010000   ; qtot 0.668900
  361          c     14    bbb     C8    361 0.72110000  12.010000   ; qtot 1.390000
  362          o     14    bbb     O1    362 -0.61950000  16.000000   ; qtot 0.770500
  363          o     14    bbb     O2    363 -0.61950000  16.000000   ; qtot 0.151000
  364          n     14    bbb     N4    364 -0.46580000  14.010000   ; qtot -0.314800
  365         hn     14    bbb    H21    365 0.31480000   1.008000   ; qtot -0.000000
; residue   15 bbb rtp bbb q -0.0
  366         c3     15    bbb     C1    366 0.44180000  12.010000   ; qtot 0.441800
  367         h1     15    bbb     H1    367 -0.03530000   1.008000   ; qtot 0.406500
  368         h1     15    bbb     H2    368 -0.03530000   1.008000   ; qtot 0.371200
  369         c3     15    bbb     C2    369 -0.28250000  12.010000   ; qtot 0.088700
  370         h1     15    bbb     H3    370 0.15710000   1.008000   ; qtot 0.245800
  371         h1     15    bbb     H4    371 0.15710000   1.008000   ; qtot 0.402900
  372         n3     15    bbb     N1    372 -0.74090000  14.010000   ; qtot -0.338000
  373         c3     15    bbb     C3    373 0.51680000  12.010000   ; qtot 0.178800
  374         h1     15    bbb     H5    374 -0.05230000   1.008000   ; qtot 0.126500
  375         h1     15    bbb     H6    375 -0.05230000   1.008000   ; qtot 0.074200
  376         c3     15    bbb     C4    376 0.51680000  12.010000   ; qtot 0.591000
  377         h1     15    bbb     H7    377 -0.05230000   1.008000   ; qtot 0.538700
  378         h1     15    bbb     H8    378 -0.05230000   1.008000   ; qtot 0.486400
  379         c3     15    bbb     C5    379 -0.60390000  12.010000   ; qtot -0.117500
  380         hc     15    bbb     H9    380 0.16730000   1.008000   ; qtot 0.049800
  381         hc     15    bbb    H10    381 0.16730000   1.008000   ; qtot 0.217100
  382         c3     15    bbb     C6    382 -0.60390000  12.010000   ; qtot -0.386800
  383         hc     15    bbb    H11    383 0.16730000   1.008000   ; qtot -0.219500
  384         hc     15    bbb    H12    384 0.16730000   1.008000   ; qtot -0.052200
  385          c     15    bbb     C7    385 0.72110000  12.010000   ; qtot 0.668900
  386          c     15    bbb     C8    386 0.72110000  12.010000   ; qtot 1.390000
  387          o     15    bbb     O1    387 -0.61950000  16.000000   ; qtot 0.770500
  388          o     15    bbb     O2    388 -0.61950000  16.000000   ; qtot 0.151000
  389          n     15    bbb     N4    389 -0.46580000  14.010000   ; qtot -0.314800
  390         hn     15    bbb    H21    390 0.31480000   1.008000   ; qtot -0.000000
; residue   16 bbb rtp bbb q -0.0
  391         c3     16    bbb     C1    391 0.44180000  12.010000   ; qtot 0.441800
  392         h1     16    bbb     H1    392 -0.03530000   1.008000   ; qtot 0.406500
  393         h1     16    bbb     H2    393 -0.03530000   1.008000   ; qtot 0.371200
  394         c3     16    bbb     C2    394 -0.28250000  12.010000   ; qtot 0.088700
  395         h1     16    bbb     H3    395 0.15710000   1.008000   ; qtot 0.245800
  396         h1     16    bbb     H4    396 0.15710000   1.008000   ; qtot 0.402900
  397         n3     16    bbb     N1    397 -0.74090000  14.010000   ; qtot -0.338000
  398         c3     16    bbb     C3    398 0.51680000  12.010000   ; qtot 0.178800
  399         h1     16    bbb     H5    399 -0.05230000   1.008000   ; qtot 0.126500
  400         h1     16    bbb     H6    400 -0.05230000   1.008000   ; qtot 0.074200
  401         c3     16    bbb     C4    401 0.51680000  12.010000   ; qtot 0.591000
  402         h1     16    bbb     H7    402 -0.05230000   1.008000   ; qtot 0.538700
  403         h1     16    bbb     H8    403 -0.05230000   1.008000   ; qtot 0.486400
  404         c3     16    bbb     C5    404 -0.60390000  12.010000   ; qtot -0.117500
  405         hc     16    bbb     H9    405 0.16730000   1.008000   ; qtot 0.049800
  406         hc     16    bbb    H10    406 0.16730000   1.008000   ; qtot 0.217100
  407         c3     16    bbb     C6    407 -0.60390000  12.010000   ; qtot -0.386800
  408         hc     16    bbb    H11    408 0.16730000   1.008000   ; qtot -0.219500
  409         hc     16    bbb    H12    409 0.16730000   1.008000   ; qtot -0.052200
  410          c     16    bbb     C7    410 0.72110000  12.010000   ; qtot 0.668900
  411          c     16    bbb     C8    411 0.72110000  12.010000   ; qtot 1.390000
  412          o     16    bbb     O1    412 -0.61950000  16.000000   ; qtot 0.770500
  413          o     16    bbb     O2    413 -0.61950000  16.000000   ; qtot 0.151000
  414          n     16    bbb     N4    414 -0.46580000  14.010000   ; qtot -0.314800
  415         hn     16    bbb    H21    415 0.31480000   1.008000   ; qtot -0.000000
; residue   17 bbb rtp bbb q -0.0
  416         c3     17    bbb     C1    416 0.44180000  12.010000   ; qtot 0.441800
  417         h1     17    bbb     H1    417 -0.03530000   1.008000   ; qtot 0.406500
  418         h1     17    bbb     H2    418 -0.03530000   1.008000   ; qtot 0.371200
  419         c3     17    bbb     C2    419 -0.28250000  12.010000   ; qtot 0.088700
  420         h1     17    bbb     H3    420 0.15710000   1.008000   ; qtot 0.245800
  421         h1     17    bbb     H4    421 0.15710000   1.008000   ; qtot 0.402900
  422         n3     17    bbb     N1    422 -0.74090000  14.010000   ; qtot -0.338000
  423         c3     17    bbb     C3    423 0.51680000  12.010000   ; qtot 0.178800
  424         h1     17    bbb     H5    424 -0.05230000   1.008000   ; qtot 0.126500
  425         h1     17    bbb     H6    425 -0.05230000   1.008000   ; qtot 0.074200
  426         c3     17    bbb     C4    426 0.51680000  12.010000   ; qtot 0.591000
  427         h1     17    bbb     H7    427 -0.05230000   1.008000   ; qtot 0.538700
  428         h1     17    bbb     H8    428 -0.05230000   1.008000   ; qtot 0.486400
  429         c3     17    bbb     C5    429 -0.60390000  12.010000   ; qtot -0.117500
  430         hc     17    bbb     H9    430 0.16730000   1.008000   ; qtot 0.049800
  431         hc     17    bbb    H10    431 0.16730000   1.008000   ; qtot 0.217100
  432         c3     17    bbb     C6    432 -0.60390000  12.010000   ; qtot -0.386800
  433         hc     17    bbb    H11    433 0.16730000   1.008000   ; qtot -0.219500
  434         hc     17    bbb    H12    434 0.16730000   1.008000   ; qtot -0.052200
  435          c     17    bbb     C7    435 0.72110000  12.010000   ; qtot 0.668900
  436          c     17    bbb     C8    436 0.72110000  12.010000   ; qtot 1.390000
  437          o     17    bbb     O1    437 -0.61950000  16.000000   ; qtot 0.770500
  438          o     17    bbb     O2    438 -0.61950000  16.000000   ; qtot 0.151000
  439          n     17    bbb     N4    439 -0.46580000  14.010000   ; qtot -0.314800
  440         hn     17    bbb    H21    440 0.31480000   1.008000   ; qtot -0.000000
; residue   18 bbb rtp bbb q -0.0
  441         c3     18    bbb     C1    441 0.44180000  12.010000   ; qtot 0.441800
  442         h1     18    bbb     H1    442 -0.03530000   1.008000   ; qtot 0.406500
  443         h1     18    bbb     H2    443 -0.03530000   1.008000   ; qtot 0.371200
  444         c3     18    bbb     C2    444 -0.28250000  12.010000   ; qtot 0.088700
  445         h1     18    bbb     H3    445 0.15710000   1.008000   ; qtot 0.245800
  446         h1     18    bbb     H4    446 0.15710000   1.008000   ; qtot 0.402900
  447         n3     18    bbb     N1    447 -0.74090000  14.010000   ; qtot -0.338000
  448         c3     18    bbb     C3    448 0.51680000  12.010000   ; qtot 0.178800
  449         h1     18    bbb     H5    449 -0.05230000   1.008000   ; qtot 0.126500
  450         h1     18    bbb     H6    450 -0.05230000   1.008000   ; qtot 0.074200
  451         c3     18    bbb     C4    451 0.51680000  12.010000   ; qtot 0.591000
  452         h1     18    bbb     H7    452 -0.05230000   1.008000   ; qtot 0.538700
  453         h1     18    bbb     H8    453 -0.05230000   1.008000   ; qtot 0.486400
  454         c3     18    bbb     C5    454 -0.60390000  12.010000   ; qtot -0.117500
  455         hc     18    bbb     H9    455 0.16730000   1.008000   ; qtot 0.049800
  456         hc     18    bbb    H10    456 0.16730000   1.008000   ; qtot 0.217100
  457         c3     18    bbb     C6    457 -0.60390000  12.010000   ; qtot -0.386800
  458         hc     18    bbb    H11    458 0.16730000   1.008000   ; qtot -0.219500
  459         hc     18    bbb    H12    459 0.16730000   1.008000   ; qtot -0.052200
  460          c     18    bbb     C7    460 0.72110000  12.010000   ; qtot 0.668900
  461          c     18    bbb     C8    461 0.72110000  12.010000   ; qtot 1.390000
  462          o     18    bbb     O1    462 -0.61950000  16.000000   ; qtot 0.770500
  463          o     18    bbb     O2    463 -0.61950000  16.000000   ; qtot 0.151000
  464          n     18    bbb     N4    464 -0.46580000  14.010000   ; qtot -0.314800
  465         hn     18    bbb    H21    465 0.31480000   1.008000   ; qtot -0.000000
; residue   19 bbb rtp bbb q -0.0
  466         c3     19    bbb     C1    466 0.44180000  12.010000   ; qtot 0.441800
  467         h1     19    bbb     H1    467 -0.03530000   1.008000   ; qtot 0.406500
  468         h1     19    bbb     H2    468 -0.03530000   1.008000   ; qtot 0.371200
  469         c3     19    bbb     C2    469 -0.28250000  12.010000   ; qtot 0.088700
  470         h1     19    bbb     H3    470 0.15710000   1.008000   ; qtot 0.245800
  471         h1     19    bbb     H4    471 0.15710000   1.008000   ; qtot 0.402900
  472         n3     19    bbb     N1    472 -0.74090000  14.010000   ; qtot -0.338000
  473         c3     19    bbb     C3    473 0.51680000  12.010000   ; qtot 0.178800
  474         h1     19    bbb     H5    474 -0.05230000   1.008000   ; qtot 0.126500
  475         h1     19    bbb     H6    475 -0.05230000   1.008000   ; qtot 0.074200
  476         c3     19    bbb     C4    476 0.51680000  12.010000   ; qtot 0.591000
  477         h1     19    bbb     H7    477 -0.05230000   1.008000   ; qtot 0.538700
  478         h1     19    bbb     H8    478 -0.05230000   1.008000   ; qtot 0.486400
  479         c3     19    bbb     C5    479 -0.60390000  12.010000   ; qtot -0.117500
  480         hc     19    bbb     H9    480 0.16730000   1.008000   ; qtot 0.049800
  481         hc     19    bbb    H10    481 0.16730000   1.008000   ; qtot 0.217100
  482         c3     19    bbb     C6    482 -0.60390000  12.010000   ; qtot -0.386800
  483         hc     19    bbb    H11    483 0.16730000   1.008000   ; qtot -0.219500
  484         hc     19    bbb    H12    484 0.16730000   1.008000   ; qtot -0.052200
  485          c     19    bbb     C7    485 0.72110000  12.010000   ; qtot 0.668900
  486          c     19    bbb     C8    486 0.72110000  12.010000   ; qtot 1.390000
  487          o     19    bbb     O1    487 -0.61950000  16.000000   ; qtot 0.770500
  488          o     19    bbb     O2    488 -0.61950000  16.000000   ; qtot 0.151000
  489          n     19    bbb     N4    489 -0.46580000  14.010000   ; qtot -0.314800
  490         hn     19    bbb    H21    490 0.31480000   1.008000   ; qtot -0.000000
; residue   20 bbb rtp bbb q -0.0
  491         c3     20    bbb     C1    491 0.44180000  12.010000   ; qtot 0.441800
  492         h1     20    bbb     H1    492 -0.03530000   1.008000   ; qtot 0.406500
  493         h1     20    bbb     H2    493 -0.03530000   1.008000   ; qtot 0.371200
  494         c3     20    bbb     C2    494 -0.28250000  12.010000   ; qtot 0.088700
  495         h1     20    bbb     H3    495 0.15710000   1.008000   ; qtot 0.245800
  496         h1     20    bbb     H4    496 0.15710000   1.008000   ; qtot 0.402900
  497         n3     20    bbb     N1    497 -0.74090000  14.010000   ; qtot -0.338000
  498         c3     20    bbb     C3    498 0.51680000  12.010000   ; qtot 0.178800
  499         h1     20    bbb     H5    499 -0.05230000   1.008000   ; qtot 0.126500
  500         h1     20    bbb     H6    500 -0.05230000   1.008000   ; qtot 0.074200
  501         c3     20    bbb     C4    501 0.51680000  12.010000   ; qtot 0.591000
  502         h1     20    bbb     H7    502 -0.05230000   1.008000   ; qtot 0.538700
  503         h1     20    bbb     H8    503 -0.05230000   1.008000   ; qtot 0.486400
  504         c3     20    bbb     C5    504 -0.60390000  12.010000   ; qtot -0.117500
  505         hc     20    bbb     H9    505 0.16730000   1.008000   ; qtot 0.049800
  506         hc     20    bbb    H10    506 0.16730000   1.008000   ; qtot 0.217100
  507         c3     20    bbb     C6    507 -0.60390000  12.010000   ; qtot -0.386800
  508         hc     20    bbb    H11    508 0.16730000   1.008000   ; qtot -0.219500
  509         hc     20    bbb    H12    509 0.16730000   1.008000   ; qtot -0.052200
  510          c     20    bbb     C7    510 0.72110000  12.010000   ; qtot 0.668900
  511          c     20    bbb     C8    511 0.72110000  12.010000   ; qtot 1.390000
  512          o     20    bbb     O1    512 -0.61950000  16.000000   ; qtot 0.770500
  513          o     20    bbb     O2    513 -0.61950000  16.000000   ; qtot 0.151000
  514          n     20    bbb     N4    514 -0.46580000  14.010000   ; qtot -0.314800
  515         hn     20    bbb    H21    515 0.31480000   1.008000   ; qtot -0.000000
; residue   21 bbb rtp bbb q -0.0
  516         c3     21    bbb     C1    516 0.44180000  12.010000   ; qtot 0.441800
  517         h1     21    bbb     H1    517 -0.03530000   1.008000   ; qtot 0.406500
  518         h1     21    bbb     H2    518 -0.03530000   1.008000   ; qtot 0.371200
  519         c3     21    bbb     C2    519 -0.28250000  12.010000   ; qtot 0.088700
  520         h1     21    bbb     H3    520 0.15710000   1.008000   ; qtot 0.245800
  521         h1     21    bbb     H4    521 0.15710000   1.008000   ; qtot 0.402900
  522         n3     21    bbb     N1    522 -0.74090000  14.010000   ; qtot -0.338000
  523         c3     21    bbb     C3    523 0.51680000  12.010000   ; qtot 0.178800
  524         h1     21    bbb     H5    524 -0.05230000   1.008000   ; qtot 0.126500
  525         h1     21    bbb     H6    525 -0.05230000   1.008000   ; qtot 0.074200
  526         c3     21    bbb     C4    526 0.51680000  12.010000   ; qtot 0.591000
  527         h1     21    bbb     H7    527 -0.05230000   1.008000   ; qtot 0.538700
  528         h1     21    bbb     H8    528 -0.05230000   1.008000   ; qtot 0.486400
  529         c3     21    bbb     C5    529 -0.60390000  12.010000   ; qtot -0.117500
  530         hc     21    bbb     H9    530 0.16730000   1.008000   ; qtot 0.049800
  531         hc     21    bbb    H10    531 0.16730000   1.008000   ; qtot 0.217100
  532         c3     21    bbb     C6    532 -0.60390000  12.010000   ; qtot -0.386800
  533         hc     21    bbb    H11    533 0.16730000   1.008000   ; qtot -0.219500
  534         hc     21    bbb    H12    534 0.16730000   1.008000   ; qtot -0.052200
  535          c     21    bbb     C7    535 0.72110000  12.010000   ; qtot 0.668900
  536          c     21    bbb     C8    536 0.72110000  12.010000   ; qtot 1.390000
  537          o     21    bbb     O1    537 -0.61950000  16.000000   ; qtot 0.770500
  538          o     21    bbb     O2    538 -0.61950000  16.000000   ; qtot 0.151000
  539          n     21    bbb     N4    539 -0.46580000  14.010000   ; qtot -0.314800
  540         hn     21    bbb    H21    540 0.31480000   1.008000   ; qtot -0.000000
; residue   22 bbb rtp bbb q -0.0
  541         c3     22    bbb     C1    541 0.44180000  12.010000   ; qtot 0.441800
  542         h1     22    bbb     H1    542 -0.03530000   1.008000   ; qtot 0.406500
  543         h1     22    bbb     H2    543 -0.03530000   1.008000   ; qtot 0.371200
  544         c3     22    bbb     C2    544 -0.28250000  12.010000   ; qtot 0.088700
  545         h1     22    bbb     H3    545 0.15710000   1.008000   ; qtot 0.245800
  546         h1     22    bbb     H4    546 0.15710000   1.008000   ; qtot 0.402900
  547         n3     22    bbb     N1    547 -0.74090000  14.010000   ; qtot -0.338000
  548         c3     22    bbb     C3    548 0.51680000  12.010000   ; qtot 0.178800
  549         h1     22    bbb     H5    549 -0.05230000   1.008000   ; qtot 0.126500
  550         h1     22    bbb     H6    550 -0.05230000   1.008000   ; qtot 0.074200
  551         c3     22    bbb     C4    551 0.51680000  12.010000   ; qtot 0.591000
  552         h1     22    bbb     H7    552 -0.05230000   1.008000   ; qtot 0.538700
  553         h1     22    bbb     H8    553 -0.05230000   1.008000   ; qtot 0.486400
  554         c3     22    bbb     C5    554 -0.60390000  12.010000   ; qtot -0.117500
  555         hc     22    bbb     H9    555 0.16730000   1.008000   ; qtot 0.049800
  556         hc     22    bbb    H10    556 0.16730000   1.008000   ; qtot 0.217100
  557         c3     22    bbb     C6    557 -0.60390000  12.010000   ; qtot -0.386800
  558         hc     22    bbb    H11    558 0.16730000   1.008000   ; qtot -0.219500
  559         hc     22    bbb    H12    559 0.16730000   1.008000   ; qtot -0.052200
  560          c     22    bbb     C7    560 0.72110000  12.010000   ; qtot 0.668900
  561          c     22    bbb     C8    561 0.72110000  12.010000   ; qtot 1.390000
  562          o     22    bbb     O1    562 -0.61950000  16.000000   ; qtot 0.770500
  563          o     22    bbb     O2    563 -0.61950000  16.000000   ; qtot 0.151000
  564          n     22    bbb     N4    564 -0.46580000  14.010000   ; qtot -0.314800
  565         hn     22    bbb    H21    565 0.31480000   1.008000   ; qtot -0.000000
; residue   23 bbb rtp bbb q -0.0
  566         c3     23    bbb     C1    566 0.44180000  12.010000   ; qtot 0.441800
  567         h1     23    bbb     H1    567 -0.03530000   1.008000   ; qtot 0.406500
  568         h1     23    bbb     H2    568 -0.03530000   1.008000   ; qtot 0.371200
  569         c3     23    bbb     C2    569 -0.28250000  12.010000   ; qtot 0.088700
  570         h1     23    bbb     H3    570 0.15710000   1.008000   ; qtot 0.245800
  571         h1     23    bbb     H4    571 0.15710000   1.008000   ; qtot 0.402900
  572         n3     23    bbb     N1    572 -0.74090000  14.010000   ; qtot -0.338000
  573         c3     23    bbb     C3    573 0.51680000  12.010000   ; qtot 0.178800
  574         h1     23    bbb     H5    574 -0.05230000   1.008000   ; qtot 0.126500
  575         h1     23    bbb     H6    575 -0.05230000   1.008000   ; qtot 0.074200
  576         c3     23    bbb     C4    576 0.51680000  12.010000   ; qtot 0.591000
  577         h1     23    bbb     H7    577 -0.05230000   1.008000   ; qtot 0.538700
  578         h1     23    bbb     H8    578 -0.05230000   1.008000   ; qtot 0.486400
  579         c3     23    bbb     C5    579 -0.60390000  12.010000   ; qtot -0.117500
  580         hc     23    bbb     H9    580 0.16730000   1.008000   ; qtot 0.049800
  581         hc     23    bbb    H10    581 0.16730000   1.008000   ; qtot 0.217100
  582         c3     23    bbb     C6    582 -0.60390000  12.010000   ; qtot -0.386800
  583         hc     23    bbb    H11    583 0.16730000   1.008000   ; qtot -0.219500
  584         hc     23    bbb    H12    584 0.16730000   1.008000   ; qtot -0.052200
  585          c     23    bbb     C7    585 0.72110000  12.010000   ; qtot 0.668900
  586          c     23    bbb     C8    586 0.72110000  12.010000   ; qtot 1.390000
  587          o     23    bbb     O1    587 -0.61950000  16.000000   ; qtot 0.770500
  588          o     23    bbb     O2    588 -0.61950000  16.000000   ; qtot 0.151000
  589          n     23    bbb     N4    589 -0.46580000  14.010000   ; qtot -0.314800
  590         hn     23    bbb    H21    590 0.31480000   1.008000   ; qtot -0.000000
; residue   24 bbb rtp bbb q -0.0
  591         c3     24    bbb     C1    591 0.44180000  12.010000   ; qtot 0.441800
  592         h1     24    bbb     H1    592 -0.03530000   1.008000   ; qtot 0.406500
  593         h1     24    bbb     H2    593 -0.03530000   1.008000   ; qtot 0.371200
  594         c3     24    bbb     C2    594 -0.28250000  12.010000   ; qtot 0.088700
  595         h1     24    bbb     H3    595 0.15710000   1.008000   ; qtot 0.245800
  596         h1     24    bbb     H4    596 0.15710000   1.008000   ; qtot 0.402900
  597         n3     24    bbb     N1    597 -0.74090000  14.010000   ; qtot -0.338000
  598         c3     24    bbb     C3    598 0.51680000  12.010000   ; qtot 0.178800
  599         h1     24    bbb     H5    599 -0.05230000   1.008000   ; qtot 0.126500
  600         h1     24    bbb     H6    600 -0.05230000   1.008000   ; qtot 0.074200
  601         c3     24    bbb     C4    601 0.51680000  12.010000   ; qtot 0.591000
  602         h1     24    bbb     H7    602 -0.05230000   1.008000   ; qtot 0.538700
  603         h1     24    bbb     H8    603 -0.05230000   1.008000   ; qtot 0.486400
  604         c3     24    bbb     C5    604 -0.60390000  12.010000   ; qtot -0.117500
  605         hc     24    bbb     H9    605 0.16730000   1.008000   ; qtot 0.049800
  606         hc     24    bbb    H10    606 0.16730000   1.008000   ; qtot 0.217100
  607         c3     24    bbb     C6    607 -0.60390000  12.010000   ; qtot -0.386800
  608         hc     24    bbb    H11    608 0.16730000   1.008000   ; qtot -0.219500
  609         hc     24    bbb    H12    609 0.16730000   1.008000   ; qtot -0.052200
  610          c     24    bbb     C7    610 0.72110000  12.010000   ; qtot 0.668900
  611          c     24    bbb     C8    611 0.72110000  12.010000   ; qtot 1.390000
  612          o     24    bbb     O1    612 -0.61950000  16.000000   ; qtot 0.770500
  613          o     24    bbb     O2    613 -0.61950000  16.000000   ; qtot 0.151000
  614          n     24    bbb     N4    614 -0.46580000  14.010000   ; qtot -0.314800
  615         hn     24    bbb    H21    615 0.31480000   1.008000   ; qtot -0.000000
; residue   25 bbb rtp bbb q -0.0
  616         c3     25    bbb     C1    616 0.44180000  12.010000   ; qtot 0.441800
  617         h1     25    bbb     H1    617 -0.03530000   1.008000   ; qtot 0.406500
  618         h1     25    bbb     H2    618 -0.03530000   1.008000   ; qtot 0.371200
  619         c3     25    bbb     C2    619 -0.28250000  12.010000   ; qtot 0.088700
  620         h1     25    bbb     H3    620 0.15710000   1.008000   ; qtot 0.245800
  621         h1     25    bbb     H4    621 0.15710000   1.008000   ; qtot 0.402900
  622         n3     25    bbb     N1    622 -0.74090000  14.010000   ; qtot -0.338000
  623         c3     25    bbb     C3    623 0.51680000  12.010000   ; qtot 0.178800
  624         h1     25    bbb     H5    624 -0.05230000   1.008000   ; qtot 0.126500
  625         h1     25    bbb     H6    625 -0.05230000   1.008000   ; qtot 0.074200
  626         c3     25    bbb     C4    626 0.51680000  12.010000   ; qtot 0.591000
  627         h1     25    bbb     H7    627 -0.05230000   1.008000   ; qtot 0.538700
  628         h1     25    bbb     H8    628 -0.05230000   1.008000   ; qtot 0.486400
  629         c3     25    bbb     C5    629 -0.60390000  12.010000   ; qtot -0.117500
  630         hc     25    bbb     H9    630 0.16730000   1.008000   ; qtot 0.049800
  631         hc     25    bbb    H10    631 0.16730000   1.008000   ; qtot 0.217100
  632         c3     25    bbb     C6    632 -0.60390000  12.010000   ; qtot -0.386800
  633         hc     25    bbb    H11    633 0.16730000   1.008000   ; qtot -0.219500
  634         hc     25    bbb    H12    634 0.16730000   1.008000   ; qtot -0.052200
  635          c     25    bbb     C7    635 0.72110000  12.010000   ; qtot 0.668900
  636          c     25    bbb     C8    636 0.72110000  12.010000   ; qtot 1.390000
  637          o     25    bbb     O1    637 -0.61950000  16.000000   ; qtot 0.770500
  638          o     25    bbb     O2    638 -0.61950000  16.000000   ; qtot 0.151000
  639          n     25    bbb     N4    639 -0.46580000  14.010000   ; qtot -0.314800
  640         hn     25    bbb    H21    640 0.31480000   1.008000   ; qtot -0.000000
; residue   26 bbb rtp bbb q -0.0
  641         c3     26    bbb     C1    641 0.44180000  12.010000   ; qtot 0.441800
  642         h1     26    bbb     H1    642 -0.03530000   1.008000   ; qtot 0.406500
  643         h1     26    bbb     H2    643 -0.03530000   1.008000   ; qtot 0.371200
  644         c3     26    bbb     C2    644 -0.28250000  12.010000   ; qtot 0.088700
  645         h1     26    bbb     H3    645 0.15710000   1.008000   ; qtot 0.245800
  646         h1     26    bbb     H4    646 0.15710000   1.008000   ; qtot 0.402900
  647         n3     26    bbb     N1    647 -0.74090000  14.010000   ; qtot -0.338000
  648         c3     26    bbb     C3    648 0.51680000  12.010000   ; qtot 0.178800
  649         h1     26    bbb     H5    649 -0.05230000   1.008000   ; qtot 0.126500
  650         h1     26    bbb     H6    650 -0.05230000   1.008000   ; qtot 0.074200
  651         c3     26    bbb     C4    651 0.51680000  12.010000   ; qtot 0.591000
  652         h1     26    bbb     H7    652 -0.05230000   1.008000   ; qtot 0.538700
  653         h1     26    bbb     H8    653 -0.05230000   1.008000   ; qtot 0.486400
  654         c3     26    bbb     C5    654 -0.60390000  12.010000   ; qtot -0.117500
  655         hc     26    bbb     H9    655 0.16730000   1.008000   ; qtot 0.049800
  656         hc     26    bbb    H10    656 0.16730000   1.008000   ; qtot 0.217100
  657         c3     26    bbb     C6    657 -0.60390000  12.010000   ; qtot -0.386800
  658         hc     26    bbb    H11    658 0.16730000   1.008000   ; qtot -0.219500
  659         hc     26    bbb    H12    659 0.16730000   1.008000   ; qtot -0.052200
  660          c     26    bbb     C7    660 0.72110000  12.010000   ; qtot 0.668900
  661          c     26    bbb     C8    661 0.72110000  12.010000   ; qtot 1.390000
  662          o     26    bbb     O1    662 -0.61950000  16.000000   ; qtot 0.770500
  663          o     26    bbb     O2    663 -0.61950000  16.000000   ; qtot 0.151000
  664          n     26    bbb     N4    664 -0.46580000  14.010000   ; qtot -0.314800
  665         hn     26    bbb    H21    665 0.31480000   1.008000   ; qtot -0.000000
; residue   27 bbb rtp bbb q -0.0
  666         c3     27    bbb     C1    666 0.44180000  12.010000   ; qtot 0.441800
  667         h1     27    bbb     H1    667 -0.03530000   1.008000   ; qtot 0.406500
  668         h1     27    bbb     H2    668 -0.03530000   1.008000   ; qtot 0.371200
  669         c3     27    bbb     C2    669 -0.28250000  12.010000   ; qtot 0.088700
  670         h1     27    bbb     H3    670 0.15710000   1.008000   ; qtot 0.245800
  671         h1     27    bbb     H4    671 0.15710000   1.008000   ; qtot 0.402900
  672         n3     27    bbb     N1    672 -0.74090000  14.010000   ; qtot -0.338000
  673         c3     27    bbb     C3    673 0.51680000  12.010000   ; qtot 0.178800
  674         h1     27    bbb     H5    674 -0.05230000   1.008000   ; qtot 0.126500
  675         h1     27    bbb     H6    675 -0.05230000   1.008000   ; qtot 0.074200
  676         c3     27    bbb     C4    676 0.51680000  12.010000   ; qtot 0.591000
  677         h1     27    bbb     H7    677 -0.05230000   1.008000   ; qtot 0.538700
  678         h1     27    bbb     H8    678 -0.05230000   1.008000   ; qtot 0.486400
  679         c3     27    bbb     C5    679 -0.60390000  12.010000   ; qtot -0.117500
  680         hc     27    bbb     H9    680 0.16730000   1.008000   ; qtot 0.049800
  681         hc     27    bbb    H10    681 0.16730000   1.008000   ; qtot 0.217100
  682         c3     27    bbb     C6    682 -0.60390000  12.010000   ; qtot -0.386800
  683         hc     27    bbb    H11    683 0.16730000   1.008000   ; qtot -0.219500
  684         hc     27    bbb    H12    684 0.16730000   1.008000   ; qtot -0.052200
  685          c     27    bbb     C7    685 0.72110000  12.010000   ; qtot 0.668900
  686          c     27    bbb     C8    686 0.72110000  12.010000   ; qtot 1.390000
  687          o     27    bbb     O1    687 -0.61950000  16.000000   ; qtot 0.770500
  688          o     27    bbb     O2    688 -0.61950000  16.000000   ; qtot 0.151000
  689          n     27    bbb     N4    689 -0.46580000  14.010000   ; qtot -0.314800
  690         hn     27    bbb    H21    690 0.31480000   1.008000   ; qtot -0.000000
; residue   28 bbb rtp bbb q -0.0
  691         c3     28    bbb     C1    691 0.44180000  12.010000   ; qtot 0.441800
  692         h1     28    bbb     H1    692 -0.03530000   1.008000   ; qtot 0.406500
  693         h1     28    bbb     H2    693 -0.03530000   1.008000   ; qtot 0.371200
  694         c3     28    bbb     C2    694 -0.28250000  12.010000   ; qtot 0.088700
  695         h1     28    bbb     H3    695 0.15710000   1.008000   ; qtot 0.245800
  696         h1     28    bbb     H4    696 0.15710000   1.008000   ; qtot 0.402900
  697         n3     28    bbb     N1    697 -0.74090000  14.010000   ; qtot -0.338000
  698         c3     28    bbb     C3    698 0.51680000  12.010000   ; qtot 0.178800
  699         h1     28    bbb     H5    699 -0.05230000   1.008000   ; qtot 0.126500
  700         h1     28    bbb     H6    700 -0.05230000   1.008000   ; qtot 0.074200
  701         c3     28    bbb     C4    701 0.51680000  12.010000   ; qtot 0.591000
  702         h1     28    bbb     H7    702 -0.05230000   1.008000   ; qtot 0.538700
  703         h1     28    bbb     H8    703 -0.05230000   1.008000   ; qtot 0.486400
  704         c3     28    bbb     C5    704 -0.60390000  12.010000   ; qtot -0.117500
  705         hc     28    bbb     H9    705 0.16730000   1.008000   ; qtot 0.049800
  706         hc     28    bbb    H10    706 0.16730000   1.008000   ; qtot 0.217100
  707         c3     28    bbb     C6    707 -0.60390000  12.010000   ; qtot -0.386800
  708         hc     28    bbb    H11    708 0.16730000   1.008000   ; qtot -0.219500
  709         hc     28    bbb    H12    709 0.16730000   1.008000   ; qtot -0.052200
  710          c     28    bbb     C7    710 0.72110000  12.010000   ; qtot 0.668900
  711          c     28    bbb     C8    711 0.72110000  12.010000   ; qtot 1.390000
  712          o     28    bbb     O1    712 -0.61950000  16.000000   ; qtot 0.770500
  713          o     28    bbb     O2    713 -0.61950000  16.000000   ; qtot 0.151000
  714          n     28    bbb     N4    714 -0.46580000  14.010000   ; qtot -0.314800
  715         hn     28    bbb    H21    715 0.31480000   1.008000   ; qtot -0.000000
; residue   29 bbb rtp bbb q -0.0
  716         c3     29    bbb     C1    716 0.44180000  12.010000   ; qtot 0.441800
  717         h1     29    bbb     H1    717 -0.03530000   1.008000   ; qtot 0.406500
  718         h1     29    bbb     H2    718 -0.03530000   1.008000   ; qtot 0.371200
  719         c3     29    bbb     C2    719 -0.28250000  12.010000   ; qtot 0.088700
  720         h1     29    bbb     H3    720 0.15710000   1.008000   ; qtot 0.245800
  721         h1     29    bbb     H4    721 0.15710000   1.008000   ; qtot 0.402900
  722         n3     29    bbb     N1    722 -0.74090000  14.010000   ; qtot -0.338000
  723         c3     29    bbb     C3    723 0.51680000  12.010000   ; qtot 0.178800
  724         h1     29    bbb     H5    724 -0.05230000   1.008000   ; qtot 0.126500
  725         h1     29    bbb     H6    725 -0.05230000   1.008000   ; qtot 0.074200
  726         c3     29    bbb     C4    726 0.51680000  12.010000   ; qtot 0.591000
  727         h1     29    bbb     H7    727 -0.05230000   1.008000   ; qtot 0.538700
  728         h1     29    bbb     H8    728 -0.05230000   1.008000   ; qtot 0.486400
  729         c3     29    bbb     C5    729 -0.60390000  12.010000   ; qtot -0.117500
  730         hc     29    bbb     H9    730 0.16730000   1.008000   ; qtot 0.049800
  731         hc     29    bbb    H10    731 0.16730000   1.008000   ; qtot 0.217100
  732         c3     29    bbb     C6    732 -0.60390000  12.010000   ; qtot -0.386800
  733         hc     29    bbb    H11    733 0.16730000   1.008000   ; qtot -0.219500
  734         hc     29    bbb    H12    734 0.16730000   1.008000   ; qtot -0.052200
  735          c     29    bbb     C7    735 0.72110000  12.010000   ; qtot 0.668900
  736          c     29    bbb     C8    736 0.72110000  12.010000   ; qtot 1.390000
  737          o     29    bbb     O1    737 -0.61950000  16.000000   ; qtot 0.770500
  738          o     29    bbb     O2    738 -0.61950000  16.000000   ; qtot 0.151000
  739          n     29    bbb     N4    739 -0.46580000  14.010000   ; qtot -0.314800
  740         hn     29    bbb    H21    740 0.31480000   1.008000   ; qtot -0.000000
; residue   30 ccc rtp ccc q 0.0
  741         c3     30    ccc     C1    741 -0.02400000  12.010000   ; qtot -0.024000
  742         h1     30    ccc     H1    742 0.10170000   1.008000   ; qtot 0.077700
  743         h1     30    ccc     H2    743 0.10170000   1.008000   ; qtot 0.179400
  744         c3     30    ccc     C2    744 0.52570000  12.010000   ; qtot 0.705100
  745         h1     30    ccc     H3    745 -0.02490000   1.008000   ; qtot 0.680200
  746         h1     30    ccc     H4    746 -0.02490000   1.008000   ; qtot 0.655300
  747         n3     30    ccc     N1    747 -1.33770000  14.010000   ; qtot -0.682400
  748         hn     30    ccc     H5    748 0.47210000   1.008000   ; qtot -0.210300
  749         hn     30    ccc     H6    749 0.47210000   1.008000   ; qtot 0.261800
  750          n     30    ccc     N2    750 -0.59180000  14.010000   ; qtot -0.330000
  751         hn     30    ccc     H7    751 0.33000000   1.008000   ; qtot -0.000000
; residue   31 ccc rtp ccc q 0.0
  752         c3     31    ccc     C1    752 -0.02400000  12.010000   ; qtot -0.024000
  753         h1     31    ccc     H1    753 0.10170000   1.008000   ; qtot 0.077700
  754         h1     31    ccc     H2    754 0.10170000   1.008000   ; qtot 0.179400
  755         c3     31    ccc     C2    755 0.52570000  12.010000   ; qtot 0.705100
  756         h1     31    ccc     H3    756 -0.02490000   1.008000   ; qtot 0.680200
  757         h1     31    ccc     H4    757 -0.02490000   1.008000   ; qtot 0.655300
  758         n3     31    ccc     N1    758 -1.33770000  14.010000   ; qtot -0.682400
  759         hn     31    ccc     H5    759 0.47210000   1.008000   ; qtot -0.210300
  760         hn     31    ccc     H6    760 0.47210000   1.008000   ; qtot 0.261800
  761          n     31    ccc     N2    761 -0.59180000  14.010000   ; qtot -0.330000
  762         hn     31    ccc     H7    762 0.33000000   1.008000   ; qtot -0.000000
; residue   32 ccc rtp ccc q 0.0
  763         c3     32    ccc     C1    763 -0.02400000  12.010000   ; qtot -0.024000
  764         h1     32    ccc     H1    764 0.10170000   1.008000   ; qtot 0.077700
  765         h1     32    ccc     H2    765 0.10170000   1.008000   ; qtot 0.179400
  766         c3     32    ccc     C2    766 0.52570000  12.010000   ; qtot 0.705100
  767         h1     32    ccc     H3    767 -0.02490000   1.008000   ; qtot 0.680200
  768         h1     32    ccc     H4    768 -0.02490000   1.008000   ; qtot 0.655300
  769         n3     32    ccc     N1    769 -1.33770000  14.010000   ; qtot -0.682400
  770         hn     32    ccc     H5    770 0.47210000   1.008000   ; qtot -0.210300
  771         hn     32    ccc     H6    771 0.47210000   1.008000   ; qtot 0.261800
  772          n     32    ccc     N2    772 -0.59180000  14.010000   ; qtot -0.330000
  773         hn     32    ccc     H7    773 0.33000000   1.008000   ; qtot -0.000000
; residue   33 ccc rtp ccc q 0.0
  774         c3     33    ccc     C1    774 -0.02400000  12.010000   ; qtot -0.024000
  775         h1     33    ccc     H1    775 0.10170000   1.008000   ; qtot 0.077700
  776         h1     33    ccc     H2    776 0.10170000   1.008000   ; qtot 0.179400
  777         c3     33    ccc     C2    777 0.52570000  12.010000   ; qtot 0.705100
  778         h1     33    ccc     H3    778 -0.02490000   1.008000   ; qtot 0.680200
  779         h1     33    ccc     H4    779 -0.02490000   1.008000   ; qtot 0.655300
  780         n3     33    ccc     N1    780 -1.33770000  14.010000   ; qtot -0.682400
  781         hn     33    ccc     H5    781 0.47210000   1.008000   ; qtot -0.210300
  782         hn     33    ccc     H6    782 0.47210000   1.008000   ; qtot 0.261800
  783          n     33    ccc     N2    783 -0.59180000  14.010000   ; qtot -0.330000
  784         hn     33    ccc     H7    784 0.33000000   1.008000   ; qtot -0.000000
; residue   34 ccc rtp ccc q 0.0
  785         c3     34    ccc     C1    785 -0.02400000  12.010000   ; qtot -0.024000
  786         h1     34    ccc     H1    786 0.10170000   1.008000   ; qtot 0.077700
  787         h1     34    ccc     H2    787 0.10170000   1.008000   ; qtot 0.179400
  788         c3     34    ccc     C2    788 0.52570000  12.010000   ; qtot 0.705100
  789         h1     34    ccc     H3    789 -0.02490000   1.008000   ; qtot 0.680200
  790         h1     34    ccc     H4    790 -0.02490000   1.008000   ; qtot 0.655300
  791         n3     34    ccc     N1    791 -1.33770000  14.010000   ; qtot -0.682400
  792         hn     34    ccc     H5    792 0.47210000   1.008000   ; qtot -0.210300
  793         hn     34    ccc     H6    793 0.47210000   1.008000   ; qtot 0.261800
  794          n     34    ccc     N2    794 -0.59180000  14.010000   ; qtot -0.330000
  795         hn     34    ccc     H7    795 0.33000000   1.008000   ; qtot -0.000000
; residue   35 ccc rtp ccc q 0.0
  796         c3     35    ccc     C1    796 -0.02400000  12.010000   ; qtot -0.024000
  797         h1     35    ccc     H1    797 0.10170000   1.008000   ; qtot 0.077700
  798         h1     35    ccc     H2    798 0.10170000   1.008000   ; qtot 0.179400
  799         c3     35    ccc     C2    799 0.52570000  12.010000   ; qtot 0.705100
  800         h1     35    ccc     H3    800 -0.02490000   1.008000   ; qtot 0.680200
  801         h1     35    ccc     H4    801 -0.02490000   1.008000   ; qtot 0.655300
  802         n3     35    ccc     N1    802 -1.33770000  14.010000   ; qtot -0.682400
  803         hn     35    ccc     H5    803 0.47210000   1.008000   ; qtot -0.210300
  804         hn     35    ccc     H6    804 0.47210000   1.008000   ; qtot 0.261800
  805          n     35    ccc     N2    805 -0.59180000  14.010000   ; qtot -0.330000
  806         hn     35    ccc     H7    806 0.33000000   1.008000   ; qtot -0.000000
; residue   36 ccc rtp ccc q 0.0
  807         c3     36    ccc     C1    807 -0.02400000  12.010000   ; qtot -0.024000
  808         h1     36    ccc     H1    808 0.10170000   1.008000   ; qtot 0.077700
  809         h1     36    ccc     H2    809 0.10170000   1.008000   ; qtot 0.179400
  810         c3     36    ccc     C2    810 0.52570000  12.010000   ; qtot 0.705100
  811         h1     36    ccc     H3    811 -0.02490000   1.008000   ; qtot 0.680200
  812         h1     36    ccc     H4    812 -0.02490000   1.008000   ; qtot 0.655300
  813         n3     36    ccc     N1    813 -1.33770000  14.010000   ; qtot -0.682400
  814         hn     36    ccc     H5    814 0.47210000   1.008000   ; qtot -0.210300
  815         hn     36    ccc     H6    815 0.47210000   1.008000   ; qtot 0.261800
  816          n     36    ccc     N2    816 -0.59180000  14.010000   ; qtot -0.330000
  817         hn     36    ccc     H7    817 0.33000000   1.008000   ; qtot -0.000000
; residue   37 ccc rtp ccc q 0.0
  818         c3     37    ccc     C1    818 -0.02400000  12.010000   ; qtot -0.024000
  819         h1     37    ccc     H1    819 0.10170000   1.008000   ; qtot 0.077700
  820         h1     37    ccc     H2    820 0.10170000   1.008000   ; qtot 0.179400
  821         c3     37    ccc     C2    821 0.52570000  12.010000   ; qtot 0.705100
  822         h1     37    ccc     H3    822 -0.02490000   1.008000   ; qtot 0.680200
  823         h1     37    ccc     H4    823 -0.02490000   1.008000   ; qtot 0.655300
  824         n3     37    ccc     N1    824 -1.33770000  14.010000   ; qtot -0.682400
  825         hn     37    ccc     H5    825 0.47210000   1.008000   ; qtot -0.210300
  826         hn     37    ccc     H6    826 0.47210000   1.008000   ; qtot 0.261800
  827          n     37    ccc     N2    827 -0.59180000  14.010000   ; qtot -0.330000
  828         hn     37    ccc     H7    828 0.33000000   1.008000   ; qtot -0.000000
; residue   38 ccc rtp ccc q 0.0
  829         c3     38    ccc     C1    829 -0.02400000  12.010000   ; qtot -0.024000
  830         h1     38    ccc     H1    830 0.10170000   1.008000   ; qtot 0.077700
  831         h1     38    ccc     H2    831 0.10170000   1.008000   ; qtot 0.179400
  832         c3     38    ccc     C2    832 0.52570000  12.010000   ; qtot 0.705100
  833         h1     38    ccc     H3    833 -0.02490000   1.008000   ; qtot 0.680200
  834         h1     38    ccc     H4    834 -0.02490000   1.008000   ; qtot 0.655300
  835         n3     38    ccc     N1    835 -1.33770000  14.010000   ; qtot -0.682400
  836         hn     38    ccc     H5    836 0.47210000   1.008000   ; qtot -0.210300
  837         hn     38    ccc     H6    837 0.47210000   1.008000   ; qtot 0.261800
  838          n     38    ccc     N2    838 -0.59180000  14.010000   ; qtot -0.330000
  839         hn     38    ccc     H7    839 0.33000000   1.008000   ; qtot -0.000000
; residue   39 ccc rtp ccc q 0.0
  840         c3     39    ccc     C1    840 -0.02400000  12.010000   ; qtot -0.024000
  841         h1     39    ccc     H1    841 0.10170000   1.008000   ; qtot 0.077700
  842         h1     39    ccc     H2    842 0.10170000   1.008000   ; qtot 0.179400
  843         c3     39    ccc     C2    843 0.52570000  12.010000   ; qtot 0.705100
  844         h1     39    ccc     H3    844 -0.02490000   1.008000   ; qtot 0.680200
  845         h1     39    ccc     H4    845 -0.02490000   1.008000   ; qtot 0.655300
  846         n3     39    ccc     N1    846 -1.33770000  14.010000   ; qtot -0.682400
  847         hn     39    ccc     H5    847 0.47210000   1.008000   ; qtot -0.210300
  848         hn     39    ccc     H6    848 0.47210000   1.008000   ; qtot 0.261800
  849          n     39    ccc     N2    849 -0.59180000  14.010000   ; qtot -0.330000
  850         hn     39    ccc     H7    850 0.33000000   1.008000   ; qtot -0.000000
; residue   40 ccc rtp ccc q 0.0
  851         c3     40    ccc     C1    851 -0.02400000  12.010000   ; qtot -0.024000
  852         h1     40    ccc     H1    852 0.10170000   1.008000   ; qtot 0.077700
  853         h1     40    ccc     H2    853 0.10170000   1.008000   ; qtot 0.179400
  854         c3     40    ccc     C2    854 0.52570000  12.010000   ; qtot 0.705100
  855         h1     40    ccc     H3    855 -0.02490000   1.008000   ; qtot 0.680200
  856         h1     40    ccc     H4    856 -0.02490000   1.008000   ; qtot 0.655300
  857         n3     40    ccc     N1    857 -1.33770000  14.010000   ; qtot -0.682400
  858         hn     40    ccc     H5    858 0.47210000   1.008000   ; qtot -0.210300
  859         hn     40    ccc     H6    859 0.47210000   1.008000   ; qtot 0.261800
  860          n     40    ccc     N2    860 -0.59180000  14.010000   ; qtot -0.330000
  861         hn     40    ccc     H7    861 0.33000000   1.008000   ; qtot -0.000000
; residue   41 ccc rtp ccc q 0.0
  862         c3     41    ccc     C1    862 -0.02400000  12.010000   ; qtot -0.024000
  863         h1     41    ccc     H1    863 0.10170000   1.008000   ; qtot 0.077700
  864         h1     41    ccc     H2    864 0.10170000   1.008000   ; qtot 0.179400
  865         c3     41    ccc     C2    865 0.52570000  12.010000   ; qtot 0.705100
  866         h1     41    ccc     H3    866 -0.02490000   1.008000   ; qtot 0.680200
  867         h1     41    ccc     H4    867 -0.02490000   1.008000   ; qtot 0.655300
  868         n3     41    ccc     N1    868 -1.33770000  14.010000   ; qtot -0.682400
  869         hn     41    ccc     H5    869 0.47210000   1.008000   ; qtot -0.210300
  870         hn     41    ccc     H6    870 0.47210000   1.008000   ; qtot 0.261800
  871          n     41    ccc     N2    871 -0.59180000  14.010000   ; qtot -0.330000
  872         hn     41    ccc     H7    872 0.33000000   1.008000   ; qtot -0.000000
; residue   42 ccc rtp ccc q 0.0
  873         c3     42    ccc     C1    873 -0.02400000  12.010000   ; qtot -0.024000
  874         h1     42    ccc     H1    874 0.10170000   1.008000   ; qtot 0.077700
  875         h1     42    ccc     H2    875 0.10170000   1.008000   ; qtot 0.179400
  876         c3     42    ccc     C2    876 0.52570000  12.010000   ; qtot 0.705100
  877         h1     42    ccc     H3    877 -0.02490000   1.008000   ; qtot 0.680200
  878         h1     42    ccc     H4    878 -0.02490000   1.008000   ; qtot 0.655300
  879         n3     42    ccc     N1    879 -1.33770000  14.010000   ; qtot -0.682400
  880         hn     42    ccc     H5    880 0.47210000   1.008000   ; qtot -0.210300
  881         hn     42    ccc     H6    881 0.47210000   1.008000   ; qtot 0.261800
  882          n     42    ccc     N2    882 -0.59180000  14.010000   ; qtot -0.330000
  883         hn     42    ccc     H7    883 0.33000000   1.008000   ; qtot -0.000000
; residue   43 ccc rtp ccc q 0.0
  884         c3     43    ccc     C1    884 -0.02400000  12.010000   ; qtot -0.024000
  885         h1     43    ccc     H1    885 0.10170000   1.008000   ; qtot 0.077700
  886         h1     43    ccc     H2    886 0.10170000   1.008000   ; qtot 0.179400
  887         c3     43    ccc     C2    887 0.52570000  12.010000   ; qtot 0.705100
  888         h1     43    ccc     H3    888 -0.02490000   1.008000   ; qtot 0.680200
  889         h1     43    ccc     H4    889 -0.02490000   1.008000   ; qtot 0.655300
  890         n3     43    ccc     N1    890 -1.33770000  14.010000   ; qtot -0.682400
  891         hn     43    ccc     H5    891 0.47210000   1.008000   ; qtot -0.210300
  892         hn     43    ccc     H6    892 0.47210000   1.008000   ; qtot 0.261800
  893          n     43    ccc     N2    893 -0.59180000  14.010000   ; qtot -0.330000
  894         hn     43    ccc     H7    894 0.33000000   1.008000   ; qtot -0.000000
; residue   44 ccc rtp ccc q 0.0
  895         c3     44    ccc     C1    895 -0.02400000  12.010000   ; qtot -0.024000
  896         h1     44    ccc     H1    896 0.10170000   1.008000   ; qtot 0.077700
  897         h1     44    ccc     H2    897 0.10170000   1.008000   ; qtot 0.179400
  898         c3     44    ccc     C2    898 0.52570000  12.010000   ; qtot 0.705100
  899         h1     44    ccc     H3    899 -0.02490000   1.008000   ; qtot 0.680200
  900         h1     44    ccc     H4    900 -0.02490000   1.008000   ; qtot 0.655300
  901         n3     44    ccc     N1    901 -1.33770000  14.010000   ; qtot -0.682400
  902         hn     44    ccc     H5    902 0.47210000   1.008000   ; qtot -0.210300
  903         hn     44    ccc     H6    903 0.47210000   1.008000   ; qtot 0.261800
  904          n     44    ccc     N2    904 -0.59180000  14.010000   ; qtot -0.330000
  905         hn     44    ccc     H7    905 0.33000000   1.008000   ; qtot -0.000000
; residue   45 ccc rtp ccc q 0.0
  906         c3     45    ccc     C1    906 -0.02400000  12.010000   ; qtot -0.024000
  907         h1     45    ccc     H1    907 0.10170000   1.008000   ; qtot 0.077700
  908         h1     45    ccc     H2    908 0.10170000   1.008000   ; qtot 0.179400
  909         c3     45    ccc     C2    909 0.52570000  12.010000   ; qtot 0.705100
  910         h1     45    ccc     H3    910 -0.02490000   1.008000   ; qtot 0.680200
  911         h1     45    ccc     H4    911 -0.02490000   1.008000   ; qtot 0.655300
  912         n3     45    ccc     N1    912 -1.33770000  14.010000   ; qtot -0.682400
  913         hn     45    ccc     H5    913 0.47210000   1.008000   ; qtot -0.210300
  914         hn     45    ccc     H6    914 0.47210000   1.008000   ; qtot 0.261800
  915          n     45    ccc     N2    915 -0.59180000  14.010000   ; qtot -0.330000
  916         hn     45    ccc     H7    916 0.33000000   1.008000   ; qtot -0.000000
; residue   46 ccc rtp ccc q 0.0
  917         c3     46    ccc     C1    917 -0.02400000  12.010000   ; qtot -0.024000
  918         h1     46    ccc     H1    918 0.10170000   1.008000   ; qtot 0.077700
  919         h1     46    ccc     H2    919 0.10170000   1.008000   ; qtot 0.179400
  920         c3     46    ccc     C2    920 0.52570000  12.010000   ; qtot 0.705100
  921         h1     46    ccc     H3    921 -0.02490000   1.008000   ; qtot 0.680200
  922         h1     46    ccc     H4    922 -0.02490000   1.008000   ; qtot 0.655300
  923         n3     46    ccc     N1    923 -1.33770000  14.010000   ; qtot -0.682400
  924         hn     46    ccc     H5    924 0.47210000   1.008000   ; qtot -0.210300
  925         hn     46    ccc     H6    925 0.47210000   1.008000   ; qtot 0.261800
  926          n     46    ccc     N2    926 -0.59180000  14.010000   ; qtot -0.330000
  927         hn     46    ccc     H7    927 0.33000000   1.008000   ; qtot -0.000000
; residue   47 ccc rtp ccc q 0.0
  928         c3     47    ccc     C1    928 -0.02400000  12.010000   ; qtot -0.024000
  929         h1     47    ccc     H1    929 0.10170000   1.008000   ; qtot 0.077700
  930         h1     47    ccc     H2    930 0.10170000   1.008000   ; qtot 0.179400
  931         c3     47    ccc     C2    931 0.52570000  12.010000   ; qtot 0.705100
  932         h1     47    ccc     H3    932 -0.02490000   1.008000   ; qtot 0.680200
  933         h1     47    ccc     H4    933 -0.02490000   1.008000   ; qtot 0.655300
  934         n3     47    ccc     N1    934 -1.33770000  14.010000   ; qtot -0.682400
  935         hn     47    ccc     H5    935 0.47210000   1.008000   ; qtot -0.210300
  936         hn     47    ccc     H6    936 0.47210000   1.008000   ; qtot 0.261800
  937          n     47    ccc     N2    937 -0.59180000  14.010000   ; qtot -0.330000
  938         hn     47    ccc     H7    938 0.33000000   1.008000   ; qtot -0.000000
; residue   48 ccc rtp ccc q 0.0
  939         c3     48    ccc     C1    939 -0.02400000  12.010000   ; qtot -0.024000
  940         h1     48    ccc     H1    940 0.10170000   1.008000   ; qtot 0.077700
  941         h1     48    ccc     H2    941 0.10170000   1.008000   ; qtot 0.179400
  942         c3     48    ccc     C2    942 0.52570000  12.010000   ; qtot 0.705100
  943         h1     48    ccc     H3    943 -0.02490000   1.008000   ; qtot 0.680200
  944         h1     48    ccc     H4    944 -0.02490000   1.008000   ; qtot 0.655300
  945         n3     48    ccc     N1    945 -1.33770000  14.010000   ; qtot -0.682400
  946         hn     48    ccc     H5    946 0.47210000   1.008000   ; qtot -0.210300
  947         hn     48    ccc     H6    947 0.47210000   1.008000   ; qtot 0.261800
  948          n     48    ccc     N2    948 -0.59180000  14.010000   ; qtot -0.330000
  949         hn     48    ccc     H7    949 0.33000000   1.008000   ; qtot -0.000000
; residue   49 ccc rtp ccc q 0.0
  950         c3     49    ccc     C1    950 -0.02400000  12.010000   ; qtot -0.024000
  951         h1     49    ccc     H1    951 0.10170000   1.008000   ; qtot 0.077700
  952         h1     49    ccc     H2    952 0.10170000   1.008000   ; qtot 0.179400
  953         c3     49    ccc     C2    953 0.52570000  12.010000   ; qtot 0.705100
  954         h1     49    ccc     H3    954 -0.02490000   1.008000   ; qtot 0.680200
  955         h1     49    ccc     H4    955 -0.02490000   1.008000   ; qtot 0.655300
  956         n3     49    ccc     N1    956 -1.33770000  14.010000   ; qtot -0.682400
  957         hn     49    ccc     H5    957 0.47210000   1.008000   ; qtot -0.210300
  958         hn     49    ccc     H6    958 0.47210000   1.008000   ; qtot 0.261800
  959          n     49    ccc     N2    959 -0.59180000  14.010000   ; qtot -0.330000
  960         hn     49    ccc     H7    960 0.33000000   1.008000   ; qtot -0.000000
; residue   50 ccc rtp ccc q 0.0
  961         c3     50    ccc     C1    961 -0.02400000  12.010000   ; qtot -0.024000
  962         h1     50    ccc     H1    962 0.10170000   1.008000   ; qtot 0.077700
  963         h1     50    ccc     H2    963 0.10170000   1.008000   ; qtot 0.179400
  964         c3     50    ccc     C2    964 0.52570000  12.010000   ; qtot 0.705100
  965         h1     50    ccc     H3    965 -0.02490000   1.008000   ; qtot 0.680200
  966         h1     50    ccc     H4    966 -0.02490000   1.008000   ; qtot 0.655300
  967         n3     50    ccc     N1    967 -1.33770000  14.010000   ; qtot -0.682400
  968         hn     50    ccc     H5    968 0.47210000   1.008000   ; qtot -0.210300
  969         hn     50    ccc     H6    969 0.47210000   1.008000   ; qtot 0.261800
  970          n     50    ccc     N2    970 -0.59180000  14.010000   ; qtot -0.330000
  971         hn     50    ccc     H7    971 0.33000000   1.008000   ; qtot -0.000000
; residue   51 ccc rtp ccc q 0.0
  972         c3     51    ccc     C1    972 -0.02400000  12.010000   ; qtot -0.024000
  973         h1     51    ccc     H1    973 0.10170000   1.008000   ; qtot 0.077700
  974         h1     51    ccc     H2    974 0.10170000   1.008000   ; qtot 0.179400
  975         c3     51    ccc     C2    975 0.52570000  12.010000   ; qtot 0.705100
  976         h1     51    ccc     H3    976 -0.02490000   1.008000   ; qtot 0.680200
  977         h1     51    ccc     H4    977 -0.02490000   1.008000   ; qtot 0.655300
  978         n3     51    ccc     N1    978 -1.33770000  14.010000   ; qtot -0.682400
  979         hn     51    ccc     H5    979 0.47210000   1.008000   ; qtot -0.210300
  980         hn     51    ccc     H6    980 0.47210000   1.008000   ; qtot 0.261800
  981          n     51    ccc     N2    981 -0.59180000  14.010000   ; qtot -0.330000
  982         hn     51    ccc     H7    982 0.33000000   1.008000   ; qtot -0.000000
; residue   52 ccc rtp ccc q 0.0
  983         c3     52    ccc     C1    983 -0.02400000  12.010000   ; qtot -0.024000
  984         h1     52    ccc     H1    984 0.10170000   1.008000   ; qtot 0.077700
  985         h1     52    ccc     H2    985 0.10170000   1.008000   ; qtot 0.179400
  986         c3     52    ccc     C2    986 0.52570000  12.010000   ; qtot 0.705100
  987         h1     52    ccc     H3    987 -0.02490000   1.008000   ; qtot 0.680200
  988         h1     52    ccc     H4    988 -0.02490000   1.008000   ; qtot 0.655300
  989         n3     52    ccc     N1    989 -1.33770000  14.010000   ; qtot -0.682400
  990         hn     52    ccc     H5    990 0.47210000   1.008000   ; qtot -0.210300
  991         hn     52    ccc     H6    991 0.47210000   1.008000   ; qtot 0.261800
  992          n     52    ccc     N2    992 -0.59180000  14.010000   ; qtot -0.330000
  993         hn     52    ccc     H7    993 0.33000000   1.008000   ; qtot -0.000000
; residue   53 ccc rtp ccc q 0.0
  994         c3     53    ccc     C1    994 -0.02400000  12.010000   ; qtot -0.024000
  995         h1     53    ccc     H1    995 0.10170000   1.008000   ; qtot 0.077700
  996         h1     53    ccc     H2    996 0.10170000   1.008000   ; qtot 0.179400
  997         c3     53    ccc     C2    997 0.52570000  12.010000   ; qtot 0.705100
  998         h1     53    ccc     H3    998 -0.02490000   1.008000   ; qtot 0.680200
  999         h1     53    ccc     H4    999 -0.02490000   1.008000   ; qtot 0.655300
 1000         n3     53    ccc     N1   1000 -1.33770000  14.010000   ; qtot -0.682400
 1001         hn     53    ccc     H5   1001 0.47210000   1.008000   ; qtot -0.210300
 1002         hn     53    ccc     H6   1002 0.47210000   1.008000   ; qtot 0.261800
 1003          n     53    ccc     N2   1003 -0.59180000  14.010000   ; qtot -0.330000
 1004         hn     53    ccc     H7   1004 0.33000000   1.008000   ; qtot -0.000000
; residue   54 ccc rtp ccc q 0.0
 1005         c3     54    ccc     C1   1005 -0.02400000  12.010000   ; qtot -0.024000
 1006         h1     54    ccc     H1   1006 0.10170000   1.008000   ; qtot 0.077700
 1007         h1     54    ccc     H2   1007 0.10170000   1.008000   ; qtot 0.179400
 1008         c3     54    ccc     C2   1008 0.52570000  12.010000   ; qtot 0.705100
 1009         h1     54    ccc     H3   1009 -0.02490000   1.008000   ; qtot 0.680200
 1010         h1     54    ccc     H4   1010 -0.02490000   1.008000   ; qtot 0.655300
 1011         n3     54    ccc     N1   1011 -1.33770000  14.010000   ; qtot -0.682400
 1012         hn     54    ccc     H5   1012 0.47210000   1.008000   ; qtot -0.210300
 1013         hn     54    ccc     H6   1013 0.47210000   1.008000   ; qtot 0.261800
 1014          n     54    ccc     N2   1014 -0.59180000  14.010000   ; qtot -0.330000
 1015         hn     54    ccc     H7   1015 0.33000000   1.008000   ; qtot -0.000000
; residue   55 ccc rtp ccc q 0.0
 1016         c3     55    ccc     C1   1016 -0.02400000  12.010000   ; qtot -0.024000
 1017         h1     55    ccc     H1   1017 0.10170000   1.008000   ; qtot 0.077700
 1018         h1     55    ccc     H2   1018 0.10170000   1.008000   ; qtot 0.179400
 1019         c3     55    ccc     C2   1019 0.52570000  12.010000   ; qtot 0.705100
 1020         h1     55    ccc     H3   1020 -0.02490000   1.008000   ; qtot 0.680200
 1021         h1     55    ccc     H4   1021 -0.02490000   1.008000   ; qtot 0.655300
 1022         n3     55    ccc     N1   1022 -1.33770000  14.010000   ; qtot -0.682400
 1023         hn     55    ccc     H5   1023 0.47210000   1.008000   ; qtot -0.210300
 1024         hn     55    ccc     H6   1024 0.47210000   1.008000   ; qtot 0.261800
 1025          n     55    ccc     N2   1025 -0.59180000  14.010000   ; qtot -0.330000
 1026         hn     55    ccc     H7   1026 0.33000000   1.008000   ; qtot -0.000000
; residue   56 ccc rtp ccc q 0.0
 1027         c3     56    ccc     C1   1027 -0.02400000  12.010000   ; qtot -0.024000
 1028         h1     56    ccc     H1   1028 0.10170000   1.008000   ; qtot 0.077700
 1029         h1     56    ccc     H2   1029 0.10170000   1.008000   ; qtot 0.179400
 1030         c3     56    ccc     C2   1030 0.52570000  12.010000   ; qtot 0.705100
 1031         h1     56    ccc     H3   1031 -0.02490000   1.008000   ; qtot 0.680200
 1032         h1     56    ccc     H4   1032 -0.02490000   1.008000   ; qtot 0.655300
 1033         n3     56    ccc     N1   1033 -1.33770000  14.010000   ; qtot -0.682400
 1034         hn     56    ccc     H5   1034 0.47210000   1.008000   ; qtot -0.210300
 1035         hn     56    ccc     H6   1035 0.47210000   1.008000   ; qtot 0.261800
 1036          n     56    ccc     N2   1036 -0.59180000  14.010000   ; qtot -0.330000
 1037         hn     56    ccc     H7   1037 0.33000000   1.008000   ; qtot -0.000000
; residue   57 ccc rtp ccc q 0.0
 1038         c3     57    ccc     C1   1038 -0.02400000  12.010000   ; qtot -0.024000
 1039         h1     57    ccc     H1   1039 0.10170000   1.008000   ; qtot 0.077700
 1040         h1     57    ccc     H2   1040 0.10170000   1.008000   ; qtot 0.179400
 1041         c3     57    ccc     C2   1041 0.52570000  12.010000   ; qtot 0.705100
 1042         h1     57    ccc     H3   1042 -0.02490000   1.008000   ; qtot 0.680200
 1043         h1     57    ccc     H4   1043 -0.02490000   1.008000   ; qtot 0.655300
 1044         n3     57    ccc     N1   1044 -1.33770000  14.010000   ; qtot -0.682400
 1045         hn     57    ccc     H5   1045 0.47210000   1.008000   ; qtot -0.210300
 1046         hn     57    ccc     H6   1046 0.47210000   1.008000   ; qtot 0.261800
 1047          n     57    ccc     N2   1047 -0.59180000  14.010000   ; qtot -0.330000
 1048         hn     57    ccc     H7   1048 0.33000000   1.008000   ; qtot -0.000000
; residue   58 ccc rtp ccc q 0.0
 1049         c3     58    ccc     C1   1049 -0.02400000  12.010000   ; qtot -0.024000
 1050         h1     58    ccc     H1   1050 0.10170000   1.008000   ; qtot 0.077700
 1051         h1     58    ccc     H2   1051 0.10170000   1.008000   ; qtot 0.179400
 1052         c3     58    ccc     C2   1052 0.52570000  12.010000   ; qtot 0.705100
 1053         h1     58    ccc     H3   1053 -0.02490000   1.008000   ; qtot 0.680200
 1054         h1     58    ccc     H4   1054 -0.02490000   1.008000   ; qtot 0.655300
 1055         n3     58    ccc     N1   1055 -1.33770000  14.010000   ; qtot -0.682400
 1056         hn     58    ccc     H5   1056 0.47210000   1.008000   ; qtot -0.210300
 1057         hn     58    ccc     H6   1057 0.47210000   1.008000   ; qtot 0.261800
 1058          n     58    ccc     N2   1058 -0.59180000  14.010000   ; qtot -0.330000
 1059         hn     58    ccc     H7   1059 0.33000000   1.008000   ; qtot -0.000000
; residue   59 ccc rtp ccc q 0.0
 1060         c3     59    ccc     C1   1060 -0.02400000  12.010000   ; qtot -0.024000
 1061         h1     59    ccc     H1   1061 0.10170000   1.008000   ; qtot 0.077700
 1062         h1     59    ccc     H2   1062 0.10170000   1.008000   ; qtot 0.179400
 1063         c3     59    ccc     C2   1063 0.52570000  12.010000   ; qtot 0.705100
 1064         h1     59    ccc     H3   1064 -0.02490000   1.008000   ; qtot 0.680200
 1065         h1     59    ccc     H4   1065 -0.02490000   1.008000   ; qtot 0.655300
 1066         n3     59    ccc     N1   1066 -1.33770000  14.010000   ; qtot -0.682400
 1067         hn     59    ccc     H5   1067 0.47210000   1.008000   ; qtot -0.210300
 1068         hn     59    ccc     H6   1068 0.47210000   1.008000   ; qtot 0.261800
 1069          n     59    ccc     N2   1069 -0.59180000  14.010000   ; qtot -0.330000
 1070         hn     59    ccc     H7   1070 0.33000000   1.008000   ; qtot -0.000000
; residue   60 ccc rtp ccc q 0.0
 1071         c3     60    ccc     C1   1071 -0.02400000  12.010000   ; qtot -0.024000
 1072         h1     60    ccc     H1   1072 0.10170000   1.008000   ; qtot 0.077700
 1073         h1     60    ccc     H2   1073 0.10170000   1.008000   ; qtot 0.179400
 1074         c3     60    ccc     C2   1074 0.52570000  12.010000   ; qtot 0.705100
 1075         h1     60    ccc     H3   1075 -0.02490000   1.008000   ; qtot 0.680200
 1076         h1     60    ccc     H4   1076 -0.02490000   1.008000   ; qtot 0.655300
 1077         n3     60    ccc     N1   1077 -1.33770000  14.010000   ; qtot -0.682400
 1078         hn     60    ccc     H5   1078 0.47210000   1.008000   ; qtot -0.210300
 1079         hn     60    ccc     H6   1079 0.47210000   1.008000   ; qtot 0.261800
 1080          n     60    ccc     N2   1080 -0.59180000  14.010000   ; qtot -0.330000
 1081         hn     60    ccc     H7   1081 0.33000000   1.008000   ; qtot -0.000000
; residue   61 ccc rtp ccc q 0.0
 1082         c3     61    ccc     C1   1082 -0.02400000  12.010000   ; qtot -0.024000
 1083         h1     61    ccc     H1   1083 0.10170000   1.008000   ; qtot 0.077700
 1084         h1     61    ccc     H2   1084 0.10170000   1.008000   ; qtot 0.179400
 1085         c3     61    ccc     C2   1085 0.52570000  12.010000   ; qtot 0.705100
 1086         h1     61    ccc     H3   1086 -0.02490000   1.008000   ; qtot 0.680200
 1087         h1     61    ccc     H4   1087 -0.02490000   1.008000   ; qtot 0.655300
 1088         n3     61    ccc     N1   1088 -1.33770000  14.010000   ; qtot -0.682400
 1089         hn     61    ccc     H5   1089 0.47210000   1.008000   ; qtot -0.210300
 1090         hn     61    ccc     H6   1090 0.47210000   1.008000   ; qtot 0.261800
 1091          n     61    ccc     N2   1091 -0.59180000  14.010000   ; qtot -0.330000
 1092         hn     61    ccc     H7   1092 0.33000000   1.008000   ; qtot -0.000000

[ bonds ]
;    ai     aj funct         c0         c1         c2         c3
      1      4     1   0.15375 251793.120000
      1      8     1   0.14647 272713.120000
      4      7     1   0.14647 272713.120000
      7     15     1   0.14647 272713.120000
      7     18     1   0.14647 272713.120000
      8      9     1   0.14647 272713.120000
      8     12     1   0.14647 272713.120000
      9     30     1   0.15375 251793.120000
     12     27     1   0.15375 251793.120000
     15     21     1   0.15375 251793.120000
     18     24     1   0.15375 251793.120000
     21     35     1   0.15241 261918.400000
     24     36     1   0.15241 261918.400000
     27     33     1   0.15241 261918.400000
     30     34     1   0.15241 261918.400000
     33     37     1   0.12183 533627.360000
     33     64     1   0.13789 357815.680000
     34     40     1   0.12183 533627.360000
     34     89     1   0.13789 357815.680000
     35     38     1   0.12183 533627.360000
     35    114     1   0.13789 357815.680000
     36     39     1   0.12183 533627.360000
     36    139     1   0.13789 357815.680000
     41     44     1   0.15375 251793.120000
     41     47     1   0.14647 272713.120000
     44     64     1   0.14619 275056.160000
     47     48     1   0.14647 272713.120000
     47     51     1   0.14647 272713.120000
     48     57     1   0.15375 251793.120000
     51     54     1   0.15375 251793.120000
     54     60     1   0.15241 261918.400000
     57     61     1   0.15241 261918.400000
     60     62     1   0.12183 533627.360000
     60    164     1   0.13789 357815.680000
     61     63     1   0.12183 533627.360000
     61    189     1   0.13789 357815.680000
     66     69     1   0.15375 251793.120000
     66     72     1   0.14647 272713.120000
     69     89     1   0.14619 275056.160000
     72     73     1   0.14647 272713.120000
     72     76     1   0.14647 272713.120000
     73     82     1   0.15375 251793.120000
     76     79     1   0.15375 251793.120000
     79     85     1   0.15241 261918.400000
     82     86     1   0.15241 261918.400000
     85     87     1   0.12183 533627.360000
     85    214     1   0.13789 357815.680000
     86     88     1   0.12183 533627.360000
     86    239     1   0.13789 357815.680000
     91     94     1   0.15375 251793.120000
     91     97     1   0.14647 272713.120000
     94    114     1   0.14619 275056.160000
     97     98     1   0.14647 272713.120000
     97    101     1   0.14647 272713.120000
     98    107     1   0.15375 251793.120000
    101    104     1   0.15375 251793.120000
    104    110     1   0.15241 261918.400000
    107    111     1   0.15241 261918.400000
    110    112     1   0.12183 533627.360000
    110    264     1   0.13789 357815.680000
    111    113     1   0.12183 533627.360000
    111    289     1   0.13789 357815.680000
    116    119     1   0.15375 251793.120000
    116    122     1   0.14647 272713.120000
    119    139     1   0.14619 275056.160000
    122    123     1   0.14647 272713.120000
    122    126     1   0.14647 272713.120000
    123    132     1   0.15375 251793.120000
    126    129     1   0.15375 251793.120000
    129    135     1   0.15241 261918.400000
    132    136     1   0.15241 261918.400000
    135    137     1   0.12183 533627.360000
    135    314     1   0.13789 357815.680000
    136    138     1   0.12183 533627.360000
    136    339     1   0.13789 357815.680000
    141    144     1   0.15375 251793.120000
    141    147     1   0.14647 272713.120000
    144    164     1   0.14619 275056.160000
    147    148     1   0.14647 272713.120000
    147    151     1   0.14647 272713.120000
    148    157     1   0.15375 251793.120000
    151    154     1   0.15375 251793.120000
    154    160     1   0.15241 261918.400000
    157    161     1   0.15241 261918.400000
    160    162     1   0.12183 533627.360000
    160    364     1   0.13789 357815.680000
    161    163     1   0.12183 533627.360000
    161    389     1   0.13789 357815.680000
    166    169     1   0.15375 251793.120000
    166    172     1   0.14647 272713.120000
    169    189     1   0.14619 275056.160000
    172    173     1   0.14647 272713.120000
    172    176     1   0.14647 272713.120000
    173    182     1   0.15375 251793.120000
    176    179     1   0.15375 251793.120000
    179    185     1   0.15241 261918.400000
    182    186     1   0.15241 261918.400000
    185    187     1   0.12183 533627.360000
    185    414     1   0.13789 357815.680000
    186    188     1   0.12183 533627.360000
    186    439     1   0.13789 357815.680000
    191    194     1   0.15375 251793.120000
    191    197     1   0.14647 272713.120000
    194    214     1   0.14619 275056.160000
    197    198     1   0.14647 272713.120000
    197    201     1   0.14647 272713.120000
    198    207     1   0.15375 251793.120000
    201    204     1   0.15375 251793.120000
    204    210     1   0.15241 261918.400000
    207    211     1   0.15241 261918.400000
    210    212     1   0.12183 533627.360000
    210    464     1   0.13789 357815.680000
    211    213     1   0.12183 533627.360000
    211    489     1   0.13789 357815.680000
    216    219     1   0.15375 251793.120000
    216    222     1   0.14647 272713.120000
    219    239     1   0.14619 275056.160000
    222    223     1   0.14647 272713.120000
    222    226     1   0.14647 272713.120000
    223    232     1   0.15375 251793.120000
    226    229     1   0.15375 251793.120000
    229    235     1   0.15241 261918.400000
    232    236     1   0.15241 261918.400000
    235    237     1   0.12183 533627.360000
    235    514     1   0.13789 357815.680000
    236    238     1   0.12183 533627.360000
    236    539     1   0.13789 357815.680000
    241    244     1   0.15375 251793.120000
    241    247     1   0.14647 272713.120000
    244    264     1   0.14619 275056.160000
    247    248     1   0.14647 272713.120000
    247    251     1   0.14647 272713.120000
    248    257     1   0.15375 251793.120000
    251    254     1   0.15375 251793.120000
    254    260     1   0.15241 261918.400000
    257    261     1   0.15241 261918.400000
    260    262     1   0.12183 533627.360000
    260    564     1   0.13789 357815.680000
    261    263     1   0.12183 533627.360000
    261    589     1   0.13789 357815.680000
    266    269     1   0.15375 251793.120000
    266    272     1   0.14647 272713.120000
    269    289     1   0.14619 275056.160000
    272    273     1   0.14647 272713.120000
    272    276     1   0.14647 272713.120000
    273    282     1   0.15375 251793.120000
    276    279     1   0.15375 251793.120000
    279    285     1   0.15241 261918.400000
    282    286     1   0.15241 261918.400000
    285    287     1   0.12183 533627.360000
    285    614     1   0.13789 357815.680000
    286    288     1   0.12183 533627.360000
    286    639     1   0.13789 357815.680000
    291    294     1   0.15375 251793.120000
    291    297     1   0.14647 272713.120000
    294    314     1   0.14619 275056.160000
    297    298     1   0.14647 272713.120000
    297    301     1   0.14647 272713.120000
    298    307     1   0.15375 251793.120000
    301    304     1   0.15375 251793.120000
    304    310     1   0.15241 261918.400000
    307    311     1   0.15241 261918.400000
    310    312     1   0.12183 533627.360000
    310    664     1   0.13789 357815.680000
    311    313     1   0.12183 533627.360000
    311    689     1   0.13789 357815.680000
    316    319     1   0.15375 251793.120000
    316    322     1   0.14647 272713.120000
    319    339     1   0.14619 275056.160000
    322    323     1   0.14647 272713.120000
    322    326     1   0.14647 272713.120000
    323    332     1   0.15375 251793.120000
    326    329     1   0.15375 251793.120000
    329    335     1   0.15241 261918.400000
    332    336     1   0.15241 261918.400000
    335    337     1   0.12183 533627.360000
    335    714     1   0.13789 357815.680000
    336    338     1   0.12183 533627.360000
    336    739     1   0.13789 357815.680000
    341    344     1   0.15375 251793.120000
    341    347     1   0.14647 272713.120000
    344    364     1   0.14619 275056.160000
    347    348     1   0.14647 272713.120000
    347    351     1   0.14647 272713.120000
    348    357     1   0.15375 251793.120000
    351    354     1   0.15375 251793.120000
    354    360     1   0.15241 261918.400000
    357    361     1   0.15241 261918.400000
    360    750     1   0.13789 357815.680000
    360    362     1   0.12183 533627.360000
    361    363     1   0.12183 533627.360000
    361    761     1   0.13789 357815.680000
    366    369     1   0.15375 251793.120000
    366    372     1   0.14647 272713.120000
    369    389     1   0.14619 275056.160000
    372    373     1   0.14647 272713.120000
    372    376     1   0.14647 272713.120000
    373    382     1   0.15375 251793.120000
    376    379     1   0.15375 251793.120000
    379    385     1   0.15241 261918.400000
    382    386     1   0.15241 261918.400000
    385    772     1   0.13789 357815.680000
    385    387     1   0.12183 533627.360000
    386    388     1   0.12183 533627.360000
    386    783     1   0.13789 357815.680000
    391    394     1   0.15375 251793.120000
    391    397     1   0.14647 272713.120000
    394    414     1   0.14619 275056.160000
    397    398     1   0.14647 272713.120000
    397    401     1   0.14647 272713.120000
    398    407     1   0.15375 251793.120000
    401    404     1   0.15375 251793.120000
    404    410     1   0.15241 261918.400000
    407    411     1   0.15241 261918.400000
    410    794     1   0.13789 357815.680000
    410    412     1   0.12183 533627.360000
    411    413     1   0.12183 533627.360000
    411    805     1   0.13789 357815.680000
    416    419     1   0.15375 251793.120000
    416    422     1   0.14647 272713.120000
    419    439     1   0.14619 275056.160000
    422    423     1   0.14647 272713.120000
    422    426     1   0.14647 272713.120000
    423    432     1   0.15375 251793.120000
    426    429     1   0.15375 251793.120000
    429    435     1   0.15241 261918.400000
    432    436     1   0.15241 261918.400000
    435    816     1   0.13789 357815.680000
    435    437     1   0.12183 533627.360000
    436    438     1   0.12183 533627.360000
    436    827     1   0.13789 357815.680000
    441    444     1   0.15375 251793.120000
    441    447     1   0.14647 272713.120000
    444    464     1   0.14619 275056.160000
    447    448     1   0.14647 272713.120000
    447    451     1   0.14647 272713.120000
    448    457     1   0.15375 251793.120000
    451    454     1   0.15375 251793.120000
    454    460     1   0.15241 261918.400000
    457    461     1   0.15241 261918.400000
    460    838     1   0.13789 357815.680000
    460    462     1   0.12183 533627.360000
    461    463     1   0.12183 533627.360000
    461    849     1   0.13789 357815.680000
    466    469     1   0.15375 251793.120000
    466    472     1   0.14647 272713.120000
    469    489     1   0.14619 275056.160000
    472    473     1   0.14647 272713.120000
    472    476     1   0.14647 272713.120000
    473    482     1   0.15375 251793.120000
    476    479     1   0.15375 251793.120000
    479    485     1   0.15241 261918.400000
    482    486     1   0.15241 261918.400000
    485    860     1   0.13789 357815.680000
    485    487     1   0.12183 533627.360000
    486    488     1   0.12183 533627.360000
    486    871     1   0.13789 357815.680000
    491    494     1   0.15375 251793.120000
    491    497     1   0.14647 272713.120000
    494    514     1   0.14619 275056.160000
    497    498     1   0.14647 272713.120000
    497    501     1   0.14647 272713.120000
    498    507     1   0.15375 251793.120000
    501    504     1   0.15375 251793.120000
    504    510     1   0.15241 261918.400000
    507    511     1   0.15241 261918.400000
    510    882     1   0.13789 357815.680000
    510    512     1   0.12183 533627.360000
    511    513     1   0.12183 533627.360000
    511    893     1   0.13789 357815.680000
    516    519     1   0.15375 251793.120000
    516    522     1   0.14647 272713.120000
    519    539     1   0.14619 275056.160000
    522    523     1   0.14647 272713.120000
    522    526     1   0.14647 272713.120000
    523    532     1   0.15375 251793.120000
    526    529     1   0.15375 251793.120000
    529    535     1   0.15241 261918.400000
    532    536     1   0.15241 261918.400000
    535    904     1   0.13789 357815.680000
    535    537     1   0.12183 533627.360000
    536    538     1   0.12183 533627.360000
    536    915     1   0.13789 357815.680000
    541    544     1   0.15375 251793.120000
    541    547     1   0.14647 272713.120000
    544    564     1   0.14619 275056.160000
    547    548     1   0.14647 272713.120000
    547    551     1   0.14647 272713.120000
    548    557     1   0.15375 251793.120000
    551    554     1   0.15375 251793.120000
    554    560     1   0.15241 261918.400000
    557    561     1   0.15241 261918.400000
    560    926     1   0.13789 357815.680000
    560    562     1   0.12183 533627.360000
    561    563     1   0.12183 533627.360000
    561    937     1   0.13789 357815.680000
    566    569     1   0.15375 251793.120000
    566    572     1   0.14647 272713.120000
    569    589     1   0.14619 275056.160000
    572    573     1   0.14647 272713.120000
    572    576     1   0.14647 272713.120000
    573    582     1   0.15375 251793.120000
    576    579     1   0.15375 251793.120000
    579    585     1   0.15241 261918.400000
    582    586     1   0.15241 261918.400000
    585    948     1   0.13789 357815.680000
    585    587     1   0.12183 533627.360000
    586    588     1   0.12183 533627.360000
    586    959     1   0.13789 357815.680000
    591    594     1   0.15375 251793.120000
    591    597     1   0.14647 272713.120000
    594    614     1   0.14619 275056.160000
    597    598     1   0.14647 272713.120000
    597    601     1   0.14647 272713.120000
    598    607     1   0.15375 251793.120000
    601    604     1   0.15375 251793.120000
    604    610     1   0.15241 261918.400000
    607    611     1   0.15241 261918.400000
    610    970     1   0.13789 357815.680000
    610    612     1   0.12183 533627.360000
    611    613     1   0.12183 533627.360000
    611    981     1   0.13789 357815.680000
    616    619     1   0.15375 251793.120000
    616    622     1   0.14647 272713.120000
    619    639     1   0.14619 275056.160000
    622    623     1   0.14647 272713.120000
    622    626     1   0.14647 272713.120000
    623    632     1   0.15375 251793.120000
    626    629     1   0.15375 251793.120000
    629    635     1   0.15241 261918.400000
    632    636     1   0.15241 261918.400000
    635    992     1   0.13789 357815.680000
    635    637     1   0.12183 533627.360000
    636    638     1   0.12183 533627.360000
    636   1003     1   0.13789 357815.680000
    641    644     1   0.15375 251793.120000
    641    647     1   0.14647 272713.120000
    644    664     1   0.14619 275056.160000
    647    648     1   0.14647 272713.120000
    647    651     1   0.14647 272713.120000
    648    657     1   0.15375 251793.120000
    651    654     1   0.15375 251793.120000
    654    660     1   0.15241 261918.400000
    657    661     1   0.15241 261918.400000
    660   1014     1   0.13789 357815.680000
    660    662     1   0.12183 533627.360000
    661    663     1   0.12183 533627.360000
    661   1025     1   0.13789 357815.680000
    666    669     1   0.15375 251793.120000
    666    672     1   0.14647 272713.120000
    669    689     1   0.14619 275056.160000
    672    673     1   0.14647 272713.120000
    672    676     1   0.14647 272713.120000
    673    682     1   0.15375 251793.120000
    676    679     1   0.15375 251793.120000
    679    685     1   0.15241 261918.400000
    682    686     1   0.15241 261918.400000
    685   1036     1   0.13789 357815.680000
    685    687     1   0.12183 533627.360000
    686    688     1   0.12183 533627.360000
    686   1047     1   0.13789 357815.680000
    691    694     1   0.15375 251793.120000
    691    697     1   0.14647 272713.120000
    694    714     1   0.14619 275056.160000
    697    698     1   0.14647 272713.120000
    697    701     1   0.14647 272713.120000
    698    707     1   0.15375 251793.120000
    701    704     1   0.15375 251793.120000
    704    710     1   0.15241 261918.400000
    707    711     1   0.15241 261918.400000
    710   1058     1   0.13789 357815.680000
    710    712     1   0.12183 533627.360000
    711    713     1   0.12183 533627.360000
    711   1069     1   0.13789 357815.680000
    716    719     1   0.15375 251793.120000
    716    722     1   0.14647 272713.120000
    719    739     1   0.14619 275056.160000
    722    723     1   0.14647 272713.120000
    722    726     1   0.14647 272713.120000
    723    732     1   0.15375 251793.120000
    726    729     1   0.15375 251793.120000
    729    735     1   0.15241 261918.400000
    732    736     1   0.15241 261918.400000
    735   1080     1   0.13789 357815.680000
    735    737     1   0.12183 533627.360000
    736   1091     1   0.13789 357815.680000
    736    738     1   0.12183 533627.360000
    741    744     1   0.15375 251793.120000
    741    750     1   0.14619 275056.160000
    744    747     1   0.14647 272713.120000
    752    755     1   0.15375 251793.120000
    752    761     1   0.14619 275056.160000
    755    758     1   0.14647 272713.120000
    763    766     1   0.15375 251793.120000
    763    772     1   0.14619 275056.160000
    766    769     1   0.14647 272713.120000
    774    777     1   0.15375 251793.120000
    774    783     1   0.14619 275056.160000
    777    780     1   0.14647 272713.120000
    785    788     1   0.15375 251793.120000
    785    794     1   0.14619 275056.160000
    788    791     1   0.14647 272713.120000
    796    799     1   0.15375 251793.120000
    796    805     1   0.14619 275056.160000
    799    802     1   0.14647 272713.120000
    807    810     1   0.15375 251793.120000
    807    816     1   0.14619 275056.160000
    810    813     1   0.14647 272713.120000
    818    821     1   0.15375 251793.120000
    818    827     1   0.14619 275056.160000
    821    824     1   0.14647 272713.120000
    829    832     1   0.15375 251793.120000
    829    838     1   0.14619 275056.160000
    832    835     1   0.14647 272713.120000
    840    843     1   0.15375 251793.120000
    840    849     1   0.14619 275056.160000
    843    846     1   0.14647 272713.120000
    851    854     1   0.15375 251793.120000
    851    860     1   0.14619 275056.160000
    854    857     1   0.14647 272713.120000
    862    865     1   0.15375 251793.120000
    862    871     1   0.14619 275056.160000
    865    868     1   0.14647 272713.120000
    873    876     1   0.15375 251793.120000
    873    882     1   0.14619 275056.160000
    876    879     1   0.14647 272713.120000
    884    887     1   0.15375 251793.120000
    884    893     1   0.14619 275056.160000
    887    890     1   0.14647 272713.120000
    895    898     1   0.15375 251793.120000
    895    904     1   0.14619 275056.160000
    898    901     1   0.14647 272713.120000
    906    909     1   0.15375 251793.120000
    906    915     1   0.14619 275056.160000
    909    912     1   0.14647 272713.120000
    917    920     1   0.15375 251793.120000
    917    926     1   0.14619 275056.160000
    920    923     1   0.14647 272713.120000
    928    931     1   0.15375 251793.120000
    928    937     1   0.14619 275056.160000
    931    934     1   0.14647 272713.120000
    939    942     1   0.15375 251793.120000
    939    948     1   0.14619 275056.160000
    942    945     1   0.14647 272713.120000
    950    953     1   0.15375 251793.120000
    950    959     1   0.14619 275056.160000
    953    956     1   0.14647 272713.120000
    961    964     1   0.15375 251793.120000
    961    970     1   0.14619 275056.160000
    964    967     1   0.14647 272713.120000
    972    975     1   0.15375 251793.120000
    972    981     1   0.14619 275056.160000
    975    978     1   0.14647 272713.120000
    983    986     1   0.15375 251793.120000
    983    992     1   0.14619 275056.160000
    986    989     1   0.14647 272713.120000
    994    997     1   0.15375 251793.120000
    994   1003     1   0.14619 275056.160000
    997   1000     1   0.14647 272713.120000
   1005   1008     1   0.15375 251793.120000
   1005   1014     1   0.14619 275056.160000
   1008   1011     1   0.14647 272713.120000
   1016   1019     1   0.15375 251793.120000
   1016   1025     1   0.14619 275056.160000
   1019   1022     1   0.14647 272713.120000
   1027   1030     1   0.15375 251793.120000
   1027   1036     1   0.14619 275056.160000
   1030   1033     1   0.14647 272713.120000
   1038   1041     1   0.15375 251793.120000
   1038   1047     1   0.14619 275056.160000
   1041   1044     1   0.14647 272713.120000
   1049   1052     1   0.15375 251793.120000
   1049   1058     1   0.14619 275056.160000
   1052   1055     1   0.14647 272713.120000
   1060   1063     1   0.15375 251793.120000
   1060   1069     1   0.14619 275056.160000
   1063   1066     1   0.14647 272713.120000
   1071   1074     1   0.15375 251793.120000
   1071   1080     1   0.14619 275056.160000
   1074   1077     1   0.14647 272713.120000
   1082   1085     1   0.15375 251793.120000
   1082   1091     1   0.14619 275056.160000
   1085   1088     1   0.14647 272713.120000
      1      2     1   0.10969 276646.080000
      1      3     1   0.10969 276646.080000
      4      5     1   0.10969 276646.080000
      4      6     1   0.10969 276646.080000
      9     10     1   0.10969 276646.080000
      9     11     1   0.10969 276646.080000
     12     13     1   0.10969 276646.080000
     12     14     1   0.10969 276646.080000
     15     16     1   0.10969 276646.080000
     15     17     1   0.10969 276646.080000
     18     19     1   0.10969 276646.080000
     18     20     1   0.10969 276646.080000
     21     22     1   0.10969 276646.080000
     21     23     1   0.10969 276646.080000
     24     25     1   0.10969 276646.080000
     24     26     1   0.10969 276646.080000
     27     28     1   0.10969 276646.080000
     27     29     1   0.10969 276646.080000
     30     31     1   0.10969 276646.080000
     30     32     1   0.10969 276646.080000
     41     42     1   0.10969 276646.080000
     41     43     1   0.10969 276646.080000
     44     45     1   0.10969 276646.080000
     44     46     1   0.10969 276646.080000
     48     49     1   0.10969 276646.080000
     48     50     1   0.10969 276646.080000
     51     52     1   0.10969 276646.080000
     51     53     1   0.10969 276646.080000
     54     55     1   0.10969 276646.080000
     54     56     1   0.10969 276646.080000
     57     58     1   0.10969 276646.080000
     57     59     1   0.10969 276646.080000
     64     65     1   0.10129 337397.760000
     66     67     1   0.10969 276646.080000
     66     68     1   0.10969 276646.080000
     69     70     1   0.10969 276646.080000
     69     71     1   0.10969 276646.080000
     73     74     1   0.10969 276646.080000
     73     75     1   0.10969 276646.080000
     76     77     1   0.10969 276646.080000
     76     78     1   0.10969 276646.080000
     79     80     1   0.10969 276646.080000
     79     81     1   0.10969 276646.080000
     82     83     1   0.10969 276646.080000
     82     84     1   0.10969 276646.080000
     89     90     1   0.10129 337397.760000
     91     92     1   0.10969 276646.080000
     91     93     1   0.10969 276646.080000
     94     95     1   0.10969 276646.080000
     94     96     1   0.10969 276646.080000
     98     99     1   0.10969 276646.080000
     98    100     1   0.10969 276646.080000
    101    102     1   0.10969 276646.080000
    101    103     1   0.10969 276646.080000
    104    105     1   0.10969 276646.080000
    104    106     1   0.10969 276646.080000
    107    108     1   0.10969 276646.080000
    107    109     1   0.10969 276646.080000
    114    115     1   0.10129 337397.760000
    116    117     1   0.10969 276646.080000
    116    118     1   0.10969 276646.080000
    119    120     1   0.10969 276646.080000
    119    121     1   0.10969 276646.080000
    123    124     1   0.10969 276646.080000
    123    125     1   0.10969 276646.080000
    126    127     1   0.10969 276646.080000
    126    128     1   0.10969 276646.080000
    129    130     1   0.10969 276646.080000
    129    131     1   0.10969 276646.080000
    132    133     1   0.10969 276646.080000
    132    134     1   0.10969 276646.080000
    139    140     1   0.10129 337397.760000
    141    142     1   0.10969 276646.080000
    141    143     1   0.10969 276646.080000
    144    145     1   0.10969 276646.080000
    144    146     1   0.10969 276646.080000
    148    149     1   0.10969 276646.080000
    148    150     1   0.10969 276646.080000
    151    152     1   0.10969 276646.080000
    151    153     1   0.10969 276646.080000
    154    155     1   0.10969 276646.080000
    154    156     1   0.10969 276646.080000
    157    158     1   0.10969 276646.080000
    157    159     1   0.10969 276646.080000
    164    165     1   0.10129 337397.760000
    166    167     1   0.10969 276646.080000
    166    168     1   0.10969 276646.080000
    169    170     1   0.10969 276646.080000
    169    171     1   0.10969 276646.080000
    173    174     1   0.10969 276646.080000
    173    175     1   0.10969 276646.080000
    176    177     1   0.10969 276646.080000
    176    178     1   0.10969 276646.080000
    179    180     1   0.10969 276646.080000
    179    181     1   0.10969 276646.080000
    182    183     1   0.10969 276646.080000
    182    184     1   0.10969 276646.080000
    189    190     1   0.10129 337397.760000
    191    192     1   0.10969 276646.080000
    191    193     1   0.10969 276646.080000
    194    195     1   0.10969 276646.080000
    194    196     1   0.10969 276646.080000
    198    199     1   0.10969 276646.080000
    198    200     1   0.10969 276646.080000
    201    202     1   0.10969 276646.080000
    201    203     1   0.10969 276646.080000
    204    205     1   0.10969 276646.080000
    204    206     1   0.10969 276646.080000
    207    208     1   0.10969 276646.080000
    207    209     1   0.10969 276646.080000
    214    215     1   0.10129 337397.760000
    216    217     1   0.10969 276646.080000
    216    218     1   0.10969 276646.080000
    219    220     1   0.10969 276646.080000
    219    221     1   0.10969 276646.080000
    223    224     1   0.10969 276646.080000
    223    225     1   0.10969 276646.080000
    226    227     1   0.10969 276646.080000
    226    228     1   0.10969 276646.080000
    229    230     1   0.10969 276646.080000
    229    231     1   0.10969 276646.080000
    232    233     1   0.10969 276646.080000
    232    234     1   0.10969 276646.080000
    239    240     1   0.10129 337397.760000
    241    242     1   0.10969 276646.080000
    241    243     1   0.10969 276646.080000
    244    245     1   0.10969 276646.080000
    244    246     1   0.10969 276646.080000
    248    249     1   0.10969 276646.080000
    248    250     1   0.10969 276646.080000
    251    252     1   0.10969 276646.080000
    251    253     1   0.10969 276646.080000
    254    255     1   0.10969 276646.080000
    254    256     1   0.10969 276646.080000
    257    258     1   0.10969 276646.080000
    257    259     1   0.10969 276646.080000
    264    265     1   0.10129 337397.760000
    266    267     1   0.10969 276646.080000
    266    268     1   0.10969 276646.080000
    269    270     1   0.10969 276646.080000
    269    271     1   0.10969 276646.080000
    273    274     1   0.10969 276646.080000
    273    275     1   0.10969 276646.080000
    276    277     1   0.10969 276646.080000
    276    278     1   0.10969 276646.080000
    279    280     1   0.10969 276646.080000
    279    281     1   0.10969 276646.080000
    282    283     1   0.10969 276646.080000
    282    284     1   0.10969 276646.080000
    289    290     1   0.10129 337397.760000
    291    292     1   0.10969 276646.080000
    291    293     1   0.10969 276646.080000
    294    295     1   0.10969 276646.080000
    294    296     1   0.10969 276646.080000
    298    299     1   0.10969 276646.080000
    298    300     1   0.10969 276646.080000
    301    302     1   0.10969 276646.080000
    301    303     1   0.10969 276646.080000
    304    305     1   0.10969 276646.080000
    304    306     1   0.10969 276646.080000
    307    308     1   0.10969 276646.080000
    307    309     1   0.10969 276646.080000
    314    315     1   0.10129 337397.760000
    316    317     1   0.10969 276646.080000
    316    318     1   0.10969 276646.080000
    319    320     1   0.10969 276646.080000
    319    321     1   0.10969 276646.080000
    323    324     1   0.10969 276646.080000
    323    325     1   0.10969 276646.080000
    326    327     1   0.10969 276646.080000
    326    328     1   0.10969 276646.080000
    329    330     1   0.10969 276646.080000
    329    331     1   0.10969 276646.080000
    332    333     1   0.10969 276646.080000
    332    334     1   0.10969 276646.080000
    339    340     1   0.10129 337397.760000
    341    342     1   0.10969 276646.080000
    341    343     1   0.10969 276646.080000
    344    345     1   0.10969 276646.080000
    344    346     1   0.10969 276646.080000
    348    349     1   0.10969 276646.080000
    348    350     1   0.10969 276646.080000
    351    352     1   0.10969 276646.080000
    351    353     1   0.10969 276646.080000
    354    355     1   0.10969 276646.080000
    354    356     1   0.10969 276646.080000
    357    358     1   0.10969 276646.080000
    357    359     1   0.10969 276646.080000
    364    365     1   0.10129 337397.760000
    366    367     1   0.10969 276646.080000
    366    368     1   0.10969 276646.080000
    369    370     1   0.10969 276646.080000
    369    371     1   0.10969 276646.080000
    373    374     1   0.10969 276646.080000
    373    375     1   0.10969 276646.080000
    376    377     1   0.10969 276646.080000
    376    378     1   0.10969 276646.080000
    379    380     1   0.10969 276646.080000
    379    381     1   0.10969 276646.080000
    382    383     1   0.10969 276646.080000
    382    384     1   0.10969 276646.080000
    389    390     1   0.10129 337397.760000
    391    392     1   0.10969 276646.080000
    391    393     1   0.10969 276646.080000
    394    395     1   0.10969 276646.080000
    394    396     1   0.10969 276646.080000
    398    399     1   0.10969 276646.080000
    398    400     1   0.10969 276646.080000
    401    402     1   0.10969 276646.080000
    401    403     1   0.10969 276646.080000
    404    405     1   0.10969 276646.080000
    404    406     1   0.10969 276646.080000
    407    408     1   0.10969 276646.080000
    407    409     1   0.10969 276646.080000
    414    415     1   0.10129 337397.760000
    416    417     1   0.10969 276646.080000
    416    418     1   0.10969 276646.080000
    419    420     1   0.10969 276646.080000
    419    421     1   0.10969 276646.080000
    423    424     1   0.10969 276646.080000
    423    425     1   0.10969 276646.080000
    426    427     1   0.10969 276646.080000
    426    428     1   0.10969 276646.080000
    429    430     1   0.10969 276646.080000
    429    431     1   0.10969 276646.080000
    432    433     1   0.10969 276646.080000
    432    434     1   0.10969 276646.080000
    439    440     1   0.10129 337397.760000
    441    442     1   0.10969 276646.080000
    441    443     1   0.10969 276646.080000
    444    445     1   0.10969 276646.080000
    444    446     1   0.10969 276646.080000
    448    449     1   0.10969 276646.080000
    448    450     1   0.10969 276646.080000
    451    452     1   0.10969 276646.080000
    451    453     1   0.10969 276646.080000
    454    455     1   0.10969 276646.080000
    454    456     1   0.10969 276646.080000
    457    458     1   0.10969 276646.080000
    457    459     1   0.10969 276646.080000
    464    465     1   0.10129 337397.760000
    466    467     1   0.10969 276646.080000
    466    468     1   0.10969 276646.080000
    469    470     1   0.10969 276646.080000
    469    471     1   0.10969 276646.080000
    473    474     1   0.10969 276646.080000
    473    475     1   0.10969 276646.080000
    476    477     1   0.10969 276646.080000
    476    478     1   0.10969 276646.080000
    479    480     1   0.10969 276646.080000
    479    481     1   0.10969 276646.080000
    482    483     1   0.10969 276646.080000
    482    484     1   0.10969 276646.080000
    489    490     1   0.10129 337397.760000
    491    492     1   0.10969 276646.080000
    491    493     1   0.10969 276646.080000
    494    495     1   0.10969 276646.080000
    494    496     1   0.10969 276646.080000
    498    499     1   0.10969 276646.080000
    498    500     1   0.10969 276646.080000
    501    502     1   0.10969 276646.080000
    501    503     1   0.10969 276646.080000
    504    505     1   0.10969 276646.080000
    504    506     1   0.10969 276646.080000
    507    508     1   0.10969 276646.080000
    507    509     1   0.10969 276646.080000
    514    515     1   0.10129 337397.760000
    516    517     1   0.10969 276646.080000
    516    518     1   0.10969 276646.080000
    519    520     1   0.10969 276646.080000
    519    521     1   0.10969 276646.080000
    523    524     1   0.10969 276646.080000
    523    525     1   0.10969 276646.080000
    526    527     1   0.10969 276646.080000
    526    528     1   0.10969 276646.080000
    529    530     1   0.10969 276646.080000
    529    531     1   0.10969 276646.080000
    532    533     1   0.10969 276646.080000
    532    534     1   0.10969 276646.080000
    539    540     1   0.10129 337397.760000
    541    542     1   0.10969 276646.080000
    541    543     1   0.10969 276646.080000
    544    545     1   0.10969 276646.080000
    544    546     1   0.10969 276646.080000
    548    549     1   0.10969 276646.080000
    548    550     1   0.10969 276646.080000
    551    552     1   0.10969 276646.080000
    551    553     1   0.10969 276646.080000
    554    555     1   0.10969 276646.080000
    554    556     1   0.10969 276646.080000
    557    558     1   0.10969 276646.080000
    557    559     1   0.10969 276646.080000
    564    565     1   0.10129 337397.760000
    566    567     1   0.10969 276646.080000
    566    568     1   0.10969 276646.080000
    569    570     1   0.10969 276646.080000
    569    571     1   0.10969 276646.080000
    573    574     1   0.10969 276646.080000
    573    575     1   0.10969 276646.080000
    576    577     1   0.10969 276646.080000
    576    578     1   0.10969 276646.080000
    579    580     1   0.10969 276646.080000
    579    581     1   0.10969 276646.080000
    582    583     1   0.10969 276646.080000
    582    584     1   0.10969 276646.080000
    589    590     1   0.10129 337397.760000
    591    592     1   0.10969 276646.080000
    591    593     1   0.10969 276646.080000
    594    595     1   0.10969 276646.080000
    594    596     1   0.10969 276646.080000
    598    599     1   0.10969 276646.080000
    598    600     1   0.10969 276646.080000
    601    602     1   0.10969 276646.080000
    601    603     1   0.10969 276646.080000
    604    605     1   0.10969 276646.080000
    604    606     1   0.10969 276646.080000
    607    608     1   0.10969 276646.080000
    607    609     1   0.10969 276646.080000
    614    615     1   0.10129 337397.760000
    616    617     1   0.10969 276646.080000
    616    618     1   0.10969 276646.080000
    619    620     1   0.10969 276646.080000
    619    621     1   0.10969 276646.080000
    623    624     1   0.10969 276646.080000
    623    625     1   0.10969 276646.080000
    626    627     1   0.10969 276646.080000
    626    628     1   0.10969 276646.080000
    629    630     1   0.10969 276646.080000
    629    631     1   0.10969 276646.080000
    632    633     1   0.10969 276646.080000
    632    634     1   0.10969 276646.080000
    639    640     1   0.10129 337397.760000
    641    642     1   0.10969 276646.080000
    641    643     1   0.10969 276646.080000
    644    645     1   0.10969 276646.080000
    644    646     1   0.10969 276646.080000
    648    649     1   0.10969 276646.080000
    648    650     1   0.10969 276646.080000
    651    652     1   0.10969 276646.080000
    651    653     1   0.10969 276646.080000
    654    655     1   0.10969 276646.080000
    654    656     1   0.10969 276646.080000
    657    658     1   0.10969 276646.080000
    657    659     1   0.10969 276646.080000
    664    665     1   0.10129 337397.760000
    666    667     1   0.10969 276646.080000
    666    668     1   0.10969 276646.080000
    669    670     1   0.10969 276646.080000
    669    671     1   0.10969 276646.080000
    673    674     1   0.10969 276646.080000
    673    675     1   0.10969 276646.080000
    676    677     1   0.10969 276646.080000
    676    678     1   0.10969 276646.080000
    679    680     1   0.10969 276646.080000
    679    681     1   0.10969 276646.080000
    682    683     1   0.10969 276646.080000
    682    684     1   0.10969 276646.080000
    689    690     1   0.10129 337397.760000
    691    692     1   0.10969 276646.080000
    691    693     1   0.10969 276646.080000
    694    695     1   0.10969 276646.080000
    694    696     1   0.10969 276646.080000
    698    699     1   0.10969 276646.080000
    698    700     1   0.10969 276646.080000
    701    702     1   0.10969 276646.080000
    701    703     1   0.10969 276646.080000
    704    705     1   0.10969 276646.080000
    704    706     1   0.10969 276646.080000
    707    708     1   0.10969 276646.080000
    707    709     1   0.10969 276646.080000
    714    715     1   0.10129 337397.760000
    716    717     1   0.10969 276646.080000
    716    718     1   0.10969 276646.080000
    719    720     1   0.10969 276646.080000
    719    721     1   0.10969 276646.080000
    723    724     1   0.10969 276646.080000
    723    725     1   0.10969 276646.080000
    726    727     1   0.10969 276646.080000
    726    728     1   0.10969 276646.080000
    729    730     1   0.10969 276646.080000
    729    731     1   0.10969 276646.080000
    732    733     1   0.10969 276646.080000
    732    734     1   0.10969 276646.080000
    739    740     1   0.10129 337397.760000
    741    742     1   0.10969 276646.080000
    741    743     1   0.10969 276646.080000
    744    745     1   0.10969 276646.080000
    744    746     1   0.10969 276646.080000
    747    748     1   0.10190 328360.320000
    747    749     1   0.10190 328360.320000
    750    751     1   0.10129 337397.760000
    752    753     1   0.10969 276646.080000
    752    754     1   0.10969 276646.080000
    755    756     1   0.10969 276646.080000
    755    757     1   0.10969 276646.080000
    758    759     1   0.10190 328360.320000
    758    760     1   0.10190 328360.320000
    761    762     1   0.10129 337397.760000
    763    764     1   0.10969 276646.080000
    763    765     1   0.10969 276646.080000
    766    767     1   0.10969 276646.080000
    766    768     1   0.10969 276646.080000
    769    770     1   0.10190 328360.320000
    769    771     1   0.10190 328360.320000
    772    773     1   0.10129 337397.760000
    774    775     1   0.10969 276646.080000
    774    776     1   0.10969 276646.080000
    777    778     1   0.10969 276646.080000
    777    779     1   0.10969 276646.080000
    780    781     1   0.10190 328360.320000
    780    782     1   0.10190 328360.320000
    783    784     1   0.10129 337397.760000
    785    786     1   0.10969 276646.080000
    785    787     1   0.10969 276646.080000
    788    789     1   0.10969 276646.080000
    788    790     1   0.10969 276646.080000
    791    792     1   0.10190 328360.320000
    791    793     1   0.10190 328360.320000
    794    795     1   0.10129 337397.760000
    796    797     1   0.10969 276646.080000
    796    798     1   0.10969 276646.080000
    799    800     1   0.10969 276646.080000
    799    801     1   0.10969 276646.080000
    802    803     1   0.10190 328360.320000
    802    804     1   0.10190 328360.320000
    805    806     1   0.10129 337397.760000
    807    808     1   0.10969 276646.080000
    807    809     1   0.10969 276646.080000
    810    811     1   0.10969 276646.080000
    810    812     1   0.10969 276646.080000
    813    814     1   0.10190 328360.320000
    813    815     1   0.10190 328360.320000
    816    817     1   0.10129 337397.760000
    818    819     1   0.10969 276646.080000
    818    820     1   0.10969 276646.080000
    821    822     1   0.10969 276646.080000
    821    823     1   0.10969 276646.080000
    824    825     1   0.10190 328360.320000
    824    826     1   0.10190 328360.320000
    827    828     1   0.10129 337397.760000
    829    830     1   0.10969 276646.080000
    829    831     1   0.10969 276646.080000
    832    833     1   0.10969 276646.080000
    832    834     1   0.10969 276646.080000
    835    836     1   0.10190 328360.320000
    835    837     1   0.10190 328360.320000
    838    839     1   0.10129 337397.760000
    840    841     1   0.10969 276646.080000
    840    842     1   0.10969 276646.080000
    843    844     1   0.10969 276646.080000
    843    845     1   0.10969 276646.080000
    846    847     1   0.10190 328360.320000
    846    848     1   0.10190 328360.320000
    849    850     1   0.10129 337397.760000
    851    852     1   0.10969 276646.080000
    851    853     1   0.10969 276646.080000
    854    855     1   0.10969 276646.080000
    854    856     1   0.10969 276646.080000
    857    858     1   0.10190 328360.320000
    857    859     1   0.10190 328360.320000
    860    861     1   0.10129 337397.760000
    862    863     1   0.10969 276646.080000
    862    864     1   0.10969 276646.080000
    865    866     1   0.10969 276646.080000
    865    867     1   0.10969 276646.080000
    868    869     1   0.10190 328360.320000
    868    870     1   0.10190 328360.320000
    871    872     1   0.10129 337397.760000
    873    874     1   0.10969 276646.080000
    873    875     1   0.10969 276646.080000
    876    877     1   0.10969 276646.080000
    876    878     1   0.10969 276646.080000
    879    880     1   0.10190 328360.320000
    879    881     1   0.10190 328360.320000
    882    883     1   0.10129 337397.760000
    884    885     1   0.10969 276646.080000
    884    886     1   0.10969 276646.080000
    887    888     1   0.10969 276646.080000
    887    889     1   0.10969 276646.080000
    890    891     1   0.10190 328360.320000
    890    892     1   0.10190 328360.320000
    893    894     1   0.10129 337397.760000
    895    896     1   0.10969 276646.080000
    895    897     1   0.10969 276646.080000
    898    899     1   0.10969 276646.080000
    898    900     1   0.10969 276646.080000
    901    902     1   0.10190 328360.320000
    901    903     1   0.10190 328360.320000
    904    905     1   0.10129 337397.760000
    906    907     1   0.10969 276646.080000
    906    908     1   0.10969 276646.080000
    909    910     1   0.10969 276646.080000
    909    911     1   0.10969 276646.080000
    912    913     1   0.10190 328360.320000
    912    914     1   0.10190 328360.320000
    915    916     1   0.10129 337397.760000
    917    918     1   0.10969 276646.080000
    917    919     1   0.10969 276646.080000
    920    921     1   0.10969 276646.080000
    920    922     1   0.10969 276646.080000
    923    924     1   0.10190 328360.320000
    923    925     1   0.10190 328360.320000
    926    927     1   0.10129 337397.760000
    928    929     1   0.10969 276646.080000
    928    930     1   0.10969 276646.080000
    931    932     1   0.10969 276646.080000
    931    933     1   0.10969 276646.080000
    934    935     1   0.10190 328360.320000
    934    936     1   0.10190 328360.320000
    937    938     1   0.10129 337397.760000
    939    940     1   0.10969 276646.080000
    939    941     1   0.10969 276646.080000
    942    943     1   0.10969 276646.080000
    942    944     1   0.10969 276646.080000
    945    946     1   0.10190 328360.320000
    945    947     1   0.10190 328360.320000
    948    949     1   0.10129 337397.760000
    950    951     1   0.10969 276646.080000
    950    952     1   0.10969 276646.080000
    953    954     1   0.10969 276646.080000
    953    955     1   0.10969 276646.080000
    956    957     1   0.10190 328360.320000
    956    958     1   0.10190 328360.320000
    959    960     1   0.10129 337397.760000
    961    962     1   0.10969 276646.080000
    961    963     1   0.10969 276646.080000
    964    965     1   0.10969 276646.080000
    964    966     1   0.10969 276646.080000
    967    968     1   0.10190 328360.320000
    967    969     1   0.10190 328360.320000
    970    971     1   0.10129 337397.760000
    972    973     1   0.10969 276646.080000
    972    974     1   0.10969 276646.080000
    975    976     1   0.10969 276646.080000
    975    977     1   0.10969 276646.080000
    978    979     1   0.10190 328360.320000
    978    980     1   0.10190 328360.320000
    981    982     1   0.10129 337397.760000
    983    984     1   0.10969 276646.080000
    983    985     1   0.10969 276646.080000
    986    987     1   0.10969 276646.080000
    986    988     1   0.10969 276646.080000
    989    990     1   0.10190 328360.320000
    989    991     1   0.10190 328360.320000
    992    993     1   0.10129 337397.760000
    994    995     1   0.10969 276646.080000
    994    996     1   0.10969 276646.080000
    997    998     1   0.10969 276646.080000
    997    999     1   0.10969 276646.080000
   1000   1001     1   0.10190 328360.320000
   1000   1002     1   0.10190 328360.320000
   1003   1004     1   0.10129 337397.760000
   1005   1006     1   0.10969 276646.080000
   1005   1007     1   0.10969 276646.080000
   1008   1009     1   0.10969 276646.080000
   1008   1010     1   0.10969 276646.080000
   1011   1012     1   0.10190 328360.320000
   1011   1013     1   0.10190 328360.320000
   1014   1015     1   0.10129 337397.760000
   1016   1017     1   0.10969 276646.080000
   1016   1018     1   0.10969 276646.080000
   1019   1020     1   0.10969 276646.080000
   1019   1021     1   0.10969 276646.080000
   1022   1023     1   0.10190 328360.320000
   1022   1024     1   0.10190 328360.320000
   1025   1026     1   0.10129 337397.760000
   1027   1028     1   0.10969 276646.080000
   1027   1029     1   0.10969 276646.080000
   1030   1031     1   0.10969 276646.080000
   1030   1032     1   0.10969 276646.080000
   1033   1034     1   0.10190 328360.320000
   1033   1035     1   0.10190 328360.320000
   1036   1037     1   0.10129 337397.760000
   1038   1039     1   0.10969 276646.080000
   1038   1040     1   0.10969 276646.080000
   1041   1042     1   0.10969 276646.080000
   1041   1043     1   0.10969 276646.080000
   1044   1045     1   0.10190 328360.320000
   1044   1046     1   0.10190 328360.320000
   1047   1048     1   0.10129 337397.760000
   1049   1050     1   0.10969 276646.080000
   1049   1051     1   0.10969 276646.080000
   1052   1053     1   0.10969 276646.080000
   1052   1054     1   0.10969 276646.080000
   1055   1056     1   0.10190 328360.320000
   1055   1057     1   0.10190 328360.320000
   1058   1059     1   0.10129 337397.760000
   1060   1061     1   0.10969 276646.080000
   1060   1062     1   0.10969 276646.080000
   1063   1064     1   0.10969 276646.080000
   1063   1065     1   0.10969 276646.080000
   1066   1067     1   0.10190 328360.320000
   1066   1068     1   0.10190 328360.320000
   1069   1070     1   0.10129 337397.760000
   1071   1072     1   0.10969 276646.080000
   1071   1073     1   0.10969 276646.080000
   1074   1075     1   0.10969 276646.080000
   1074   1076     1   0.10969 276646.080000
   1077   1078     1   0.10190 328360.320000
   1077   1079     1   0.10190 328360.320000
   1080   1081     1   0.10129 337397.760000
   1082   1083     1   0.10969 276646.080000
   1082   1084     1   0.10969 276646.080000
   1085   1086     1   0.10969 276646.080000
   1085   1087     1   0.10969 276646.080000
   1088   1089     1   0.10190 328360.320000
   1088   1090     1   0.10190 328360.320000
   1091   1092     1   0.10129 337397.760000

[ pairs ]
;    ai     aj funct         c0         c1         c2         c3
      1     15     1
      1     18     1
      1     30     1
      1     27     1
      4      9     1
      4     12     1
      4     21     1
      4     24     1
      8      7     1
      7     35     1
      7     36     1
      8     34     1
      8     33     1
      9     27     1
      9     40     1
      9     89     1
     12     30     1
     12     37     1
     12     64     1
     15     24     1
     15     38     1
     15    114     1
     18     21     1
     18     39     1
     18    139     1
     21     94     1
     24    119     1
     27     44     1
     30     69     1
     33     41     1
     34     66     1
     35     91     1
     36    116     1
     37     44     1
     38     94     1
     39    119     1
     40     69     1
     41     57     1
     41     54     1
     44     48     1
     44     51     1
     47     64     1
     47     61     1
     47     60     1
     48     54     1
     48     63     1
     48    189     1
     51     57     1
     51     62     1
     51    164     1
     54    144     1
     57    169     1
     60    141     1
     61    166     1
     62    144     1
     63    169     1
     66     82     1
     66     79     1
     69     73     1
     69     76     1
     72     89     1
     72     86     1
     72     85     1
     73     79     1
     73     88     1
     73    239     1
     76     82     1
     76     87     1
     76    214     1
     79    194     1
     82    219     1
     85    191     1
     86    216     1
     87    194     1
     88    219     1
     91    107     1
     91    104     1
     94     98     1
     94    101     1
     97    114     1
     97    111     1
     97    110     1
     98    104     1
     98    113     1
     98    289     1
    101    107     1
    101    112     1
    101    264     1
    104    244     1
    107    269     1
    110    241     1
    111    266     1
    112    244     1
    113    269     1
    116    132     1
    116    129     1
    119    123     1
    119    126     1
    122    139     1
    122    136     1
    122    135     1
    123    129     1
    123    138     1
    123    339     1
    126    132     1
    126    137     1
    126    314     1
    129    294     1
    132    319     1
    135    291     1
    136    316     1
    137    294     1
    138    319     1
    141    157     1
    141    154     1
    144    148     1
    144    151     1
    147    164     1
    147    161     1
    147    160     1
    148    154     1
    148    163     1
    148    389     1
    151    157     1
    151    162     1
    151    364     1
    154    344     1
    157    369     1
    160    341     1
    161    366     1
    162    344     1
    163    369     1
    166    182     1
    166    179     1
    169    173     1
    169    176     1
    172    189     1
    172    186     1
    172    185     1
    173    179     1
    173    188     1
    173    439     1
    176    182     1
    176    187     1
    176    414     1
    179    394     1
    182    419     1
    185    391     1
    186    416     1
    187    394     1
    188    419     1
    191    207     1
    191    204     1
    194    198     1
    194    201     1
    197    214     1
    197    211     1
    197    210     1
    198    204     1
    198    213     1
    198    489     1
    201    207     1
    201    212     1
    201    464     1
    204    444     1
    207    469     1
    210    441     1
    211    466     1
    212    444     1
    213    469     1
    216    232     1
    216    229     1
    219    223     1
    219    226     1
    222    239     1
    222    236     1
    222    235     1
    223    229     1
    223    238     1
    223    539     1
    226    232     1
    226    237     1
    226    514     1
    229    494     1
    232    519     1
    235    491     1
    236    516     1
    237    494     1
    238    519     1
    241    257     1
    241    254     1
    244    248     1
    244    251     1
    247    264     1
    247    261     1
    247    260     1
    248    254     1
    248    263     1
    248    589     1
    251    257     1
    251    262     1
    251    564     1
    254    544     1
    257    569     1
    260    541     1
    261    566     1
    262    544     1
    263    569     1
    266    282     1
    266    279     1
    269    273     1
    269    276     1
    272    289     1
    272    286     1
    272    285     1
    273    279     1
    273    288     1
    273    639     1
    276    282     1
    276    287     1
    276    614     1
    279    594     1
    282    619     1
    285    591     1
    286    616     1
    287    594     1
    288    619     1
    291    307     1
    291    304     1
    294    298     1
    294    301     1
    297    314     1
    297    311     1
    297    310     1
    298    304     1
    298    313     1
    298    689     1
    301    307     1
    301    312     1
    301    664     1
    304    644     1
    307    669     1
    310    641     1
    311    666     1
    312    644     1
    313    669     1
    316    332     1
    316    329     1
    319    323     1
    319    326     1
    322    339     1
    322    336     1
    322    335     1
    323    329     1
    323    338     1
    323    739     1
    326    332     1
    326    337     1
    326    714     1
    329    694     1
    332    719     1
    335    691     1
    336    716     1
    337    694     1
    338    719     1
    341    357     1
    341    354     1
    344    348     1
    344    351     1
    347    364     1
    347    361     1
    347    360     1
    348    354     1
    348    363     1
    348    761     1
    351    357     1
    351    750     1
    351    362     1
    354    741     1
    357    752     1
    360    744     1
    361    755     1
    362    741     1
    363    752     1
    366    382     1
    366    379     1
    369    373     1
    369    376     1
    372    389     1
    372    386     1
    372    385     1
    373    379     1
    373    388     1
    373    783     1
    376    382     1
    376    772     1
    376    387     1
    379    763     1
    382    774     1
    385    766     1
    386    777     1
    387    763     1
    388    774     1
    391    407     1
    391    404     1
    394    398     1
    394    401     1
    397    414     1
    397    411     1
    397    410     1
    398    404     1
    398    413     1
    398    805     1
    401    407     1
    401    794     1
    401    412     1
    404    785     1
    407    796     1
    410    788     1
    411    799     1
    412    785     1
    413    796     1
    416    432     1
    416    429     1
    419    423     1
    419    426     1
    422    439     1
    422    436     1
    422    435     1
    423    429     1
    423    438     1
    423    827     1
    426    432     1
    426    816     1
    426    437     1
    429    807     1
    432    818     1
    435    810     1
    436    821     1
    437    807     1
    438    818     1
    441    457     1
    441    454     1
    444    448     1
    444    451     1
    447    464     1
    447    461     1
    447    460     1
    448    454     1
    448    463     1
    448    849     1
    451    457     1
    451    838     1
    451    462     1
    454    829     1
    457    840     1
    460    832     1
    461    843     1
    462    829     1
    463    840     1
    466    482     1
    466    479     1
    469    473     1
    469    476     1
    472    489     1
    472    486     1
    472    485     1
    473    479     1
    473    488     1
    473    871     1
    476    482     1
    476    860     1
    476    487     1
    479    851     1
    482    862     1
    485    854     1
    486    865     1
    487    851     1
    488    862     1
    491    507     1
    491    504     1
    494    498     1
    494    501     1
    497    514     1
    497    511     1
    497    510     1
    498    504     1
    498    513     1
    498    893     1
    501    507     1
    501    882     1
    501    512     1
    504    873     1
    507    884     1
    510    876     1
    511    887     1
    512    873     1
    513    884     1
    516    532     1
    516    529     1
    519    523     1
    519    526     1
    522    539     1
    522    536     1
    522    535     1
    523    529     1
    523    538     1
    523    915     1
    526    532     1
    526    904     1
    526    537     1
    529    895     1
    532    906     1
    535    898     1
    536    909     1
    537    895     1
    538    906     1
    541    557     1
    541    554     1
    544    548     1
    544    551     1
    547    564     1
    547    561     1
    547    560     1
    548    554     1
    548    563     1
    548    937     1
    551    557     1
    551    926     1
    551    562     1
    554    917     1
    557    928     1
    560    920     1
    561    931     1
    562    917     1
    563    928     1
    566    582     1
    566    579     1
    569    573     1
    569    576     1
    572    589     1
    572    586     1
    572    585     1
    573    579     1
    573    588     1
    573    959     1
    576    582     1
    576    948     1
    576    587     1
    579    939     1
    582    950     1
    585    942     1
    586    953     1
    587    939     1
    588    950     1
    591    607     1
    591    604     1
    594    598     1
    594    601     1
    597    614     1
    597    611     1
    597    610     1
    598    604     1
    598    613     1
    598    981     1
    601    607     1
    601    970     1
    601    612     1
    604    961     1
    607    972     1
    610    964     1
    611    975     1
    612    961     1
    613    972     1
    616    632     1
    616    629     1
    619    623     1
    619    626     1
    622    639     1
    622    636     1
    622    635     1
    623    629     1
    623    638     1
    623   1003     1
    626    632     1
    626    992     1
    626    637     1
    629    983     1
    632    994     1
    635    986     1
    636    997     1
    637    983     1
    638    994     1
    641    657     1
    641    654     1
    644    648     1
    644    651     1
    647    664     1
    647    661     1
    647    660     1
    648    654     1
    648    663     1
    648   1025     1
    651    657     1
    651   1014     1
    651    662     1
    654   1005     1
    657   1016     1
    660   1008     1
    661   1019     1
    662   1005     1
    663   1016     1
    666    682     1
    666    679     1
    669    673     1
    669    676     1
    672    689     1
    672    686     1
    672    685     1
    673    679     1
    673    688     1
    673   1047     1
    676    682     1
    676   1036     1
    676    687     1
    679   1027     1
    682   1038     1
    685   1030     1
    686   1041     1
    687   1027     1
    688   1038     1
    691    707     1
    691    704     1
    694    698     1
    694    701     1
    697    714     1
    697    711     1
    697    710     1
    698    704     1
    698    713     1
    698   1069     1
    701    707     1
    701   1058     1
    701    712     1
    704   1049     1
    707   1060     1
    710   1052     1
    711   1063     1
    712   1049     1
    713   1060     1
    716    732     1
    716    729     1
    719    723     1
    719    726     1
    722    739     1
    722    736     1
    722    735     1
    723    729     1
    723   1091     1
    723    738     1
    726    732     1
    726   1080     1
    726    737     1
    729   1071     1
    732   1082     1
    735   1074     1
    736   1085     1
    737   1071     1
    738   1082     1
    747    750     1
    758    761     1
    769    772     1
    780    783     1
    791    794     1
    802    805     1
    813    816     1
    824    827     1
    835    838     1
    846    849     1
    857    860     1
    868    871     1
    879    882     1
    890    893     1
    901    904     1
    912    915     1
    923    926     1
    934    937     1
    945    948     1
    956    959     1
    967    970     1
    978    981     1
    989    992     1
   1000   1003     1
   1011   1014     1
   1022   1025     1
   1033   1036     1
   1044   1047     1
   1055   1058     1
   1066   1069     1
   1077   1080     1
   1088   1091     1
      1     10     1
      1     11     1
      1     13     1
      1     14     1
      2      7     1
      2      5     1
      2      6     1
      2      9     1
      2     12     1
      3      7     1
      3      5     1
      3      6     1
      3      9     1
      3     12     1
      4     16     1
      4     17     1
      4     19     1
      4     20     1
      8      5     1
      5     15     1
      5     18     1
      8      6     1
      6     15     1
      6     18     1
      7     22     1
      7     23     1
      7     25     1
      7     26     1
      8     31     1
      8     32     1
      8     28     1
      8     29     1
      9     13     1
      9     14     1
     10     12     1
     10     34     1
     10     31     1
     10     32     1
     11     12     1
     11     34     1
     11     31     1
     11     32     1
     13     33     1
     13     28     1
     13     29     1
     14     33     1
     14     28     1
     14     29     1
     15     19     1
     15     20     1
     16     18     1
     16     35     1
     16     22     1
     16     23     1
     17     18     1
     17     35     1
     17     22     1
     17     23     1
     19     36     1
     19     25     1
     19     26     1
     20     36     1
     20     25     1
     20     26     1
     21    115     1
     22     38     1
     22    114     1
     23     38     1
     23    114     1
     24    140     1
     25     39     1
     25    139     1
     26     39     1
     26    139     1
     27     65     1
     28     37     1
     28     64     1
     29     37     1
     29     64     1
     30     90     1
     31     40     1
     31     89     1
     32     40     1
     32     89     1
     33     45     1
     33     46     1
     34     70     1
     34     71     1
     35     95     1
     35     96     1
     36    120     1
     36    121     1
     37     65     1
     38    115     1
     39    140     1
     40     90     1
     41     65     1
     41     49     1
     41     50     1
     41     52     1
     41     53     1
     42     64     1
     42     45     1
     42     46     1
     42     48     1
     42     51     1
     43     64     1
     43     45     1
     43     46     1
     43     48     1
     43     51     1
     45     47     1
     45     65     1
     46     47     1
     46     65     1
     47     58     1
     47     59     1
     47     55     1
     47     56     1
     48     52     1
     48     53     1
     49     51     1
     49     61     1
     49     58     1
     49     59     1
     50     51     1
     50     61     1
     50     58     1
     50     59     1
     52     60     1
     52     55     1
     52     56     1
     53     60     1
     53     55     1
     53     56     1
     54    165     1
     55     62     1
     55    164     1
     56     62     1
     56    164     1
     57    190     1
     58     63     1
     58    189     1
     59     63     1
     59    189     1
     60    145     1
     60    146     1
     61    170     1
     61    171     1
     62    165     1
     63    190     1
     66     90     1
     66     74     1
     66     75     1
     66     77     1
     66     78     1
     67     89     1
     67     70     1
     67     71     1
     67     73     1
     67     76     1
     68     89     1
     68     70     1
     68     71     1
     68     73     1
     68     76     1
     70     72     1
     70     90     1
     71     72     1
     71     90     1
     72     83     1
     72     84     1
     72     80     1
     72     81     1
     73     77     1
     73     78     1
     74     76     1
     74     86     1
     74     83     1
     74     84     1
     75     76     1
     75     86     1
     75     83     1
     75     84     1
     77     85     1
     77     80     1
     77     81     1
     78     85     1
     78     80     1
     78     81     1
     79    215     1
     80     87     1
     80    214     1
     81     87     1
     81    214     1
     82    240     1
     83     88     1
     83    239     1
     84     88     1
     84    239     1
     85    195     1
     85    196     1
     86    220     1
     86    221     1
     87    215     1
     88    240     1
     91    115     1
     91     99     1
     91    100     1
     91    102     1
     91    103     1
     92    114     1
     92     95     1
     92     96     1
     92     98     1
     92    101     1
     93    114     1
     93     95     1
     93     96     1
     93     98     1
     93    101     1
     95     97     1
     95    115     1
     96     97     1
     96    115     1
     97    108     1
     97    109     1
     97    105     1
     97    106     1
     98    102     1
     98    103     1
     99    101     1
     99    111     1
     99    108     1
     99    109     1
    100    101     1
    100    111     1
    100    108     1
    100    109     1
    102    110     1
    102    105     1
    102    106     1
    103    110     1
    103    105     1
    103    106     1
    104    265     1
    105    112     1
    105    264     1
    106    112     1
    106    264     1
    107    290     1
    108    113     1
    108    289     1
    109    113     1
    109    289     1
    110    245     1
    110    246     1
    111    270     1
    111    271     1
    112    265     1
    113    290     1
    116    140     1
    116    124     1
    116    125     1
    116    127     1
    116    128     1
    117    139     1
    117    120     1
    117    121     1
    117    123     1
    117    126     1
    118    139     1
    118    120     1
    118    121     1
    118    123     1
    118    126     1
    120    122     1
    120    140     1
    121    122     1
    121    140     1
    122    133     1
    122    134     1
    122    130     1
    122    131     1
    123    127     1
    123    128     1
    124    126     1
    124    136     1
    124    133     1
    124    134     1
    125    126     1
    125    136     1
    125    133     1
    125    134     1
    127    135     1
    127    130     1
    127    131     1
    128    135     1
    128    130     1
    128    131     1
    129    315     1
    130    137     1
    130    314     1
    131    137     1
    131    314     1
    132    340     1
    133    138     1
    133    339     1
    134    138     1
    134    339     1
    135    295     1
    135    296     1
    136    320     1
    136    321     1
    137    315     1
    138    340     1
    141    165     1
    141    149     1
    141    150     1
    141    152     1
    141    153     1
    142    164     1
    142    145     1
    142    146     1
    142    148     1
    142    151     1
    143    164     1
    143    145     1
    143    146     1
    143    148     1
    143    151     1
    145    147     1
    145    165     1
    146    147     1
    146    165     1
    147    158     1
    147    159     1
    147    155     1
    147    156     1
    148    152     1
    148    153     1
    149    151     1
    149    161     1
    149    158     1
    149    159     1
    150    151     1
    150    161     1
    150    158     1
    150    159     1
    152    160     1
    152    155     1
    152    156     1
    153    160     1
    153    155     1
    153    156     1
    154    365     1
    155    162     1
    155    364     1
    156    162     1
    156    364     1
    157    390     1
    158    163     1
    158    389     1
    159    163     1
    159    389     1
    160    345     1
    160    346     1
    161    370     1
    161    371     1
    162    365     1
    163    390     1
    166    190     1
    166    174     1
    166    175     1
    166    177     1
    166    178     1
    167    189     1
    167    170     1
    167    171     1
    167    173     1
    167    176     1
    168    189     1
    168    170     1
    168    171     1
    168    173     1
    168    176     1
    170    172     1
    170    190     1
    171    172     1
    171    190     1
    172    183     1
    172    184     1
    172    180     1
    172    181     1
    173    177     1
    173    178     1
    174    176     1
    174    186     1
    174    183     1
    174    184     1
    175    176     1
    175    186     1
    175    183     1
    175    184     1
    177    185     1
    177    180     1
    177    181     1
    178    185     1
    178    180     1
    178    181     1
    179    415     1
    180    187     1
    180    414     1
    181    187     1
    181    414     1
    182    440     1
    183    188     1
    183    439     1
    184    188     1
    184    439     1
    185    395     1
    185    396     1
    186    420     1
    186    421     1
    187    415     1
    188    440     1
    191    215     1
    191    199     1
    191    200     1
    191    202     1
    191    203     1
    192    214     1
    192    195     1
    192    196     1
    192    198     1
    192    201     1
    193    214     1
    193    195     1
    193    196     1
    193    198     1
    193    201     1
    195    197     1
    195    215     1
    196    197     1
    196    215     1
    197    208     1
    197    209     1
    197    205     1
    197    206     1
    198    202     1
    198    203     1
    199    201     1
    199    211     1
    199    208     1
    199    209     1
    200    201     1
    200    211     1
    200    208     1
    200    209     1
    202    210     1
    202    205     1
    202    206     1
    203    210     1
    203    205     1
    203    206     1
    204    465     1
    205    212     1
    205    464     1
    206    212     1
    206    464     1
    207    490     1
    208    213     1
    208    489     1
    209    213     1
    209    489     1
    210    445     1
    210    446     1
    211    470     1
    211    471     1
    212    465     1
    213    490     1
    216    240     1
    216    224     1
    216    225     1
    216    227     1
    216    228     1
    217    239     1
    217    220     1
    217    221     1
    217    223     1
    217    226     1
    218    239     1
    218    220     1
    218    221     1
    218    223     1
    218    226     1
    220    222     1
    220    240     1
    221    222     1
    221    240     1
    222    233     1
    222    234     1
    222    230     1
    222    231     1
    223    227     1
    223    228     1
    224    226     1
    224    236     1
    224    233     1
    224    234     1
    225    226     1
    225    236     1
    225    233     1
    225    234     1
    227    235     1
    227    230     1
    227    231     1
    228    235     1
    228    230     1
    228    231     1
    229    515     1
    230    237     1
    230    514     1
    231    237     1
    231    514     1
    232    540     1
    233    238     1
    233    539     1
    234    238     1
    234    539     1
    235    495     1
    235    496     1
    236    520     1
    236    521     1
    237    515     1
    238    540     1
    241    265     1
    241    249     1
    241    250     1
    241    252     1
    241    253     1
    242    264     1
    242    245     1
    242    246     1
    242    248     1
    242    251     1
    243    264     1
    243    245     1
    243    246     1
    243    248     1
    243    251     1
    245    247     1
    245    265     1
    246    247     1
    246    265     1
    247    258     1
    247    259     1
    247    255     1
    247    256     1
    248    252     1
    248    253     1
    249    251     1
    249    261     1
    249    258     1
    249    259     1
    250    251     1
    250    261     1
    250    258     1
    250    259     1
    252    260     1
    252    255     1
    252    256     1
    253    260     1
    253    255     1
    253    256     1
    254    565     1
    255    262     1
    255    564     1
    256    262     1
    256    564     1
    257    590     1
    258    263     1
    258    589     1
    259    263     1
    259    589     1
    260    545     1
    260    546     1
    261    570     1
    261    571     1
    262    565     1
    263    590     1
    266    290     1
    266    274     1
    266    275     1
    266    277     1
    266    278     1
    267    289     1
    267    270     1
    267    271     1
    267    273     1
    267    276     1
    268    289     1
    268    270     1
    268    271     1
    268    273     1
    268    276     1
    270    272     1
    270    290     1
    271    272     1
    271    290     1
    272    283     1
    272    284     1
    272    280     1
    272    281     1
    273    277     1
    273    278     1
    274    276     1
    274    286     1
    274    283     1
    274    284     1
    275    276     1
    275    286     1
    275    283     1
    275    284     1
    277    285     1
    277    280     1
    277    281     1
    278    285     1
    278    280     1
    278    281     1
    279    615     1
    280    287     1
    280    614     1
    281    287     1
    281    614     1
    282    640     1
    283    288     1
    283    639     1
    284    288     1
    284    639     1
    285    595     1
    285    596     1
    286    620     1
    286    621     1
    287    615     1
    288    640     1
    291    315     1
    291    299     1
    291    300     1
    291    302     1
    291    303     1
    292    314     1
    292    295     1
    292    296     1
    292    298     1
    292    301     1
    293    314     1
    293    295     1
    293    296     1
    293    298     1
    293    301     1
    295    297     1
    295    315     1
    296    297     1
    296    315     1
    297    308     1
    297    309     1
    297    305     1
    297    306     1
    298    302     1
    298    303     1
    299    301     1
    299    311     1
    299    308     1
    299    309     1
    300    301     1
    300    311     1
    300    308     1
    300    309     1
    302    310     1
    302    305     1
    302    306     1
    303    310     1
    303    305     1
    303    306     1
    304    665     1
    305    312     1
    305    664     1
    306    312     1
    306    664     1
    307    690     1
    308    313     1
    308    689     1
    309    313     1
    309    689     1
    310    645     1
    310    646     1
    311    670     1
    311    671     1
    312    665     1
    313    690     1
    316    340     1
    316    324     1
    316    325     1
    316    327     1
    316    328     1
    317    339     1
    317    320     1
    317    321     1
    317    323     1
    317    326     1
    318    339     1
    318    320     1
    318    321     1
    318    323     1
    318    326     1
    320    322     1
    320    340     1
    321    322     1
    321    340     1
    322    333     1
    322    334     1
    322    330     1
    322    331     1
    323    327     1
    323    328     1
    324    326     1
    324    336     1
    324    333     1
    324    334     1
    325    326     1
    325    336     1
    325    333     1
    325    334     1
    327    335     1
    327    330     1
    327    331     1
    328    335     1
    328    330     1
    328    331     1
    329    715     1
    330    337     1
    330    714     1
    331    337     1
    331    714     1
    332    740     1
    333    338     1
    333    739     1
    334    338     1
    334    739     1
    335    695     1
    335    696     1
    336    720     1
    336    721     1
    337    715     1
    338    740     1
    341    365     1
    341    349     1
    341    350     1
    341    352     1
    341    353     1
    342    364     1
    342    345     1
    342    346     1
    342    348     1
    342    351     1
    343    364     1
    343    345     1
    343    346     1
    343    348     1
    343    351     1
    345    347     1
    345    365     1
    346    347     1
    346    365     1
    347    358     1
    347    359     1
    347    355     1
    347    356     1
    348    352     1
    348    353     1
    349    351     1
    349    361     1
    349    358     1
    349    359     1
    350    351     1
    350    361     1
    350    358     1
    350    359     1
    352    360     1
    352    355     1
    352    356     1
    353    360     1
    353    355     1
    353    356     1
    354    751     1
    355    750     1
    355    362     1
    356    750     1
    356    362     1
    357    762     1
    358    363     1
    358    761     1
    359    363     1
    359    761     1
    360    742     1
    360    743     1
    361    753     1
    361    754     1
    362    751     1
    363    762     1
    366    390     1
    366    374     1
    366    375     1
    366    377     1
    366    378     1
    367    389     1
    367    370     1
    367    371     1
    367    373     1
    367    376     1
    368    389     1
    368    370     1
    368    371     1
    368    373     1
    368    376     1
    370    372     1
    370    390     1
    371    372     1
    371    390     1
    372    383     1
    372    384     1
    372    380     1
    372    381     1
    373    377     1
    373    378     1
    374    376     1
    374    386     1
    374    383     1
    374    384     1
    375    376     1
    375    386     1
    375    383     1
    375    384     1
    377    385     1
    377    380     1
    377    381     1
    378    385     1
    378    380     1
    378    381     1
    379    773     1
    380    772     1
    380    387     1
    381    772     1
    381    387     1
    382    784     1
    383    388     1
    383    783     1
    384    388     1
    384    783     1
    385    764     1
    385    765     1
    386    775     1
    386    776     1
    387    773     1
    388    784     1
    391    415     1
    391    399     1
    391    400     1
    391    402     1
    391    403     1
    392    414     1
    392    395     1
    392    396     1
    392    398     1
    392    401     1
    393    414     1
    393    395     1
    393    396     1
    393    398     1
    393    401     1
    395    397     1
    395    415     1
    396    397     1
    396    415     1
    397    408     1
    397    409     1
    397    405     1
    397    406     1
    398    402     1
    398    403     1
    399    401     1
    399    411     1
    399    408     1
    399    409     1
    400    401     1
    400    411     1
    400    408     1
    400    409     1
    402    410     1
    402    405     1
    402    406     1
    403    410     1
    403    405     1
    403    406     1
    404    795     1
    405    794     1
    405    412     1
    406    794     1
    406    412     1
    407    806     1
    408    413     1
    408    805     1
    409    413     1
    409    805     1
    410    786     1
    410    787     1
    411    797     1
    411    798     1
    412    795     1
    413    806     1
    416    440     1
    416    424     1
    416    425     1
    416    427     1
    416    428     1
    417    439     1
    417    420     1
    417    421     1
    417    423     1
    417    426     1
    418    439     1
    418    420     1
    418    421     1
    418    423     1
    418    426     1
    420    422     1
    420    440     1
    421    422     1
    421    440     1
    422    433     1
    422    434     1
    422    430     1
    422    431     1
    423    427     1
    423    428     1
    424    426     1
    424    436     1
    424    433     1
    424    434     1
    425    426     1
    425    436     1
    425    433     1
    425    434     1
    427    435     1
    427    430     1
    427    431     1
    428    435     1
    428    430     1
    428    431     1
    429    817     1
    430    816     1
    430    437     1
    431    816     1
    431    437     1
    432    828     1
    433    438     1
    433    827     1
    434    438     1
    434    827     1
    435    808     1
    435    809     1
    436    819     1
    436    820     1
    437    817     1
    438    828     1
    441    465     1
    441    449     1
    441    450     1
    441    452     1
    441    453     1
    442    464     1
    442    445     1
    442    446     1
    442    448     1
    442    451     1
    443    464     1
    443    445     1
    443    446     1
    443    448     1
    443    451     1
    445    447     1
    445    465     1
    446    447     1
    446    465     1
    447    458     1
    447    459     1
    447    455     1
    447    456     1
    448    452     1
    448    453     1
    449    451     1
    449    461     1
    449    458     1
    449    459     1
    450    451     1
    450    461     1
    450    458     1
    450    459     1
    452    460     1
    452    455     1
    452    456     1
    453    460     1
    453    455     1
    453    456     1
    454    839     1
    455    838     1
    455    462     1
    456    838     1
    456    462     1
    457    850     1
    458    463     1
    458    849     1
    459    463     1
    459    849     1
    460    830     1
    460    831     1
    461    841     1
    461    842     1
    462    839     1
    463    850     1
    466    490     1
    466    474     1
    466    475     1
    466    477     1
    466    478     1
    467    489     1
    467    470     1
    467    471     1
    467    473     1
    467    476     1
    468    489     1
    468    470     1
    468    471     1
    468    473     1
    468    476     1
    470    472     1
    470    490     1
    471    472     1
    471    490     1
    472    483     1
    472    484     1
    472    480     1
    472    481     1
    473    477     1
    473    478     1
    474    476     1
    474    486     1
    474    483     1
    474    484     1
    475    476     1
    475    486     1
    475    483     1
    475    484     1
    477    485     1
    477    480     1
    477    481     1
    478    485     1
    478    480     1
    478    481     1
    479    861     1
    480    860     1
    480    487     1
    481    860     1
    481    487     1
    482    872     1
    483    488     1
    483    871     1
    484    488     1
    484    871     1
    485    852     1
    485    853     1
    486    863     1
    486    864     1
    487    861     1
    488    872     1
    491    515     1
    491    499     1
    491    500     1
    491    502     1
    491    503     1
    492    514     1
    492    495     1
    492    496     1
    492    498     1
    492    501     1
    493    514     1
    493    495     1
    493    496     1
    493    498     1
    493    501     1
    495    497     1
    495    515     1
    496    497     1
    496    515     1
    497    508     1
    497    509     1
    497    505     1
    497    506     1
    498    502     1
    498    503     1
    499    501     1
    499    511     1
    499    508     1
    499    509     1
    500    501     1
    500    511     1
    500    508     1
    500    509     1
    502    510     1
    502    505     1
    502    506     1
    503    510     1
    503    505     1
    503    506     1
    504    883     1
    505    882     1
    505    512     1
    506    882     1
    506    512     1
    507    894     1
    508    513     1
    508    893     1
    509    513     1
    509    893     1
    510    874     1
    510    875     1
    511    885     1
    511    886     1
    512    883     1
    513    894     1
    516    540     1
    516    524     1
    516    525     1
    516    527     1
    516    528     1
    517    539     1
    517    520     1
    517    521     1
    517    523     1
    517    526     1
    518    539     1
    518    520     1
    518    521     1
    518    523     1
    518    526     1
    520    522     1
    520    540     1
    521    522     1
    521    540     1
    522    533     1
    522    534     1
    522    530     1
    522    531     1
    523    527     1
    523    528     1
    524    526     1
    524    536     1
    524    533     1
    524    534     1
    525    526     1
    525    536     1
    525    533     1
    525    534     1
    527    535     1
    527    530     1
    527    531     1
    528    535     1
    528    530     1
    528    531     1
    529    905     1
    530    904     1
    530    537     1
    531    904     1
    531    537     1
    532    916     1
    533    538     1
    533    915     1
    534    538     1
    534    915     1
    535    896     1
    535    897     1
    536    907     1
    536    908     1
    537    905     1
    538    916     1
    541    565     1
    541    549     1
    541    550     1
    541    552     1
    541    553     1
    542    564     1
    542    545     1
    542    546     1
    542    548     1
    542    551     1
    543    564     1
    543    545     1
    543    546     1
    543    548     1
    543    551     1
    545    547     1
    545    565     1
    546    547     1
    546    565     1
    547    558     1
    547    559     1
    547    555     1
    547    556     1
    548    552     1
    548    553     1
    549    551     1
    549    561     1
    549    558     1
    549    559     1
    550    551     1
    550    561     1
    550    558     1
    550    559     1
    552    560     1
    552    555     1
    552    556     1
    553    560     1
    553    555     1
    553    556     1
    554    927     1
    555    926     1
    555    562     1
    556    926     1
    556    562     1
    557    938     1
    558    563     1
    558    937     1
    559    563     1
    559    937     1
    560    918     1
    560    919     1
    561    929     1
    561    930     1
    562    927     1
    563    938     1
    566    590     1
    566    574     1
    566    575     1
    566    577     1
    566    578     1
    567    589     1
    567    570     1
    567    571     1
    567    573     1
    567    576     1
    568    589     1
    568    570     1
    568    571     1
    568    573     1
    568    576     1
    570    572     1
    570    590     1
    571    572     1
    571    590     1
    572    583     1
    572    584     1
    572    580     1
    572    581     1
    573    577     1
    573    578     1
    574    576     1
    574    586     1
    574    583     1
    574    584     1
    575    576     1
    575    586     1
    575    583     1
    575    584     1
    577    585     1
    577    580     1
    577    581     1
    578    585     1
    578    580     1
    578    581     1
    579    949     1
    580    948     1
    580    587     1
    581    948     1
    581    587     1
    582    960     1
    583    588     1
    583    959     1
    584    588     1
    584    959     1
    585    940     1
    585    941     1
    586    951     1
    586    952     1
    587    949     1
    588    960     1
    591    615     1
    591    599     1
    591    600     1
    591    602     1
    591    603     1
    592    614     1
    592    595     1
    592    596     1
    592    598     1
    592    601     1
    593    614     1
    593    595     1
    593    596     1
    593    598     1
    593    601     1
    595    597     1
    595    615     1
    596    597     1
    596    615     1
    597    608     1
    597    609     1
    597    605     1
    597    606     1
    598    602     1
    598    603     1
    599    601     1
    599    611     1
    599    608     1
    599    609     1
    600    601     1
    600    611     1
    600    608     1
    600    609     1
    602    610     1
    602    605     1
    602    606     1
    603    610     1
    603    605     1
    603    606     1
    604    971     1
    605    970     1
    605    612     1
    606    970     1
    606    612     1
    607    982     1
    608    613     1
    608    981     1
    609    613     1
    609    981     1
    610    962     1
    610    963     1
    611    973     1
    611    974     1
    612    971     1
    613    982     1
    616    640     1
    616    624     1
    616    625     1
    616    627     1
    616    628     1
    617    639     1
    617    620     1
    617    621     1
    617    623     1
    617    626     1
    618    639     1
    618    620     1
    618    621     1
    618    623     1
    618    626     1
    620    622     1
    620    640     1
    621    622     1
    621    640     1
    622    633     1
    622    634     1
    622    630     1
    622    631     1
    623    627     1
    623    628     1
    624    626     1
    624    636     1
    624    633     1
    624    634     1
    625    626     1
    625    636     1
    625    633     1
    625    634     1
    627    635     1
    627    630     1
    627    631     1
    628    635     1
    628    630     1
    628    631     1
    629    993     1
    630    992     1
    630    637     1
    631    992     1
    631    637     1
    632   1004     1
    633    638     1
    633   1003     1
    634    638     1
    634   1003     1
    635    984     1
    635    985     1
    636    995     1
    636    996     1
    637    993     1
    638   1004     1
    641    665     1
    641    649     1
    641    650     1
    641    652     1
    641    653     1
    642    664     1
    642    645     1
    642    646     1
    642    648     1
    642    651     1
    643    664     1
    643    645     1
    643    646     1
    643    648     1
    643    651     1
    645    647     1
    645    665     1
    646    647     1
    646    665     1
    647    658     1
    647    659     1
    647    655     1
    647    656     1
    648    652     1
    648    653     1
    649    651     1
    649    661     1
    649    658     1
    649    659     1
    650    651     1
    650    661     1
    650    658     1
    650    659     1
    652    660     1
    652    655     1
    652    656     1
    653    660     1
    653    655     1
    653    656     1
    654   1015     1
    655   1014     1
    655    662     1
    656   1014     1
    656    662     1
    657   1026     1
    658    663     1
    658   1025     1
    659    663     1
    659   1025     1
    660   1006     1
    660   1007     1
    661   1017     1
    661   1018     1
    662   1015     1
    663   1026     1
    666    690     1
    666    674     1
    666    675     1
    666    677     1
    666    678     1
    667    689     1
    667    670     1
    667    671     1
    667    673     1
    667    676     1
    668    689     1
    668    670     1
    668    671     1
    668    673     1
    668    676     1
    670    672     1
    670    690     1
    671    672     1
    671    690     1
    672    683     1
    672    684     1
    672    680     1
    672    681     1
    673    677     1
    673    678     1
    674    676     1
    674    686     1
    674    683     1
    674    684     1
    675    676     1
    675    686     1
    675    683     1
    675    684     1
    677    685     1
    677    680     1
    677    681     1
    678    685     1
    678    680     1
    678    681     1
    679   1037     1
    680   1036     1
    680    687     1
    681   1036     1
    681    687     1
    682   1048     1
    683    688     1
    683   1047     1
    684    688     1
    684   1047     1
    685   1028     1
    685   1029     1
    686   1039     1
    686   1040     1
    687   1037     1
    688   1048     1
    691    715     1
    691    699     1
    691    700     1
    691    702     1
    691    703     1
    692    714     1
    692    695     1
    692    696     1
    692    698     1
    692    701     1
    693    714     1
    693    695     1
    693    696     1
    693    698     1
    693    701     1
    695    697     1
    695    715     1
    696    697     1
    696    715     1
    697    708     1
    697    709     1
    697    705     1
    697    706     1
    698    702     1
    698    703     1
    699    701     1
    699    711     1
    699    708     1
    699    709     1
    700    701     1
    700    711     1
    700    708     1
    700    709     1
    702    710     1
    702    705     1
    702    706     1
    703    710     1
    703    705     1
    703    706     1
    704   1059     1
    705   1058     1
    705    712     1
    706   1058     1
    706    712     1
    707   1070     1
    708    713     1
    708   1069     1
    709    713     1
    709   1069     1
    710   1050     1
    710   1051     1
    711   1061     1
    711   1062     1
    712   1059     1
    713   1070     1
    716    740     1
    716    724     1
    716    725     1
    716    727     1
    716    728     1
    717    739     1
    717    720     1
    717    721     1
    717    723     1
    717    726     1
    718    739     1
    718    720     1
    718    721     1
    718    723     1
    718    726     1
    720    722     1
    720    740     1
    721    722     1
    721    740     1
    722    733     1
    722    734     1
    722    730     1
    722    731     1
    723    727     1
    723    728     1
    724    726     1
    724    736     1
    724    733     1
    724    734     1
    725    726     1
    725    736     1
    725    733     1
    725    734     1
    727    735     1
    727    730     1
    727    731     1
    728    735     1
    728    730     1
    728    731     1
    729   1081     1
    730   1080     1
    730    737     1
    731   1080     1
    731    737     1
    732   1092     1
    733   1091     1
    733    738     1
    734   1091     1
    734    738     1
    735   1072     1
    735   1073     1
    736   1083     1
    736   1084     1
    737   1081     1
    738   1092     1
    741    748     1
    741    749     1
    742    747     1
    742    745     1
    742    746     1
    742    751     1
    743    747     1
    743    745     1
    743    746     1
    743    751     1
    744    751     1
    745    750     1
    745    748     1
    745    749     1
    746    750     1
    746    748     1
    746    749     1
    752    759     1
    752    760     1
    753    758     1
    753    756     1
    753    757     1
    753    762     1
    754    758     1
    754    756     1
    754    757     1
    754    762     1
    755    762     1
    756    759     1
    756    760     1
    756    761     1
    757    759     1
    757    760     1
    757    761     1
    763    770     1
    763    771     1
    764    769     1
    764    767     1
    764    768     1
    764    773     1
    765    769     1
    765    767     1
    765    768     1
    765    773     1
    766    773     1
    767    772     1
    767    770     1
    767    771     1
    768    772     1
    768    770     1
    768    771     1
    774    781     1
    774    782     1
    775    780     1
    775    778     1
    775    779     1
    775    784     1
    776    780     1
    776    778     1
    776    779     1
    776    784     1
    777    784     1
    778    781     1
    778    782     1
    778    783     1
    779    781     1
    779    782     1
    779    783     1
    785    792     1
    785    793     1
    786    791     1
    786    789     1
    786    790     1
    786    795     1
    787    791     1
    787    789     1
    787    790     1
    787    795     1
    788    795     1
    789    794     1
    789    792     1
    789    793     1
    790    794     1
    790    792     1
    790    793     1
    796    803     1
    796    804     1
    797    802     1
    797    800     1
    797    801     1
    797    806     1
    798    802     1
    798    800     1
    798    801     1
    798    806     1
    799    806     1
    800    803     1
    800    804     1
    800    805     1
    801    803     1
    801    804     1
    801    805     1
    807    814     1
    807    815     1
    808    813     1
    808    811     1
    808    812     1
    808    817     1
    809    813     1
    809    811     1
    809    812     1
    809    817     1
    810    817     1
    811    816     1
    811    814     1
    811    815     1
    812    816     1
    812    814     1
    812    815     1
    818    825     1
    818    826     1
    819    824     1
    819    822     1
    819    823     1
    819    828     1
    820    824     1
    820    822     1
    820    823     1
    820    828     1
    821    828     1
    822    825     1
    822    826     1
    822    827     1
    823    825     1
    823    826     1
    823    827     1
    829    836     1
    829    837     1
    830    835     1
    830    833     1
    830    834     1
    830    839     1
    831    835     1
    831    833     1
    831    834     1
    831    839     1
    832    839     1
    833    838     1
    833    836     1
    833    837     1
    834    838     1
    834    836     1
    834    837     1
    840    847     1
    840    848     1
    841    846     1
    841    844     1
    841    845     1
    841    850     1
    842    846     1
    842    844     1
    842    845     1
    842    850     1
    843    850     1
    844    847     1
    844    848     1
    844    849     1
    845    847     1
    845    848     1
    845    849     1
    851    858     1
    851    859     1
    852    857     1
    852    855     1
    852    856     1
    852    861     1
    853    857     1
    853    855     1
    853    856     1
    853    861     1
    854    861     1
    855    860     1
    855    858     1
    855    859     1
    856    860     1
    856    858     1
    856    859     1
    862    869     1
    862    870     1
    863    868     1
    863    866     1
    863    867     1
    863    872     1
    864    868     1
    864    866     1
    864    867     1
    864    872     1
    865    872     1
    866    869     1
    866    870     1
    866    871     1
    867    869     1
    867    870     1
    867    871     1
    873    880     1
    873    881     1
    874    879     1
    874    877     1
    874    878     1
    874    883     1
    875    879     1
    875    877     1
    875    878     1
    875    883     1
    876    883     1
    877    882     1
    877    880     1
    877    881     1
    878    882     1
    878    880     1
    878    881     1
    884    891     1
    884    892     1
    885    890     1
    885    888     1
    885    889     1
    885    894     1
    886    890     1
    886    888     1
    886    889     1
    886    894     1
    887    894     1
    888    891     1
    888    892     1
    888    893     1
    889    891     1
    889    892     1
    889    893     1
    895    902     1
    895    903     1
    896    901     1
    896    899     1
    896    900     1
    896    905     1
    897    901     1
    897    899     1
    897    900     1
    897    905     1
    898    905     1
    899    904     1
    899    902     1
    899    903     1
    900    904     1
    900    902     1
    900    903     1
    906    913     1
    906    914     1
    907    912     1
    907    910     1
    907    911     1
    907    916     1
    908    912     1
    908    910     1
    908    911     1
    908    916     1
    909    916     1
    910    913     1
    910    914     1
    910    915     1
    911    913     1
    911    914     1
    911    915     1
    917    924     1
    917    925     1
    918    923     1
    918    921     1
    918    922     1
    918    927     1
    919    923     1
    919    921     1
    919    922     1
    919    927     1
    920    927     1
    921    926     1
    921    924     1
    921    925     1
    922    926     1
    922    924     1
    922    925     1
    928    935     1
    928    936     1
    929    934     1
    929    932     1
    929    933     1
    929    938     1
    930    934     1
    930    932     1
    930    933     1
    930    938     1
    931    938     1
    932    935     1
    932    936     1
    932    937     1
    933    935     1
    933    936     1
    933    937     1
    939    946     1
    939    947     1
    940    945     1
    940    943     1
    940    944     1
    940    949     1
    941    945     1
    941    943     1
    941    944     1
    941    949     1
    942    949     1
    943    948     1
    943    946     1
    943    947     1
    944    948     1
    944    946     1
    944    947     1
    950    957     1
    950    958     1
    951    956     1
    951    954     1
    951    955     1
    951    960     1
    952    956     1
    952    954     1
    952    955     1
    952    960     1
    953    960     1
    954    957     1
    954    958     1
    954    959     1
    955    957     1
    955    958     1
    955    959     1
    961    968     1
    961    969     1
    962    967     1
    962    965     1
    962    966     1
    962    971     1
    963    967     1
    963    965     1
    963    966     1
    963    971     1
    964    971     1
    965    970     1
    965    968     1
    965    969     1
    966    970     1
    966    968     1
    966    969     1
    972    979     1
    972    980     1
    973    978     1
    973    976     1
    973    977     1
    973    982     1
    974    978     1
    974    976     1
    974    977     1
    974    982     1
    975    982     1
    976    979     1
    976    980     1
    976    981     1
    977    979     1
    977    980     1
    977    981     1
    983    990     1
    983    991     1
    984    989     1
    984    987     1
    984    988     1
    984    993     1
    985    989     1
    985    987     1
    985    988     1
    985    993     1
    986    993     1
    987    992     1
    987    990     1
    987    991     1
    988    992     1
    988    990     1
    988    991     1
    994   1001     1
    994   1002     1
    995   1000     1
    995    998     1
    995    999     1
    995   1004     1
    996   1000     1
    996    998     1
    996    999     1
    996   1004     1
    997   1004     1
    998   1001     1
    998   1002     1
    998   1003     1
    999   1001     1
    999   1002     1
    999   1003     1
   1005   1012     1
   1005   1013     1
   1006   1011     1
   1006   1009     1
   1006   1010     1
   1006   1015     1
   1007   1011     1
   1007   1009     1
   1007   1010     1
   1007   1015     1
   1008   1015     1
   1009   1014     1
   1009   1012     1
   1009   1013     1
   1010   1014     1
   1010   1012     1
   1010   1013     1
   1016   1023     1
   1016   1024     1
   1017   1022     1
   1017   1020     1
   1017   1021     1
   1017   1026     1
   1018   1022     1
   1018   1020     1
   1018   1021     1
   1018   1026     1
   1019   1026     1
   1020   1023     1
   1020   1024     1
   1020   1025     1
   1021   1023     1
   1021   1024     1
   1021   1025     1
   1027   1034     1
   1027   1035     1
   1028   1033     1
   1028   1031     1
   1028   1032     1
   1028   1037     1
   1029   1033     1
   1029   1031     1
   1029   1032     1
   1029   1037     1
   1030   1037     1
   1031   1036     1
   1031   1034     1
   1031   1035     1
   1032   1036     1
   1032   1034     1
   1032   1035     1
   1038   1045     1
   1038   1046     1
   1039   1044     1
   1039   1042     1
   1039   1043     1
   1039   1048     1
   1040   1044     1
   1040   1042     1
   1040   1043     1
   1040   1048     1
   1041   1048     1
   1042   1045     1
   1042   1046     1
   1042   1047     1
   1043   1045     1
   1043   1046     1
   1043   1047     1
   1049   1056     1
   1049   1057     1
   1050   1055     1
   1050   1053     1
   1050   1054     1
   1050   1059     1
   1051   1055     1
   1051   1053     1
   1051   1054     1
   1051   1059     1
   1052   1059     1
   1053   1058     1
   1053   1056     1
   1053   1057     1
   1054   1058     1
   1054   1056     1
   1054   1057     1
   1060   1067     1
   1060   1068     1
   1061   1066     1
   1061   1064     1
   1061   1065     1
   1061   1070     1
   1062   1066     1
   1062   1064     1
   1062   1065     1
   1062   1070     1
   1063   1070     1
   1064   1067     1
   1064   1068     1
   1064   1069     1
   1065   1067     1
   1065   1068     1
   1065   1069     1
   1071   1078     1
   1071   1079     1
   1072   1077     1
   1072   1075     1
   1072   1076     1
   1072   1081     1
   1073   1077     1
   1073   1075     1
   1073   1076     1
   1073   1081     1
   1074   1081     1
   1075   1080     1
   1075   1078     1
   1075   1079     1
   1076   1080     1
   1076   1078     1
   1076   1079     1
   1082   1089     1
   1082   1090     1
   1083   1088     1
   1083   1086     1
   1083   1087     1
   1083   1092     1
   1084   1088     1
   1084   1086     1
   1084   1087     1
   1084   1092     1
   1085   1092     1
   1086   1089     1
   1086   1090     1
   1086   1091     1
   1087   1089     1
   1087   1090     1
   1087   1091     1

[ angles ]
;    ai     aj     ak funct         c0         c1         c2         c3
      1      4      7     1   111.0400475 552.288000
      1      8      9     1   112.3500484 533.878400
      1      8     12     1   112.3500484 533.878400
      4      1      8     1   111.0400475 552.288000
      4      7     15     1   112.3500484 533.878400
      4      7     18     1   112.3500484 533.878400
      7     15     21     1   111.0400475 552.288000
      7     18     24     1   111.0400475 552.288000
      8      9     30     1   111.0400475 552.288000
      8     12     27     1   111.0400475 552.288000
      9      8     12     1   112.3500484 533.878400
      9     30     34     1   111.0400475 529.694400
     12     27     33     1   111.0400475 529.694400
     15      7     18     1   112.3500484 533.878400
     15     21     35     1   111.0400475 529.694400
     18     24     36     1   111.0400475 529.694400
     21     35     38     1   123.2000528 564.003200
     21     35    114     1   115.1800491 558.982400
     24     36     39     1   123.2000528 564.003200
     24     36    139     1   115.1800491 558.982400
     27     33     37     1   123.2000528 564.003200
     27     33     64     1   115.1800491 558.982400
     30     34     40     1   123.2000528 564.003200
     30     34     89     1   115.1800491 558.982400
     33     64     44     1   120.6900519 530.531200
     34     89     69     1   120.6900519 530.531200
     35    114     94     1   120.6900519 530.531200
     36    139    119     1   120.6900519 530.531200
     37     33     64     1   123.0500530 620.905600
     38     35    114     1   123.0500530 620.905600
     39     36    139     1   123.0500530 620.905600
     40     34     89     1   123.0500530 620.905600
     41     44     64     1   111.6100477 551.451200
     41     47     48     1   112.3500484 533.878400
     41     47     51     1   112.3500484 533.878400
     44     41     47     1   111.0400475 552.288000
     47     48     57     1   111.0400475 552.288000
     47     51     54     1   111.0400475 552.288000
     48     47     51     1   112.3500484 533.878400
     48     57     61     1   111.0400475 529.694400
     51     54     60     1   111.0400475 529.694400
     54     60     62     1   123.2000528 564.003200
     54     60    164     1   115.1800491 558.982400
     57     61     63     1   123.2000528 564.003200
     57     61    189     1   115.1800491 558.982400
     60    164    144     1   120.6900519 530.531200
     61    189    169     1   120.6900519 530.531200
     62     60    164     1   123.0500530 620.905600
     63     61    189     1   123.0500530 620.905600
     66     69     89     1   111.6100477 551.451200
     66     72     73     1   112.3500484 533.878400
     66     72     76     1   112.3500484 533.878400
     69     66     72     1   111.0400475 552.288000
     72     73     82     1   111.0400475 552.288000
     72     76     79     1   111.0400475 552.288000
     73     72     76     1   112.3500484 533.878400
     73     82     86     1   111.0400475 529.694400
     76     79     85     1   111.0400475 529.694400
     79     85     87     1   123.2000528 564.003200
     79     85    214     1   115.1800491 558.982400
     82     86     88     1   123.2000528 564.003200
     82     86    239     1   115.1800491 558.982400
     85    214    194     1   120.6900519 530.531200
     86    239    219     1   120.6900519 530.531200
     87     85    214     1   123.0500530 620.905600
     88     86    239     1   123.0500530 620.905600
     91     94    114     1   111.6100477 551.451200
     91     97     98     1   112.3500484 533.878400
     91     97    101     1   112.3500484 533.878400
     94     91     97     1   111.0400475 552.288000
     97     98    107     1   111.0400475 552.288000
     97    101    104     1   111.0400475 552.288000
     98     97    101     1   112.3500484 533.878400
     98    107    111     1   111.0400475 529.694400
    101    104    110     1   111.0400475 529.694400
    104    110    112     1   123.2000528 564.003200
    104    110    264     1   115.1800491 558.982400
    107    111    113     1   123.2000528 564.003200
    107    111    289     1   115.1800491 558.982400
    110    264    244     1   120.6900519 530.531200
    111    289    269     1   120.6900519 530.531200
    112    110    264     1   123.0500530 620.905600
    113    111    289     1   123.0500530 620.905600
    116    119    139     1   111.6100477 551.451200
    116    122    123     1   112.3500484 533.878400
    116    122    126     1   112.3500484 533.878400
    119    116    122     1   111.0400475 552.288000
    122    123    132     1   111.0400475 552.288000
    122    126    129     1   111.0400475 552.288000
    123    122    126     1   112.3500484 533.878400
    123    132    136     1   111.0400475 529.694400
    126    129    135     1   111.0400475 529.694400
    129    135    137     1   123.2000528 564.003200
    129    135    314     1   115.1800491 558.982400
    132    136    138     1   123.2000528 564.003200
    132    136    339     1   115.1800491 558.982400
    135    314    294     1   120.6900519 530.531200
    136    339    319     1   120.6900519 530.531200
    137    135    314     1   123.0500530 620.905600
    138    136    339     1   123.0500530 620.905600
    141    144    164     1   111.6100477 551.451200
    141    147    148     1   112.3500484 533.878400
    141    147    151     1   112.3500484 533.878400
    144    141    147     1   111.0400475 552.288000
    147    148    157     1   111.0400475 552.288000
    147    151    154     1   111.0400475 552.288000
    148    147    151     1   112.3500484 533.878400
    148    157    161     1   111.0400475 529.694400
    151    154    160     1   111.0400475 529.694400
    154    160    162     1   123.2000528 564.003200
    154    160    364     1   115.1800491 558.982400
    157    161    163     1   123.2000528 564.003200
    157    161    389     1   115.1800491 558.982400
    160    364    344     1   120.6900519 530.531200
    161    389    369     1   120.6900519 530.531200
    162    160    364     1   123.0500530 620.905600
    163    161    389     1   123.0500530 620.905600
    166    169    189     1   111.6100477 551.451200
    166    172    173     1   112.3500484 533.878400
    166    172    176     1   112.3500484 533.878400
    169    166    172     1   111.0400475 552.288000
    172    173    182     1   111.0400475 552.288000
    172    176    179     1   111.0400475 552.288000
    173    172    176     1   112.3500484 533.878400
    173    182    186     1   111.0400475 529.694400
    176    179    185     1   111.0400475 529.694400
    179    185    187     1   123.2000528 564.003200
    179    185    414     1   115.1800491 558.982400
    182    186    188     1   123.2000528 564.003200
    182    186    439     1   115.1800491 558.982400
    185    414    394     1   120.6900519 530.531200
    186    439    419     1   120.6900519 530.531200
    187    185    414     1   123.0500530 620.905600
    188    186    439     1   123.0500530 620.905600
    191    194    214     1   111.6100477 551.451200
    191    197    198     1   112.3500484 533.878400
    191    197    201     1   112.3500484 533.878400
    194    191    197     1   111.0400475 552.288000
    197    198    207     1   111.0400475 552.288000
    197    201    204     1   111.0400475 552.288000
    198    197    201     1   112.3500484 533.878400
    198    207    211     1   111.0400475 529.694400
    201    204    210     1   111.0400475 529.694400
    204    210    212     1   123.2000528 564.003200
    204    210    464     1   115.1800491 558.982400
    207    211    213     1   123.2000528 564.003200
    207    211    489     1   115.1800491 558.982400
    210    464    444     1   120.6900519 530.531200
    211    489    469     1   120.6900519 530.531200
    212    210    464     1   123.0500530 620.905600
    213    211    489     1   123.0500530 620.905600
    216    219    239     1   111.6100477 551.451200
    216    222    223     1   112.3500484 533.878400
    216    222    226     1   112.3500484 533.878400
    219    216    222     1   111.0400475 552.288000
    222    223    232     1   111.0400475 552.288000
    222    226    229     1   111.0400475 552.288000
    223    222    226     1   112.3500484 533.878400
    223    232    236     1   111.0400475 529.694400
    226    229    235     1   111.0400475 529.694400
    229    235    237     1   123.2000528 564.003200
    229    235    514     1   115.1800491 558.982400
    232    236    238     1   123.2000528 564.003200
    232    236    539     1   115.1800491 558.982400
    235    514    494     1   120.6900519 530.531200
    236    539    519     1   120.6900519 530.531200
    237    235    514     1   123.0500530 620.905600
    238    236    539     1   123.0500530 620.905600
    241    244    264     1   111.6100477 551.451200
    241    247    248     1   112.3500484 533.878400
    241    247    251     1   112.3500484 533.878400
    244    241    247     1   111.0400475 552.288000
    247    248    257     1   111.0400475 552.288000
    247    251    254     1   111.0400475 552.288000
    248    247    251     1   112.3500484 533.878400
    248    257    261     1   111.0400475 529.694400
    251    254    260     1   111.0400475 529.694400
    254    260    262     1   123.2000528 564.003200
    254    260    564     1   115.1800491 558.982400
    257    261    263     1   123.2000528 564.003200
    257    261    589     1   115.1800491 558.982400
    260    564    544     1   120.6900519 530.531200
    261    589    569     1   120.6900519 530.531200
    262    260    564     1   123.0500530 620.905600
    263    261    589     1   123.0500530 620.905600
    266    269    289     1   111.6100477 551.451200
    266    272    273     1   112.3500484 533.878400
    266    272    276     1   112.3500484 533.878400
    269    266    272     1   111.0400475 552.288000
    272    273    282     1   111.0400475 552.288000
    272    276    279     1   111.0400475 552.288000
    273    272    276     1   112.3500484 533.878400
    273    282    286     1   111.0400475 529.694400
    276    279    285     1   111.0400475 529.694400
    279    285    287     1   123.2000528 564.003200
    279    285    614     1   115.1800491 558.982400
    282    286    288     1   123.2000528 564.003200
    282    286    639     1   115.1800491 558.982400
    285    614    594     1   120.6900519 530.531200
    286    639    619     1   120.6900519 530.531200
    287    285    614     1   123.0500530 620.905600
    288    286    639     1   123.0500530 620.905600
    291    294    314     1   111.6100477 551.451200
    291    297    298     1   112.3500484 533.878400
    291    297    301     1   112.3500484 533.878400
    294    291    297     1   111.0400475 552.288000
    297    298    307     1   111.0400475 552.288000
    297    301    304     1   111.0400475 552.288000
    298    297    301     1   112.3500484 533.878400
    298    307    311     1   111.0400475 529.694400
    301    304    310     1   111.0400475 529.694400
    304    310    312     1   123.2000528 564.003200
    304    310    664     1   115.1800491 558.982400
    307    311    313     1   123.2000528 564.003200
    307    311    689     1   115.1800491 558.982400
    310    664    644     1   120.6900519 530.531200
    311    689    669     1   120.6900519 530.531200
    312    310    664     1   123.0500530 620.905600
    313    311    689     1   123.0500530 620.905600
    316    319    339     1   111.6100477 551.451200
    316    322    323     1   112.3500484 533.878400
    316    322    326     1   112.3500484 533.878400
    319    316    322     1   111.0400475 552.288000
    322    323    332     1   111.0400475 552.288000
    322    326    329     1   111.0400475 552.288000
    323    322    326     1   112.3500484 533.878400
    323    332    336     1   111.0400475 529.694400
    326    329    335     1   111.0400475 529.694400
    329    335    337     1   123.2000528 564.003200
    329    335    714     1   115.1800491 558.982400
    332    336    338     1   123.2000528 564.003200
    332    336    739     1   115.1800491 558.982400
    335    714    694     1   120.6900519 530.531200
    336    739    719     1   120.6900519 530.531200
    337    335    714     1   123.0500530 620.905600
    338    336    739     1   123.0500530 620.905600
    341    344    364     1   111.6100477 551.451200
    341    347    348     1   112.3500484 533.878400
    341    347    351     1   112.3500484 533.878400
    344    341    347     1   111.0400475 552.288000
    347    348    357     1   111.0400475 552.288000
    347    351    354     1   111.0400475 552.288000
    348    347    351     1   112.3500484 533.878400
    348    357    361     1   111.0400475 529.694400
    351    354    360     1   111.0400475 529.694400
    354    360    750     1   115.1800491 558.982400
    354    360    362     1   123.2000528 564.003200
    357    361    363     1   123.2000528 564.003200
    357    361    761     1   115.1800491 558.982400
    360    750    741     1   120.6900519 530.531200
    361    761    752     1   120.6900519 530.531200
    362    360    750     1   123.0500530 620.905600
    363    361    761     1   123.0500530 620.905600
    366    369    389     1   111.6100477 551.451200
    366    372    373     1   112.3500484 533.878400
    366    372    376     1   112.3500484 533.878400
    369    366    372     1   111.0400475 552.288000
    372    373    382     1   111.0400475 552.288000
    372    376    379     1   111.0400475 552.288000
    373    372    376     1   112.3500484 533.878400
    373    382    386     1   111.0400475 529.694400
    376    379    385     1   111.0400475 529.694400
    379    385    772     1   115.1800491 558.982400
    379    385    387     1   123.2000528 564.003200
    382    386    388     1   123.2000528 564.003200
    382    386    783     1   115.1800491 558.982400
    385    772    763     1   120.6900519 530.531200
    386    783    774     1   120.6900519 530.531200
    387    385    772     1   123.0500530 620.905600
    388    386    783     1   123.0500530 620.905600
    391    394    414     1   111.6100477 551.451200
    391    397    398     1   112.3500484 533.878400
    391    397    401     1   112.3500484 533.878400
    394    391    397     1   111.0400475 552.288000
    397    398    407     1   111.0400475 552.288000
    397    401    404     1   111.0400475 552.288000
    398    397    401     1   112.3500484 533.878400
    398    407    411     1   111.0400475 529.694400
    401    404    410     1   111.0400475 529.694400
    404    410    794     1   115.1800491 558.982400
    404    410    412     1   123.2000528 564.003200
    407    411    413     1   123.2000528 564.003200
    407    411    805     1   115.1800491 558.982400
    410    794    785     1   120.6900519 530.531200
    411    805    796     1   120.6900519 530.531200
    412    410    794     1   123.0500530 620.905600
    413    411    805     1   123.0500530 620.905600
    416    419    439     1   111.6100477 551.451200
    416    422    423     1   112.3500484 533.878400
    416    422    426     1   112.3500484 533.878400
    419    416    422     1   111.0400475 552.288000
    422    423    432     1   111.0400475 552.288000
    422    426    429     1   111.0400475 552.288000
    423    422    426     1   112.3500484 533.878400
    423    432    436     1   111.0400475 529.694400
    426    429    435     1   111.0400475 529.694400
    429    435    816     1   115.1800491 558.982400
    429    435    437     1   123.2000528 564.003200
    432    436    438     1   123.2000528 564.003200
    432    436    827     1   115.1800491 558.982400
    435    816    807     1   120.6900519 530.531200
    436    827    818     1   120.6900519 530.531200
    437    435    816     1   123.0500530 620.905600
    438    436    827     1   123.0500530 620.905600
    441    444    464     1   111.6100477 551.451200
    441    447    448     1   112.3500484 533.878400
    441    447    451     1   112.3500484 533.878400
    444    441    447     1   111.0400475 552.288000
    447    448    457     1   111.0400475 552.288000
    447    451    454     1   111.0400475 552.288000
    448    447    451     1   112.3500484 533.878400
    448    457    461     1   111.0400475 529.694400
    451    454    460     1   111.0400475 529.694400
    454    460    838     1   115.1800491 558.982400
    454    460    462     1   123.2000528 564.003200
    457    461    463     1   123.2000528 564.003200
    457    461    849     1   115.1800491 558.982400
    460    838    829     1   120.6900519 530.531200
    461    849    840     1   120.6900519 530.531200
    462    460    838     1   123.0500530 620.905600
    463    461    849     1   123.0500530 620.905600
    466    469    489     1   111.6100477 551.451200
    466    472    473     1   112.3500484 533.878400
    466    472    476     1   112.3500484 533.878400
    469    466    472     1   111.0400475 552.288000
    472    473    482     1   111.0400475 552.288000
    472    476    479     1   111.0400475 552.288000
    473    472    476     1   112.3500484 533.878400
    473    482    486     1   111.0400475 529.694400
    476    479    485     1   111.0400475 529.694400
    479    485    860     1   115.1800491 558.982400
    479    485    487     1   123.2000528 564.003200
    482    486    488     1   123.2000528 564.003200
    482    486    871     1   115.1800491 558.982400
    485    860    851     1   120.6900519 530.531200
    486    871    862     1   120.6900519 530.531200
    487    485    860     1   123.0500530 620.905600
    488    486    871     1   123.0500530 620.905600
    491    494    514     1   111.6100477 551.451200
    491    497    498     1   112.3500484 533.878400
    491    497    501     1   112.3500484 533.878400
    494    491    497     1   111.0400475 552.288000
    497    498    507     1   111.0400475 552.288000
    497    501    504     1   111.0400475 552.288000
    498    497    501     1   112.3500484 533.878400
    498    507    511     1   111.0400475 529.694400
    501    504    510     1   111.0400475 529.694400
    504    510    882     1   115.1800491 558.982400
    504    510    512     1   123.2000528 564.003200
    507    511    513     1   123.2000528 564.003200
    507    511    893     1   115.1800491 558.982400
    510    882    873     1   120.6900519 530.531200
    511    893    884     1   120.6900519 530.531200
    512    510    882     1   123.0500530 620.905600
    513    511    893     1   123.0500530 620.905600
    516    519    539     1   111.6100477 551.451200
    516    522    523     1   112.3500484 533.878400
    516    522    526     1   112.3500484 533.878400
    519    516    522     1   111.0400475 552.288000
    522    523    532     1   111.0400475 552.288000
    522    526    529     1   111.0400475 552.288000
    523    522    526     1   112.3500484 533.878400
    523    532    536     1   111.0400475 529.694400
    526    529    535     1   111.0400475 529.694400
    529    535    904     1   115.1800491 558.982400
    529    535    537     1   123.2000528 564.003200
    532    536    538     1   123.2000528 564.003200
    532    536    915     1   115.1800491 558.982400
    535    904    895     1   120.6900519 530.531200
    536    915    906     1   120.6900519 530.531200
    537    535    904     1   123.0500530 620.905600
    538    536    915     1   123.0500530 620.905600
    541    544    564     1   111.6100477 551.451200
    541    547    548     1   112.3500484 533.878400
    541    547    551     1   112.3500484 533.878400
    544    541    547     1   111.0400475 552.288000
    547    548    557     1   111.0400475 552.288000
    547    551    554     1   111.0400475 552.288000
    548    547    551     1   112.3500484 533.878400
    548    557    561     1   111.0400475 529.694400
    551    554    560     1   111.0400475 529.694400
    554    560    926     1   115.1800491 558.982400
    554    560    562     1   123.2000528 564.003200
    557    561    563     1   123.2000528 564.003200
    557    561    937     1   115.1800491 558.982400
    560    926    917     1   120.6900519 530.531200
    561    937    928     1   120.6900519 530.531200
    562    560    926     1   123.0500530 620.905600
    563    561    937     1   123.0500530 620.905600
    566    569    589     1   111.6100477 551.451200
    566    572    573     1   112.3500484 533.878400
    566    572    576     1   112.3500484 533.878400
    569    566    572     1   111.0400475 552.288000
    572    573    582     1   111.0400475 552.288000
    572    576    579     1   111.0400475 552.288000
    573    572    576     1   112.3500484 533.878400
    573    582    586     1   111.0400475 529.694400
    576    579    585     1   111.0400475 529.694400
    579    585    948     1   115.1800491 558.982400
    579    585    587     1   123.2000528 564.003200
    582    586    588     1   123.2000528 564.003200
    582    586    959     1   115.1800491 558.982400
    585    948    939     1   120.6900519 530.531200
    586    959    950     1   120.6900519 530.531200
    587    585    948     1   123.0500530 620.905600
    588    586    959     1   123.0500530 620.905600
    591    594    614     1   111.6100477 551.451200
    591    597    598     1   112.3500484 533.878400
    591    597    601     1   112.3500484 533.878400
    594    591    597     1   111.0400475 552.288000
    597    598    607     1   111.0400475 552.288000
    597    601    604     1   111.0400475 552.288000
    598    597    601     1   112.3500484 533.878400
    598    607    611     1   111.0400475 529.694400
    601    604    610     1   111.0400475 529.694400
    604    610    970     1   115.1800491 558.982400
    604    610    612     1   123.2000528 564.003200
    607    611    613     1   123.2000528 564.003200
    607    611    981     1   115.1800491 558.982400
    610    970    961     1   120.6900519 530.531200
    611    981    972     1   120.6900519 530.531200
    612    610    970     1   123.0500530 620.905600
    613    611    981     1   123.0500530 620.905600
    616    619    639     1   111.6100477 551.451200
    616    622    623     1   112.3500484 533.878400
    616    622    626     1   112.3500484 533.878400
    619    616    622     1   111.0400475 552.288000
    622    623    632     1   111.0400475 552.288000
    622    626    629     1   111.0400475 552.288000
    623    622    626     1   112.3500484 533.878400
    623    632    636     1   111.0400475 529.694400
    626    629    635     1   111.0400475 529.694400
    629    635    992     1   115.1800491 558.982400
    629    635    637     1   123.2000528 564.003200
    632    636    638     1   123.2000528 564.003200
    632    636   1003     1   115.1800491 558.982400
    635    992    983     1   120.6900519 530.531200
    636   1003    994     1   120.6900519 530.531200
    637    635    992     1   123.0500530 620.905600
    638    636   1003     1   123.0500530 620.905600
    641    644    664     1   111.6100477 551.451200
    641    647    648     1   112.3500484 533.878400
    641    647    651     1   112.3500484 533.878400
    644    641    647     1   111.0400475 552.288000
    647    648    657     1   111.0400475 552.288000
    647    651    654     1   111.0400475 552.288000
    648    647    651     1   112.3500484 533.878400
    648    657    661     1   111.0400475 529.694400
    651    654    660     1   111.0400475 529.694400
    654    660   1014     1   115.1800491 558.982400
    654    660    662     1   123.2000528 564.003200
    657    661    663     1   123.2000528 564.003200
    657    661   1025     1   115.1800491 558.982400
    660   1014   1005     1   120.6900519 530.531200
    661   1025   1016     1   120.6900519 530.531200
    662    660   1014     1   123.0500530 620.905600
    663    661   1025     1   123.0500530 620.905600
    666    669    689     1   111.6100477 551.451200
    666    672    673     1   112.3500484 533.878400
    666    672    676     1   112.3500484 533.878400
    669    666    672     1   111.0400475 552.288000
    672    673    682     1   111.0400475 552.288000
    672    676    679     1   111.0400475 552.288000
    673    672    676     1   112.3500484 533.878400
    673    682    686     1   111.0400475 529.694400
    676    679    685     1   111.0400475 529.694400
    679    685   1036     1   115.1800491 558.982400
    679    685    687     1   123.2000528 564.003200
    682    686    688     1   123.2000528 564.003200
    682    686   1047     1   115.1800491 558.982400
    685   1036   1027     1   120.6900519 530.531200
    686   1047   1038     1   120.6900519 530.531200
    687    685   1036     1   123.0500530 620.905600
    688    686   1047     1   123.0500530 620.905600
    691    694    714     1   111.6100477 551.451200
    691    697    698     1   112.3500484 533.878400
    691    697    701     1   112.3500484 533.878400
    694    691    697     1   111.0400475 552.288000
    697    698    707     1   111.0400475 552.288000
    697    701    704     1   111.0400475 552.288000
    698    697    701     1   112.3500484 533.878400
    698    707    711     1   111.0400475 529.694400
    701    704    710     1   111.0400475 529.694400
    704    710   1058     1   115.1800491 558.982400
    704    710    712     1   123.2000528 564.003200
    707    711    713     1   123.2000528 564.003200
    707    711   1069     1   115.1800491 558.982400
    710   1058   1049     1   120.6900519 530.531200
    711   1069   1060     1   120.6900519 530.531200
    712    710   1058     1   123.0500530 620.905600
    713    711   1069     1   123.0500530 620.905600
    716    719    739     1   111.6100477 551.451200
    716    722    723     1   112.3500484 533.878400
    716    722    726     1   112.3500484 533.878400
    719    716    722     1   111.0400475 552.288000
    722    723    732     1   111.0400475 552.288000
    722    726    729     1   111.0400475 552.288000
    723    722    726     1   112.3500484 533.878400
    723    732    736     1   111.0400475 529.694400
    726    729    735     1   111.0400475 529.694400
    729    735   1080     1   115.1800491 558.982400
    729    735    737     1   123.2000528 564.003200
    732    736   1091     1   115.1800491 558.982400
    732    736    738     1   123.2000528 564.003200
    735   1080   1071     1   120.6900519 530.531200
    736   1091   1082     1   120.6900519 530.531200
    737    735   1080     1   123.0500530 620.905600
    738    736   1091     1   123.0500530 620.905600
    741    744    747     1   111.0400475 552.288000
    744    741    750     1   111.6100477 551.451200
    752    755    758     1   111.0400475 552.288000
    755    752    761     1   111.6100477 551.451200
    763    766    769     1   111.0400475 552.288000
    766    763    772     1   111.6100477 551.451200
    774    777    780     1   111.0400475 552.288000
    777    774    783     1   111.6100477 551.451200
    785    788    791     1   111.0400475 552.288000
    788    785    794     1   111.6100477 551.451200
    796    799    802     1   111.0400475 552.288000
    799    796    805     1   111.6100477 551.451200
    807    810    813     1   111.0400475 552.288000
    810    807    816     1   111.6100477 551.451200
    818    821    824     1   111.0400475 552.288000
    821    818    827     1   111.6100477 551.451200
    829    832    835     1   111.0400475 552.288000
    832    829    838     1   111.6100477 551.451200
    840    843    846     1   111.0400475 552.288000
    843    840    849     1   111.6100477 551.451200
    851    854    857     1   111.0400475 552.288000
    854    851    860     1   111.6100477 551.451200
    862    865    868     1   111.0400475 552.288000
    865    862    871     1   111.6100477 551.451200
    873    876    879     1   111.0400475 552.288000
    876    873    882     1   111.6100477 551.451200
    884    887    890     1   111.0400475 552.288000
    887    884    893     1   111.6100477 551.451200
    895    898    901     1   111.0400475 552.288000
    898    895    904     1   111.6100477 551.451200
    906    909    912     1   111.0400475 552.288000
    909    906    915     1   111.6100477 551.451200
    917    920    923     1   111.0400475 552.288000
    920    917    926     1   111.6100477 551.451200
    928    931    934     1   111.0400475 552.288000
    931    928    937     1   111.6100477 551.451200
    939    942    945     1   111.0400475 552.288000
    942    939    948     1   111.6100477 551.451200
    950    953    956     1   111.0400475 552.288000
    953    950    959     1   111.6100477 551.451200
    961    964    967     1   111.0400475 552.288000
    964    961    970     1   111.6100477 551.451200
    972    975    978     1   111.0400475 552.288000
    975    972    981     1   111.6100477 551.451200
    983    986    989     1   111.0400475 552.288000
    986    983    992     1   111.6100477 551.451200
    994    997   1000     1   111.0400475 552.288000
    997    994   1003     1   111.6100477 551.451200
   1005   1008   1011     1   111.0400475 552.288000
   1008   1005   1014     1   111.6100477 551.451200
   1016   1019   1022     1   111.0400475 552.288000
   1019   1016   1025     1   111.6100477 551.451200
   1027   1030   1033     1   111.0400475 552.288000
   1030   1027   1036     1   111.6100477 551.451200
   1038   1041   1044     1   111.0400475 552.288000
   1041   1038   1047     1   111.6100477 551.451200
   1049   1052   1055     1   111.0400475 552.288000
   1052   1049   1058     1   111.6100477 551.451200
   1060   1063   1066     1   111.0400475 552.288000
   1063   1060   1069     1   111.6100477 551.451200
   1071   1074   1077     1   111.0400475 552.288000
   1074   1071   1080     1   111.6100477 551.451200
   1082   1085   1088     1   111.0400475 552.288000
   1085   1082   1091     1   111.6100477 551.451200
      1      4      5     1   109.5600471 388.275200
      1      4      6     1   109.5600471 388.275200
      2      1      4     1   109.5600471 388.275200
      2      1      8     1   109.8800469 414.216000
      2      1      3     1   108.4600466 328.025600
      3      1      4     1   109.5600471 388.275200
      3      1      8     1   109.8800469 414.216000
      5      4      7     1   109.8800469 414.216000
      5      4      6     1   108.4600466 328.025600
      6      4      7     1   109.8800469 414.216000
      7     15     16     1   109.8800469 414.216000
      7     15     17     1   109.8800469 414.216000
      7     18     19     1   109.8800469 414.216000
      7     18     20     1   109.8800469 414.216000
      8      9     10     1   109.8800469 414.216000
      8      9     11     1   109.8800469 414.216000
      8     12     13     1   109.8800469 414.216000
      8     12     14     1   109.8800469 414.216000
      9     30     31     1   109.8000471 387.438400
      9     30     32     1   109.8000471 387.438400
     10      9     30     1   109.5600471 388.275200
     10      9     11     1   108.4600466 328.025600
     11      9     30     1   109.5600471 388.275200
     12     27     28     1   109.8000471 387.438400
     12     27     29     1   109.8000471 387.438400
     13     12     27     1   109.5600471 388.275200
     13     12     14     1   108.4600466 328.025600
     14     12     27     1   109.5600471 388.275200
     15     21     22     1   109.8000471 387.438400
     15     21     23     1   109.8000471 387.438400
     16     15     21     1   109.5600471 388.275200
     16     15     17     1   108.4600466 328.025600
     17     15     21     1   109.5600471 388.275200
     18     24     25     1   109.8000471 387.438400
     18     24     26     1   109.8000471 387.438400
     19     18     24     1   109.5600471 388.275200
     19     18     20     1   108.4600466 328.025600
     20     18     24     1   109.5600471 388.275200
     22     21     35     1   108.7700466 392.459200
     22     21     23     1   107.5800459 329.699200
     23     21     35     1   108.7700466 392.459200
     25     24     36     1   108.7700466 392.459200
     25     24     26     1   107.5800459 329.699200
     26     24     36     1   108.7700466 392.459200
     28     27     33     1   108.7700466 392.459200
     28     27     29     1   107.5800459 329.699200
     29     27     33     1   108.7700466 392.459200
     31     30     34     1   108.7700466 392.459200
     31     30     32     1   107.5800459 329.699200
     32     30     34     1   108.7700466 392.459200
     33     64     65     1   117.5500507 404.174400
     34     89     90     1   117.5500507 404.174400
     35    114    115     1   117.5500507 404.174400
     36    139    140     1   117.5500507 404.174400
     41     44     45     1   109.5600471 388.275200
     41     44     46     1   109.5600471 388.275200
     42     41     44     1   109.5600471 388.275200
     42     41     47     1   109.8800469 414.216000
     42     41     43     1   108.4600466 328.025600
     43     41     44     1   109.5600471 388.275200
     43     41     47     1   109.8800469 414.216000
     44     64     65     1   117.6800502 383.254400
     45     44     64     1   108.8800464 416.726400
     45     44     46     1   108.4600466 328.025600
     46     44     64     1   108.8800464 416.726400
     47     48     49     1   109.8800469 414.216000
     47     48     50     1   109.8800469 414.216000
     47     51     52     1   109.8800469 414.216000
     47     51     53     1   109.8800469 414.216000
     48     57     58     1   109.8000471 387.438400
     48     57     59     1   109.8000471 387.438400
     49     48     57     1   109.5600471 388.275200
     49     48     50     1   108.4600466 328.025600
     50     48     57     1   109.5600471 388.275200
     51     54     55     1   109.8000471 387.438400
     51     54     56     1   109.8000471 387.438400
     52     51     54     1   109.5600471 388.275200
     52     51     53     1   108.4600466 328.025600
     53     51     54     1   109.5600471 388.275200
     55     54     60     1   108.7700466 392.459200
     55     54     56     1   107.5800459 329.699200
     56     54     60     1   108.7700466 392.459200
     58     57     61     1   108.7700466 392.459200
     58     57     59     1   107.5800459 329.699200
     59     57     61     1   108.7700466 392.459200
     60    164    165     1   117.5500507 404.174400
     61    189    190     1   117.5500507 404.174400
     66     69     70     1   109.5600471 388.275200
     66     69     71     1   109.5600471 388.275200
     67     66     69     1   109.5600471 388.275200
     67     66     72     1   109.8800469 414.216000
     67     66     68     1   108.4600466 328.025600
     68     66     69     1   109.5600471 388.275200
     68     66     72     1   109.8800469 414.216000
     69     89     90     1   117.6800502 383.254400
     70     69     89     1   108.8800464 416.726400
     70     69     71     1   108.4600466 328.025600
     71     69     89     1   108.8800464 416.726400
     72     73     74     1   109.8800469 414.216000
     72     73     75     1   109.8800469 414.216000
     72     76     77     1   109.8800469 414.216000
     72     76     78     1   109.8800469 414.216000
     73     82     83     1   109.8000471 387.438400
     73     82     84     1   109.8000471 387.438400
     74     73     82     1   109.5600471 388.275200
     74     73     75     1   108.4600466 328.025600
     75     73     82     1   109.5600471 388.275200
     76     79     80     1   109.8000471 387.438400
     76     79     81     1   109.8000471 387.438400
     77     76     79     1   109.5600471 388.275200
     77     76     78     1   108.4600466 328.025600
     78     76     79     1   109.5600471 388.275200
     80     79     85     1   108.7700466 392.459200
     80     79     81     1   107.5800459 329.699200
     81     79     85     1   108.7700466 392.459200
     83     82     86     1   108.7700466 392.459200
     83     82     84     1   107.5800459 329.699200
     84     82     86     1   108.7700466 392.459200
     85    214    215     1   117.5500507 404.174400
     86    239    240     1   117.5500507 404.174400
     91     94     95     1   109.5600471 388.275200
     91     94     96     1   109.5600471 388.275200
     92     91     94     1   109.5600471 388.275200
     92     91     97     1   109.8800469 414.216000
     92     91     93     1   108.4600466 328.025600
     93     91     94     1   109.5600471 388.275200
     93     91     97     1   109.8800469 414.216000
     94    114    115     1   117.6800502 383.254400
     95     94    114     1   108.8800464 416.726400
     95     94     96     1   108.4600466 328.025600
     96     94    114     1   108.8800464 416.726400
     97     98     99     1   109.8800469 414.216000
     97     98    100     1   109.8800469 414.216000
     97    101    102     1   109.8800469 414.216000
     97    101    103     1   109.8800469 414.216000
     98    107    108     1   109.8000471 387.438400
     98    107    109     1   109.8000471 387.438400
     99     98    107     1   109.5600471 388.275200
     99     98    100     1   108.4600466 328.025600
    100     98    107     1   109.5600471 388.275200
    101    104    105     1   109.8000471 387.438400
    101    104    106     1   109.8000471 387.438400
    102    101    104     1   109.5600471 388.275200
    102    101    103     1   108.4600466 328.025600
    103    101    104     1   109.5600471 388.275200
    105    104    110     1   108.7700466 392.459200
    105    104    106     1   107.5800459 329.699200
    106    104    110     1   108.7700466 392.459200
    108    107    111     1   108.7700466 392.459200
    108    107    109     1   107.5800459 329.699200
    109    107    111     1   108.7700466 392.459200
    110    264    265     1   117.5500507 404.174400
    111    289    290     1   117.5500507 404.174400
    116    119    120     1   109.5600471 388.275200
    116    119    121     1   109.5600471 388.275200
    117    116    119     1   109.5600471 388.275200
    117    116    122     1   109.8800469 414.216000
    117    116    118     1   108.4600466 328.025600
    118    116    119     1   109.5600471 388.275200
    118    116    122     1   109.8800469 414.216000
    119    139    140     1   117.6800502 383.254400
    120    119    139     1   108.8800464 416.726400
    120    119    121     1   108.4600466 328.025600
    121    119    139     1   108.8800464 416.726400
    122    123    124     1   109.8800469 414.216000
    122    123    125     1   109.8800469 414.216000
    122    126    127     1   109.8800469 414.216000
    122    126    128     1   109.8800469 414.216000
    123    132    133     1   109.8000471 387.438400
    123    132    134     1   109.8000471 387.438400
    124    123    132     1   109.5600471 388.275200
    124    123    125     1   108.4600466 328.025600
    125    123    132     1   109.5600471 388.275200
    126    129    130     1   109.8000471 387.438400
    126    129    131     1   109.8000471 387.438400
    127    126    129     1   109.5600471 388.275200
    127    126    128     1   108.4600466 328.025600
    128    126    129     1   109.5600471 388.275200
    130    129    135     1   108.7700466 392.459200
    130    129    131     1   107.5800459 329.699200
    131    129    135     1   108.7700466 392.459200
    133    132    136     1   108.7700466 392.459200
    133    132    134     1   107.5800459 329.699200
    134    132    136     1   108.7700466 392.459200
    135    314    315     1   117.5500507 404.174400
    136    339    340     1   117.5500507 404.174400
    141    144    145     1   109.5600471 388.275200
    141    144    146     1   109.5600471 388.275200
    142    141    144     1   109.5600471 388.275200
    142    141    147     1   109.8800469 414.216000
    142    141    143     1   108.4600466 328.025600
    143    141    144     1   109.5600471 388.275200
    143    141    147     1   109.8800469 414.216000
    144    164    165     1   117.6800502 383.254400
    145    144    164     1   108.8800464 416.726400
    145    144    146     1   108.4600466 328.025600
    146    144    164     1   108.8800464 416.726400
    147    148    149     1   109.8800469 414.216000
    147    148    150     1   109.8800469 414.216000
    147    151    152     1   109.8800469 414.216000
    147    151    153     1   109.8800469 414.216000
    148    157    158     1   109.8000471 387.438400
    148    157    159     1   109.8000471 387.438400
    149    148    157     1   109.5600471 388.275200
    149    148    150     1   108.4600466 328.025600
    150    148    157     1   109.5600471 388.275200
    151    154    155     1   109.8000471 387.438400
    151    154    156     1   109.8000471 387.438400
    152    151    154     1   109.5600471 388.275200
    152    151    153     1   108.4600466 328.025600
    153    151    154     1   109.5600471 388.275200
    155    154    160     1   108.7700466 392.459200
    155    154    156     1   107.5800459 329.699200
    156    154    160     1   108.7700466 392.459200
    158    157    161     1   108.7700466 392.459200
    158    157    159     1   107.5800459 329.699200
    159    157    161     1   108.7700466 392.459200
    160    364    365     1   117.5500507 404.174400
    161    389    390     1   117.5500507 404.174400
    166    169    170     1   109.5600471 388.275200
    166    169    171     1   109.5600471 388.275200
    167    166    169     1   109.5600471 388.275200
    167    166    172     1   109.8800469 414.216000
    167    166    168     1   108.4600466 328.025600
    168    166    169     1   109.5600471 388.275200
    168    166    172     1   109.8800469 414.216000
    169    189    190     1   117.6800502 383.254400
    170    169    189     1   108.8800464 416.726400
    170    169    171     1   108.4600466 328.025600
    171    169    189     1   108.8800464 416.726400
    172    173    174     1   109.8800469 414.216000
    172    173    175     1   109.8800469 414.216000
    172    176    177     1   109.8800469 414.216000
    172    176    178     1   109.8800469 414.216000
    173    182    183     1   109.8000471 387.438400
    173    182    184     1   109.8000471 387.438400
    174    173    182     1   109.5600471 388.275200
    174    173    175     1   108.4600466 328.025600
    175    173    182     1   109.5600471 388.275200
    176    179    180     1   109.8000471 387.438400
    176    179    181     1   109.8000471 387.438400
    177    176    179     1   109.5600471 388.275200
    177    176    178     1   108.4600466 328.025600
    178    176    179     1   109.5600471 388.275200
    180    179    185     1   108.7700466 392.459200
    180    179    181     1   107.5800459 329.699200
    181    179    185     1   108.7700466 392.459200
    183    182    186     1   108.7700466 392.459200
    183    182    184     1   107.5800459 329.699200
    184    182    186     1   108.7700466 392.459200
    185    414    415     1   117.5500507 404.174400
    186    439    440     1   117.5500507 404.174400
    191    194    195     1   109.5600471 388.275200
    191    194    196     1   109.5600471 388.275200
    192    191    194     1   109.5600471 388.275200
    192    191    197     1   109.8800469 414.216000
    192    191    193     1   108.4600466 328.025600
    193    191    194     1   109.5600471 388.275200
    193    191    197     1   109.8800469 414.216000
    194    214    215     1   117.6800502 383.254400
    195    194    214     1   108.8800464 416.726400
    195    194    196     1   108.4600466 328.025600
    196    194    214     1   108.8800464 416.726400
    197    198    199     1   109.8800469 414.216000
    197    198    200     1   109.8800469 414.216000
    197    201    202     1   109.8800469 414.216000
    197    201    203     1   109.8800469 414.216000
    198    207    208     1   109.8000471 387.438400
    198    207    209     1   109.8000471 387.438400
    199    198    207     1   109.5600471 388.275200
    199    198    200     1   108.4600466 328.025600
    200    198    207     1   109.5600471 388.275200
    201    204    205     1   109.8000471 387.438400
    201    204    206     1   109.8000471 387.438400
    202    201    204     1   109.5600471 388.275200
    202    201    203     1   108.4600466 328.025600
    203    201    204     1   109.5600471 388.275200
    205    204    210     1   108.7700466 392.459200
    205    204    206     1   107.5800459 329.699200
    206    204    210     1   108.7700466 392.459200
    208    207    211     1   108.7700466 392.459200
    208    207    209     1   107.5800459 329.699200
    209    207    211     1   108.7700466 392.459200
    210    464    465     1   117.5500507 404.174400
    211    489    490     1   117.5500507 404.174400
    216    219    220     1   109.5600471 388.275200
    216    219    221     1   109.5600471 388.275200
    217    216    219     1   109.5600471 388.275200
    217    216    222     1   109.8800469 414.216000
    217    216    218     1   108.4600466 328.025600
    218    216    219     1   109.5600471 388.275200
    218    216    222     1   109.8800469 414.216000
    219    239    240     1   117.6800502 383.254400
    220    219    239     1   108.8800464 416.726400
    220    219    221     1   108.4600466 328.025600
    221    219    239     1   108.8800464 416.726400
    222    223    224     1   109.8800469 414.216000
    222    223    225     1   109.8800469 414.216000
    222    226    227     1   109.8800469 414.216000
    222    226    228     1   109.8800469 414.216000
    223    232    233     1   109.8000471 387.438400
    223    232    234     1   109.8000471 387.438400
    224    223    232     1   109.5600471 388.275200
    224    223    225     1   108.4600466 328.025600
    225    223    232     1   109.5600471 388.275200
    226    229    230     1   109.8000471 387.438400
    226    229    231     1   109.8000471 387.438400
    227    226    229     1   109.5600471 388.275200
    227    226    228     1   108.4600466 328.025600
    228    226    229     1   109.5600471 388.275200
    230    229    235     1   108.7700466 392.459200
    230    229    231     1   107.5800459 329.699200
    231    229    235     1   108.7700466 392.459200
    233    232    236     1   108.7700466 392.459200
    233    232    234     1   107.5800459 329.699200
    234    232    236     1   108.7700466 392.459200
    235    514    515     1   117.5500507 404.174400
    236    539    540     1   117.5500507 404.174400
    241    244    245     1   109.5600471 388.275200
    241    244    246     1   109.5600471 388.275200
    242    241    244     1   109.5600471 388.275200
    242    241    247     1   109.8800469 414.216000
    242    241    243     1   108.4600466 328.025600
    243    241    244     1   109.5600471 388.275200
    243    241    247     1   109.8800469 414.216000
    244    264    265     1   117.6800502 383.254400
    245    244    264     1   108.8800464 416.726400
    245    244    246     1   108.4600466 328.025600
    246    244    264     1   108.8800464 416.726400
    247    248    249     1   109.8800469 414.216000
    247    248    250     1   109.8800469 414.216000
    247    251    252     1   109.8800469 414.216000
    247    251    253     1   109.8800469 414.216000
    248    257    258     1   109.8000471 387.438400
    248    257    259     1   109.8000471 387.438400
    249    248    257     1   109.5600471 388.275200
    249    248    250     1   108.4600466 328.025600
    250    248    257     1   109.5600471 388.275200
    251    254    255     1   109.8000471 387.438400
    251    254    256     1   109.8000471 387.438400
    252    251    254     1   109.5600471 388.275200
    252    251    253     1   108.4600466 328.025600
    253    251    254     1   109.5600471 388.275200
    255    254    260     1   108.7700466 392.459200
    255    254    256     1   107.5800459 329.699200
    256    254    260     1   108.7700466 392.459200
    258    257    261     1   108.7700466 392.459200
    258    257    259     1   107.5800459 329.699200
    259    257    261     1   108.7700466 392.459200
    260    564    565     1   117.5500507 404.174400
    261    589    590     1   117.5500507 404.174400
    266    269    270     1   109.5600471 388.275200
    266    269    271     1   109.5600471 388.275200
    267    266    269     1   109.5600471 388.275200
    267    266    272     1   109.8800469 414.216000
    267    266    268     1   108.4600466 328.025600
    268    266    269     1   109.5600471 388.275200
    268    266    272     1   109.8800469 414.216000
    269    289    290     1   117.6800502 383.254400
    270    269    289     1   108.8800464 416.726400
    270    269    271     1   108.4600466 328.025600
    271    269    289     1   108.8800464 416.726400
    272    273    274     1   109.8800469 414.216000
    272    273    275     1   109.8800469 414.216000
    272    276    277     1   109.8800469 414.216000
    272    276    278     1   109.8800469 414.216000
    273    282    283     1   109.8000471 387.438400
    273    282    284     1   109.8000471 387.438400
    274    273    282     1   109.5600471 388.275200
    274    273    275     1   108.4600466 328.025600
    275    273    282     1   109.5600471 388.275200
    276    279    280     1   109.8000471 387.438400
    276    279    281     1   109.8000471 387.438400
    277    276    279     1   109.5600471 388.275200
    277    276    278     1   108.4600466 328.025600
    278    276    279     1   109.5600471 388.275200
    280    279    285     1   108.7700466 392.459200
    280    279    281     1   107.5800459 329.699200
    281    279    285     1   108.7700466 392.459200
    283    282    286     1   108.7700466 392.459200
    283    282    284     1   107.5800459 329.699200
    284    282    286     1   108.7700466 392.459200
    285    614    615     1   117.5500507 404.174400
    286    639    640     1   117.5500507 404.174400
    291    294    295     1   109.5600471 388.275200
    291    294    296     1   109.5600471 388.275200
    292    291    294     1   109.5600471 388.275200
    292    291    297     1   109.8800469 414.216000
    292    291    293     1   108.4600466 328.025600
    293    291    294     1   109.5600471 388.275200
    293    291    297     1   109.8800469 414.216000
    294    314    315     1   117.6800502 383.254400
    295    294    314     1   108.8800464 416.726400
    295    294    296     1   108.4600466 328.025600
    296    294    314     1   108.8800464 416.726400
    297    298    299     1   109.8800469 414.216000
    297    298    300     1   109.8800469 414.216000
    297    301    302     1   109.8800469 414.216000
    297    301    303     1   109.8800469 414.216000
    298    307    308     1   109.8000471 387.438400
    298    307    309     1   109.8000471 387.438400
    299    298    307     1   109.5600471 388.275200
    299    298    300     1   108.4600466 328.025600
    300    298    307     1   109.5600471 388.275200
    301    304    305     1   109.8000471 387.438400
    301    304    306     1   109.8000471 387.438400
    302    301    304     1   109.5600471 388.275200
    302    301    303     1   108.4600466 328.025600
    303    301    304     1   109.5600471 388.275200
    305    304    310     1   108.7700466 392.459200
    305    304    306     1   107.5800459 329.699200
    306    304    310     1   108.7700466 392.459200
    308    307    311     1   108.7700466 392.459200
    308    307    309     1   107.5800459 329.699200
    309    307    311     1   108.7700466 392.459200
    310    664    665     1   117.5500507 404.174400
    311    689    690     1   117.5500507 404.174400
    316    319    320     1   109.5600471 388.275200
    316    319    321     1   109.5600471 388.275200
    317    316    319     1   109.5600471 388.275200
    317    316    322     1   109.8800469 414.216000
    317    316    318     1   108.4600466 328.025600
    318    316    319     1   109.5600471 388.275200
    318    316    322     1   109.8800469 414.216000
    319    339    340     1   117.6800502 383.254400
    320    319    339     1   108.8800464 416.726400
    320    319    321     1   108.4600466 328.025600
    321    319    339     1   108.8800464 416.726400
    322    323    324     1   109.8800469 414.216000
    322    323    325     1   109.8800469 414.216000
    322    326    327     1   109.8800469 414.216000
    322    326    328     1   109.8800469 414.216000
    323    332    333     1   109.8000471 387.438400
    323    332    334     1   109.8000471 387.438400
    324    323    332     1   109.5600471 388.275200
    324    323    325     1   108.4600466 328.025600
    325    323    332     1   109.5600471 388.275200
    326    329    330     1   109.8000471 387.438400
    326    329    331     1   109.8000471 387.438400
    327    326    329     1   109.5600471 388.275200
    327    326    328     1   108.4600466 328.025600
    328    326    329     1   109.5600471 388.275200
    330    329    335     1   108.7700466 392.459200
    330    329    331     1   107.5800459 329.699200
    331    329    335     1   108.7700466 392.459200
    333    332    336     1   108.7700466 392.459200
    333    332    334     1   107.5800459 329.699200
    334    332    336     1   108.7700466 392.459200
    335    714    715     1   117.5500507 404.174400
    336    739    740     1   117.5500507 404.174400
    341    344    345     1   109.5600471 388.275200
    341    344    346     1   109.5600471 388.275200
    342    341    344     1   109.5600471 388.275200
    342    341    347     1   109.8800469 414.216000
    342    341    343     1   108.4600466 328.025600
    343    341    344     1   109.5600471 388.275200
    343    341    347     1   109.8800469 414.216000
    344    364    365     1   117.6800502 383.254400
    345    344    364     1   108.8800464 416.726400
    345    344    346     1   108.4600466 328.025600
    346    344    364     1   108.8800464 416.726400
    347    348    349     1   109.8800469 414.216000
    347    348    350     1   109.8800469 414.216000
    347    351    352     1   109.8800469 414.216000
    347    351    353     1   109.8800469 414.216000
    348    357    358     1   109.8000471 387.438400
    348    357    359     1   109.8000471 387.438400
    349    348    357     1   109.5600471 388.275200
    349    348    350     1   108.4600466 328.025600
    350    348    357     1   109.5600471 388.275200
    351    354    355     1   109.8000471 387.438400
    351    354    356     1   109.8000471 387.438400
    352    351    354     1   109.5600471 388.275200
    352    351    353     1   108.4600466 328.025600
    353    351    354     1   109.5600471 388.275200
    355    354    360     1   108.7700466 392.459200
    355    354    356     1   107.5800459 329.699200
    356    354    360     1   108.7700466 392.459200
    358    357    361     1   108.7700466 392.459200
    358    357    359     1   107.5800459 329.699200
    359    357    361     1   108.7700466 392.459200
    360    750    751     1   117.5500507 404.174400
    361    761    762     1   117.5500507 404.174400
    366    369    370     1   109.5600471 388.275200
    366    369    371     1   109.5600471 388.275200
    367    366    369     1   109.5600471 388.275200
    367    366    372     1   109.8800469 414.216000
    367    366    368     1   108.4600466 328.025600
    368    366    369     1   109.5600471 388.275200
    368    366    372     1   109.8800469 414.216000
    369    389    390     1   117.6800502 383.254400
    370    369    389     1   108.8800464 416.726400
    370    369    371     1   108.4600466 328.025600
    371    369    389     1   108.8800464 416.726400
    372    373    374     1   109.8800469 414.216000
    372    373    375     1   109.8800469 414.216000
    372    376    377     1   109.8800469 414.216000
    372    376    378     1   109.8800469 414.216000
    373    382    383     1   109.8000471 387.438400
    373    382    384     1   109.8000471 387.438400
    374    373    382     1   109.5600471 388.275200
    374    373    375     1   108.4600466 328.025600
    375    373    382     1   109.5600471 388.275200
    376    379    380     1   109.8000471 387.438400
    376    379    381     1   109.8000471 387.438400
    377    376    379     1   109.5600471 388.275200
    377    376    378     1   108.4600466 328.025600
    378    376    379     1   109.5600471 388.275200
    380    379    385     1   108.7700466 392.459200
    380    379    381     1   107.5800459 329.699200
    381    379    385     1   108.7700466 392.459200
    383    382    386     1   108.7700466 392.459200
    383    382    384     1   107.5800459 329.699200
    384    382    386     1   108.7700466 392.459200
    385    772    773     1   117.5500507 404.174400
    386    783    784     1   117.5500507 404.174400
    391    394    395     1   109.5600471 388.275200
    391    394    396     1   109.5600471 388.275200
    392    391    394     1   109.5600471 388.275200
    392    391    397     1   109.8800469 414.216000
    392    391    393     1   108.4600466 328.025600
    393    391    394     1   109.5600471 388.275200
    393    391    397     1   109.8800469 414.216000
    394    414    415     1   117.6800502 383.254400
    395    394    414     1   108.8800464 416.726400
    395    394    396     1   108.4600466 328.025600
    396    394    414     1   108.8800464 416.726400
    397    398    399     1   109.8800469 414.216000
    397    398    400     1   109.8800469 414.216000
    397    401    402     1   109.8800469 414.216000
    397    401    403     1   109.8800469 414.216000
    398    407    408     1   109.8000471 387.438400
    398    407    409     1   109.8000471 387.438400
    399    398    407     1   109.5600471 388.275200
    399    398    400     1   108.4600466 328.025600
    400    398    407     1   109.5600471 388.275200
    401    404    405     1   109.8000471 387.438400
    401    404    406     1   109.8000471 387.438400
    402    401    404     1   109.5600471 388.275200
    402    401    403     1   108.4600466 328.025600
    403    401    404     1   109.5600471 388.275200
    405    404    410     1   108.7700466 392.459200
    405    404    406     1   107.5800459 329.699200
    406    404    410     1   108.7700466 392.459200
    408    407    411     1   108.7700466 392.459200
    408    407    409     1   107.5800459 329.699200
    409    407    411     1   108.7700466 392.459200
    410    794    795     1   117.5500507 404.174400
    411    805    806     1   117.5500507 404.174400
    416    419    420     1   109.5600471 388.275200
    416    419    421     1   109.5600471 388.275200
    417    416    419     1   109.5600471 388.275200
    417    416    422     1   109.8800469 414.216000
    417    416    418     1   108.4600466 328.025600
    418    416    419     1   109.5600471 388.275200
    418    416    422     1   109.8800469 414.216000
    419    439    440     1   117.6800502 383.254400
    420    419    439     1   108.8800464 416.726400
    420    419    421     1   108.4600466 328.025600
    421    419    439     1   108.8800464 416.726400
    422    423    424     1   109.8800469 414.216000
    422    423    425     1   109.8800469 414.216000
    422    426    427     1   109.8800469 414.216000
    422    426    428     1   109.8800469 414.216000
    423    432    433     1   109.8000471 387.438400
    423    432    434     1   109.8000471 387.438400
    424    423    432     1   109.5600471 388.275200
    424    423    425     1   108.4600466 328.025600
    425    423    432     1   109.5600471 388.275200
    426    429    430     1   109.8000471 387.438400
    426    429    431     1   109.8000471 387.438400
    427    426    429     1   109.5600471 388.275200
    427    426    428     1   108.4600466 328.025600
    428    426    429     1   109.5600471 388.275200
    430    429    435     1   108.7700466 392.459200
    430    429    431     1   107.5800459 329.699200
    431    429    435     1   108.7700466 392.459200
    433    432    436     1   108.7700466 392.459200
    433    432    434     1   107.5800459 329.699200
    434    432    436     1   108.7700466 392.459200
    435    816    817     1   117.5500507 404.174400
    436    827    828     1   117.5500507 404.174400
    441    444    445     1   109.5600471 388.275200
    441    444    446     1   109.5600471 388.275200
    442    441    444     1   109.5600471 388.275200
    442    441    447     1   109.8800469 414.216000
    442    441    443     1   108.4600466 328.025600
    443    441    444     1   109.5600471 388.275200
    443    441    447     1   109.8800469 414.216000
    444    464    465     1   117.6800502 383.254400
    445    444    464     1   108.8800464 416.726400
    445    444    446     1   108.4600466 328.025600
    446    444    464     1   108.8800464 416.726400
    447    448    449     1   109.8800469 414.216000
    447    448    450     1   109.8800469 414.216000
    447    451    452     1   109.8800469 414.216000
    447    451    453     1   109.8800469 414.216000
    448    457    458     1   109.8000471 387.438400
    448    457    459     1   109.8000471 387.438400
    449    448    457     1   109.5600471 388.275200
    449    448    450     1   108.4600466 328.025600
    450    448    457     1   109.5600471 388.275200
    451    454    455     1   109.8000471 387.438400
    451    454    456     1   109.8000471 387.438400
    452    451    454     1   109.5600471 388.275200
    452    451    453     1   108.4600466 328.025600
    453    451    454     1   109.5600471 388.275200
    455    454    460     1   108.7700466 392.459200
    455    454    456     1   107.5800459 329.699200
    456    454    460     1   108.7700466 392.459200
    458    457    461     1   108.7700466 392.459200
    458    457    459     1   107.5800459 329.699200
    459    457    461     1   108.7700466 392.459200
    460    838    839     1   117.5500507 404.174400
    461    849    850     1   117.5500507 404.174400
    466    469    470     1   109.5600471 388.275200
    466    469    471     1   109.5600471 388.275200
    467    466    469     1   109.5600471 388.275200
    467    466    472     1   109.8800469 414.216000
    467    466    468     1   108.4600466 328.025600
    468    466    469     1   109.5600471 388.275200
    468    466    472     1   109.8800469 414.216000
    469    489    490     1   117.6800502 383.254400
    470    469    489     1   108.8800464 416.726400
    470    469    471     1   108.4600466 328.025600
    471    469    489     1   108.8800464 416.726400
    472    473    474     1   109.8800469 414.216000
    472    473    475     1   109.8800469 414.216000
    472    476    477     1   109.8800469 414.216000
    472    476    478     1   109.8800469 414.216000
    473    482    483     1   109.8000471 387.438400
    473    482    484     1   109.8000471 387.438400
    474    473    482     1   109.5600471 388.275200
    474    473    475     1   108.4600466 328.025600
    475    473    482     1   109.5600471 388.275200
    476    479    480     1   109.8000471 387.438400
    476    479    481     1   109.8000471 387.438400
    477    476    479     1   109.5600471 388.275200
    477    476    478     1   108.4600466 328.025600
    478    476    479     1   109.5600471 388.275200
    480    479    485     1   108.7700466 392.459200
    480    479    481     1   107.5800459 329.699200
    481    479    485     1   108.7700466 392.459200
    483    482    486     1   108.7700466 392.459200
    483    482    484     1   107.5800459 329.699200
    484    482    486     1   108.7700466 392.459200
    485    860    861     1   117.5500507 404.174400
    486    871    872     1   117.5500507 404.174400
    491    494    495     1   109.5600471 388.275200
    491    494    496     1   109.5600471 388.275200
    492    491    494     1   109.5600471 388.275200
    492    491    497     1   109.8800469 414.216000
    492    491    493     1   108.4600466 328.025600
    493    491    494     1   109.5600471 388.275200
    493    491    497     1   109.8800469 414.216000
    494    514    515     1   117.6800502 383.254400
    495    494    514     1   108.8800464 416.726400
    495    494    496     1   108.4600466 328.025600
    496    494    514     1   108.8800464 416.726400
    497    498    499     1   109.8800469 414.216000
    497    498    500     1   109.8800469 414.216000
    497    501    502     1   109.8800469 414.216000
    497    501    503     1   109.8800469 414.216000
    498    507    508     1   109.8000471 387.438400
    498    507    509     1   109.8000471 387.438400
    499    498    507     1   109.5600471 388.275200
    499    498    500     1   108.4600466 328.025600
    500    498    507     1   109.5600471 388.275200
    501    504    505     1   109.8000471 387.438400
    501    504    506     1   109.8000471 387.438400
    502    501    504     1   109.5600471 388.275200
    502    501    503     1   108.4600466 328.025600
    503    501    504     1   109.5600471 388.275200
    505    504    510     1   108.7700466 392.459200
    505    504    506     1   107.5800459 329.699200
    506    504    510     1   108.7700466 392.459200
    508    507    511     1   108.7700466 392.459200
    508    507    509     1   107.5800459 329.699200
    509    507    511     1   108.7700466 392.459200
    510    882    883     1   117.5500507 404.174400
    511    893    894     1   117.5500507 404.174400
    516    519    520     1   109.5600471 388.275200
    516    519    521     1   109.5600471 388.275200
    517    516    519     1   109.5600471 388.275200
    517    516    522     1   109.8800469 414.216000
    517    516    518     1   108.4600466 328.025600
    518    516    519     1   109.5600471 388.275200
    518    516    522     1   109.8800469 414.216000
    519    539    540     1   117.6800502 383.254400
    520    519    539     1   108.8800464 416.726400
    520    519    521     1   108.4600466 328.025600
    521    519    539     1   108.8800464 416.726400
    522    523    524     1   109.8800469 414.216000
    522    523    525     1   109.8800469 414.216000
    522    526    527     1   109.8800469 414.216000
    522    526    528     1   109.8800469 414.216000
    523    532    533     1   109.8000471 387.438400
    523    532    534     1   109.8000471 387.438400
    524    523    532     1   109.5600471 388.275200
    524    523    525     1   108.4600466 328.025600
    525    523    532     1   109.5600471 388.275200
    526    529    530     1   109.8000471 387.438400
    526    529    531     1   109.8000471 387.438400
    527    526    529     1   109.5600471 388.275200
    527    526    528     1   108.4600466 328.025600
    528    526    529     1   109.5600471 388.275200
    530    529    535     1   108.7700466 392.459200
    530    529    531     1   107.5800459 329.699200
    531    529    535     1   108.7700466 392.459200
    533    532    536     1   108.7700466 392.459200
    533    532    534     1   107.5800459 329.699200
    534    532    536     1   108.7700466 392.459200
    535    904    905     1   117.5500507 404.174400
    536    915    916     1   117.5500507 404.174400
    541    544    545     1   109.5600471 388.275200
    541    544    546     1   109.5600471 388.275200
    542    541    544     1   109.5600471 388.275200
    542    541    547     1   109.8800469 414.216000
    542    541    543     1   108.4600466 328.025600
    543    541    544     1   109.5600471 388.275200
    543    541    547     1   109.8800469 414.216000
    544    564    565     1   117.6800502 383.254400
    545    544    564     1   108.8800464 416.726400
    545    544    546     1   108.4600466 328.025600
    546    544    564     1   108.8800464 416.726400
    547    548    549     1   109.8800469 414.216000
    547    548    550     1   109.8800469 414.216000
    547    551    552     1   109.8800469 414.216000
    547    551    553     1   109.8800469 414.216000
    548    557    558     1   109.8000471 387.438400
    548    557    559     1   109.8000471 387.438400
    549    548    557     1   109.5600471 388.275200
    549    548    550     1   108.4600466 328.025600
    550    548    557     1   109.5600471 388.275200
    551    554    555     1   109.8000471 387.438400
    551    554    556     1   109.8000471 387.438400
    552    551    554     1   109.5600471 388.275200
    552    551    553     1   108.4600466 328.025600
    553    551    554     1   109.5600471 388.275200
    555    554    560     1   108.7700466 392.459200
    555    554    556     1   107.5800459 329.699200
    556    554    560     1   108.7700466 392.459200
    558    557    561     1   108.7700466 392.459200
    558    557    559     1   107.5800459 329.699200
    559    557    561     1   108.7700466 392.459200
    560    926    927     1   117.5500507 404.174400
    561    937    938     1   117.5500507 404.174400
    566    569    570     1   109.5600471 388.275200
    566    569    571     1   109.5600471 388.275200
    567    566    569     1   109.5600471 388.275200
    567    566    572     1   109.8800469 414.216000
    567    566    568     1   108.4600466 328.025600
    568    566    569     1   109.5600471 388.275200
    568    566    572     1   109.8800469 414.216000
    569    589    590     1   117.6800502 383.254400
    570    569    589     1   108.8800464 416.726400
    570    569    571     1   108.4600466 328.025600
    571    569    589     1   108.8800464 416.726400
    572    573    574     1   109.8800469 414.216000
    572    573    575     1   109.8800469 414.216000
    572    576    577     1   109.8800469 414.216000
    572    576    578     1   109.8800469 414.216000
    573    582    583     1   109.8000471 387.438400
    573    582    584     1   109.8000471 387.438400
    574    573    582     1   109.5600471 388.275200
    574    573    575     1   108.4600466 328.025600
    575    573    582     1   109.5600471 388.275200
    576    579    580     1   109.8000471 387.438400
    576    579    581     1   109.8000471 387.438400
    577    576    579     1   109.5600471 388.275200
    577    576    578     1   108.4600466 328.025600
    578    576    579     1   109.5600471 388.275200
    580    579    585     1   108.7700466 392.459200
    580    579    581     1   107.5800459 329.699200
    581    579    585     1   108.7700466 392.459200
    583    582    586     1   108.7700466 392.459200
    583    582    584     1   107.5800459 329.699200
    584    582    586     1   108.7700466 392.459200
    585    948    949     1   117.5500507 404.174400
    586    959    960     1   117.5500507 404.174400
    591    594    595     1   109.5600471 388.275200
    591    594    596     1   109.5600471 388.275200
    592    591    594     1   109.5600471 388.275200
    592    591    597     1   109.8800469 414.216000
    592    591    593     1   108.4600466 328.025600
    593    591    594     1   109.5600471 388.275200
    593    591    597     1   109.8800469 414.216000
    594    614    615     1   117.6800502 383.254400
    595    594    614     1   108.8800464 416.726400
    595    594    596     1   108.4600466 328.025600
    596    594    614     1   108.8800464 416.726400
    597    598    599     1   109.8800469 414.216000
    597    598    600     1   109.8800469 414.216000
    597    601    602     1   109.8800469 414.216000
    597    601    603     1   109.8800469 414.216000
    598    607    608     1   109.8000471 387.438400
    598    607    609     1   109.8000471 387.438400
    599    598    607     1   109.5600471 388.275200
    599    598    600     1   108.4600466 328.025600
    600    598    607     1   109.5600471 388.275200
    601    604    605     1   109.8000471 387.438400
    601    604    606     1   109.8000471 387.438400
    602    601    604     1   109.5600471 388.275200
    602    601    603     1   108.4600466 328.025600
    603    601    604     1   109.5600471 388.275200
    605    604    610     1   108.7700466 392.459200
    605    604    606     1   107.5800459 329.699200
    606    604    610     1   108.7700466 392.459200
    608    607    611     1   108.7700466 392.459200
    608    607    609     1   107.5800459 329.699200
    609    607    611     1   108.7700466 392.459200
    610    970    971     1   117.5500507 404.174400
    611    981    982     1   117.5500507 404.174400
    616    619    620     1   109.5600471 388.275200
    616    619    621     1   109.5600471 388.275200
    617    616    619     1   109.5600471 388.275200
    617    616    622     1   109.8800469 414.216000
    617    616    618     1   108.4600466 328.025600
    618    616    619     1   109.5600471 388.275200
    618    616    622     1   109.8800469 414.216000
    619    639    640     1   117.6800502 383.254400
    620    619    639     1   108.8800464 416.726400
    620    619    621     1   108.4600466 328.025600
    621    619    639     1   108.8800464 416.726400
    622    623    624     1   109.8800469 414.216000
    622    623    625     1   109.8800469 414.216000
    622    626    627     1   109.8800469 414.216000
    622    626    628     1   109.8800469 414.216000
    623    632    633     1   109.8000471 387.438400
    623    632    634     1   109.8000471 387.438400
    624    623    632     1   109.5600471 388.275200
    624    623    625     1   108.4600466 328.025600
    625    623    632     1   109.5600471 388.275200
    626    629    630     1   109.8000471 387.438400
    626    629    631     1   109.8000471 387.438400
    627    626    629     1   109.5600471 388.275200
    627    626    628     1   108.4600466 328.025600
    628    626    629     1   109.5600471 388.275200
    630    629    635     1   108.7700466 392.459200
    630    629    631     1   107.5800459 329.699200
    631    629    635     1   108.7700466 392.459200
    633    632    636     1   108.7700466 392.459200
    633    632    634     1   107.5800459 329.699200
    634    632    636     1   108.7700466 392.459200
    635    992    993     1   117.5500507 404.174400
    636   1003   1004     1   117.5500507 404.174400
    641    644    645     1   109.5600471 388.275200
    641    644    646     1   109.5600471 388.275200
    642    641    644     1   109.5600471 388.275200
    642    641    647     1   109.8800469 414.216000
    642    641    643     1   108.4600466 328.025600
    643    641    644     1   109.5600471 388.275200
    643    641    647     1   109.8800469 414.216000
    644    664    665     1   117.6800502 383.254400
    645    644    664     1   108.8800464 416.726400
    645    644    646     1   108.4600466 328.025600
    646    644    664     1   108.8800464 416.726400
    647    648    649     1   109.8800469 414.216000
    647    648    650     1   109.8800469 414.216000
    647    651    652     1   109.8800469 414.216000
    647    651    653     1   109.8800469 414.216000
    648    657    658     1   109.8000471 387.438400
    648    657    659     1   109.8000471 387.438400
    649    648    657     1   109.5600471 388.275200
    649    648    650     1   108.4600466 328.025600
    650    648    657     1   109.5600471 388.275200
    651    654    655     1   109.8000471 387.438400
    651    654    656     1   109.8000471 387.438400
    652    651    654     1   109.5600471 388.275200
    652    651    653     1   108.4600466 328.025600
    653    651    654     1   109.5600471 388.275200
    655    654    660     1   108.7700466 392.459200
    655    654    656     1   107.5800459 329.699200
    656    654    660     1   108.7700466 392.459200
    658    657    661     1   108.7700466 392.459200
    658    657    659     1   107.5800459 329.699200
    659    657    661     1   108.7700466 392.459200
    660   1014   1015     1   117.5500507 404.174400
    661   1025   1026     1   117.5500507 404.174400
    666    669    670     1   109.5600471 388.275200
    666    669    671     1   109.5600471 388.275200
    667    666    669     1   109.5600471 388.275200
    667    666    672     1   109.8800469 414.216000
    667    666    668     1   108.4600466 328.025600
    668    666    669     1   109.5600471 388.275200
    668    666    672     1   109.8800469 414.216000
    669    689    690     1   117.6800502 383.254400
    670    669    689     1   108.8800464 416.726400
    670    669    671     1   108.4600466 328.025600
    671    669    689     1   108.8800464 416.726400
    672    673    674     1   109.8800469 414.216000
    672    673    675     1   109.8800469 414.216000
    672    676    677     1   109.8800469 414.216000
    672    676    678     1   109.8800469 414.216000
    673    682    683     1   109.8000471 387.438400
    673    682    684     1   109.8000471 387.438400
    674    673    682     1   109.5600471 388.275200
    674    673    675     1   108.4600466 328.025600
    675    673    682     1   109.5600471 388.275200
    676    679    680     1   109.8000471 387.438400
    676    679    681     1   109.8000471 387.438400
    677    676    679     1   109.5600471 388.275200
    677    676    678     1   108.4600466 328.025600
    678    676    679     1   109.5600471 388.275200
    680    679    685     1   108.7700466 392.459200
    680    679    681     1   107.5800459 329.699200
    681    679    685     1   108.7700466 392.459200
    683    682    686     1   108.7700466 392.459200
    683    682    684     1   107.5800459 329.699200
    684    682    686     1   108.7700466 392.459200
    685   1036   1037     1   117.5500507 404.174400
    686   1047   1048     1   117.5500507 404.174400
    691    694    695     1   109.5600471 388.275200
    691    694    696     1   109.5600471 388.275200
    692    691    694     1   109.5600471 388.275200
    692    691    697     1   109.8800469 414.216000
    692    691    693     1   108.4600466 328.025600
    693    691    694     1   109.5600471 388.275200
    693    691    697     1   109.8800469 414.216000
    694    714    715     1   117.6800502 383.254400
    695    694    714     1   108.8800464 416.726400
    695    694    696     1   108.4600466 328.025600
    696    694    714     1   108.8800464 416.726400
    697    698    699     1   109.8800469 414.216000
    697    698    700     1   109.8800469 414.216000
    697    701    702     1   109.8800469 414.216000
    697    701    703     1   109.8800469 414.216000
    698    707    708     1   109.8000471 387.438400
    698    707    709     1   109.8000471 387.438400
    699    698    707     1   109.5600471 388.275200
    699    698    700     1   108.4600466 328.025600
    700    698    707     1   109.5600471 388.275200
    701    704    705     1   109.8000471 387.438400
    701    704    706     1   109.8000471 387.438400
    702    701    704     1   109.5600471 388.275200
    702    701    703     1   108.4600466 328.025600
    703    701    704     1   109.5600471 388.275200
    705    704    710     1   108.7700466 392.459200
    705    704    706     1   107.5800459 329.699200
    706    704    710     1   108.7700466 392.459200
    708    707    711     1   108.7700466 392.459200
    708    707    709     1   107.5800459 329.699200
    709    707    711     1   108.7700466 392.459200
    710   1058   1059     1   117.5500507 404.174400
    711   1069   1070     1   117.5500507 404.174400
    716    719    720     1   109.5600471 388.275200
    716    719    721     1   109.5600471 388.275200
    717    716    719     1   109.5600471 388.275200
    717    716    722     1   109.8800469 414.216000
    717    716    718     1   108.4600466 328.025600
    718    716    719     1   109.5600471 388.275200
    718    716    722     1   109.8800469 414.216000
    719    739    740     1   117.6800502 383.254400
    720    719    739     1   108.8800464 416.726400
    720    719    721     1   108.4600466 328.025600
    721    719    739     1   108.8800464 416.726400
    722    723    724     1   109.8800469 414.216000
    722    723    725     1   109.8800469 414.216000
    722    726    727     1   109.8800469 414.216000
    722    726    728     1   109.8800469 414.216000
    723    732    733     1   109.8000471 387.438400
    723    732    734     1   109.8000471 387.438400
    724    723    732     1   109.5600471 388.275200
    724    723    725     1   108.4600466 328.025600
    725    723    732     1   109.5600471 388.275200
    726    729    730     1   109.8000471 387.438400
    726    729    731     1   109.8000471 387.438400
    727    726    729     1   109.5600471 388.275200
    727    726    728     1   108.4600466 328.025600
    728    726    729     1   109.5600471 388.275200
    730    729    735     1   108.7700466 392.459200
    730    729    731     1   107.5800459 329.699200
    731    729    735     1   108.7700466 392.459200
    733    732    736     1   108.7700466 392.459200
    733    732    734     1   107.5800459 329.699200
    734    732    736     1   108.7700466 392.459200
    735   1080   1081     1   117.5500507 404.174400
    736   1091   1092     1   117.5500507 404.174400
    741    744    745     1   109.5600471 388.275200
    741    744    746     1   109.5600471 388.275200
    741    750    751     1   117.6800502 383.254400
    742    741    744     1   109.5600471 388.275200
    742    741    750     1   108.8800464 416.726400
    742    741    743     1   108.4600466 328.025600
    743    741    744     1   109.5600471 388.275200
    743    741    750     1   108.8800464 416.726400
    744    747    748     1   109.2900470 396.643200
    744    747    749     1   109.2900470 396.643200
    745    744    747     1   109.8800469 414.216000
    745    744    746     1   108.4600466 328.025600
    746    744    747     1   109.8800469 414.216000
    748    747    749     1   106.4000456 346.435200
    752    755    756     1   109.5600471 388.275200
    752    755    757     1   109.5600471 388.275200
    752    761    762     1   117.6800502 383.254400
    753    752    755     1   109.5600471 388.275200
    753    752    761     1   108.8800464 416.726400
    753    752    754     1   108.4600466 328.025600
    754    752    755     1   109.5600471 388.275200
    754    752    761     1   108.8800464 416.726400
    755    758    759     1   109.2900470 396.643200
    755    758    760     1   109.2900470 396.643200
    756    755    758     1   109.8800469 414.216000
    756    755    757     1   108.4600466 328.025600
    757    755    758     1   109.8800469 414.216000
    759    758    760     1   106.4000456 346.435200
    763    766    767     1   109.5600471 388.275200
    763    766    768     1   109.5600471 388.275200
    763    772    773     1   117.6800502 383.254400
    764    763    766     1   109.5600471 388.275200
    764    763    772     1   108.8800464 416.726400
    764    763    765     1   108.4600466 328.025600
    765    763    766     1   109.5600471 388.275200
    765    763    772     1   108.8800464 416.726400
    766    769    770     1   109.2900470 396.643200
    766    769    771     1   109.2900470 396.643200
    767    766    769     1   109.8800469 414.216000
    767    766    768     1   108.4600466 328.025600
    768    766    769     1   109.8800469 414.216000
    770    769    771     1   106.4000456 346.435200
    774    777    778     1   109.5600471 388.275200
    774    777    779     1   109.5600471 388.275200
    774    783    784     1   117.6800502 383.254400
    775    774    777     1   109.5600471 388.275200
    775    774    783     1   108.8800464 416.726400
    775    774    776     1   108.4600466 328.025600
    776    774    777     1   109.5600471 388.275200
    776    774    783     1   108.8800464 416.726400
    777    780    781     1   109.2900470 396.643200
    777    780    782     1   109.2900470 396.643200
    778    777    780     1   109.8800469 414.216000
    778    777    779     1   108.4600466 328.025600
    779    777    780     1   109.8800469 414.216000
    781    780    782     1   106.4000456 346.435200
    785    788    789     1   109.5600471 388.275200
    785    788    790     1   109.5600471 388.275200
    785    794    795     1   117.6800502 383.254400
    786    785    788     1   109.5600471 388.275200
    786    785    794     1   108.8800464 416.726400
    786    785    787     1   108.4600466 328.025600
    787    785    788     1   109.5600471 388.275200
    787    785    794     1   108.8800464 416.726400
    788    791    792     1   109.2900470 396.643200
    788    791    793     1   109.2900470 396.643200
    789    788    791     1   109.8800469 414.216000
    789    788    790     1   108.4600466 328.025600
    790    788    791     1   109.8800469 414.216000
    792    791    793     1   106.4000456 346.435200
    796    799    800     1   109.5600471 388.275200
    796    799    801     1   109.5600471 388.275200
    796    805    806     1   117.6800502 383.254400
    797    796    799     1   109.5600471 388.275200
    797    796    805     1   108.8800464 416.726400
    797    796    798     1   108.4600466 328.025600
    798    796    799     1   109.5600471 388.275200
    798    796    805     1   108.8800464 416.726400
    799    802    803     1   109.2900470 396.643200
    799    802    804     1   109.2900470 396.643200
    800    799    802     1   109.8800469 414.216000
    800    799    801     1   108.4600466 328.025600
    801    799    802     1   109.8800469 414.216000
    803    802    804     1   106.4000456 346.435200
    807    810    811     1   109.5600471 388.275200
    807    810    812     1   109.5600471 388.275200
    807    816    817     1   117.6800502 383.254400
    808    807    810     1   109.5600471 388.275200
    808    807    816     1   108.8800464 416.726400
    808    807    809     1   108.4600466 328.025600
    809    807    810     1   109.5600471 388.275200
    809    807    816     1   108.8800464 416.726400
    810    813    814     1   109.2900470 396.643200
    810    813    815     1   109.2900470 396.643200
    811    810    813     1   109.8800469 414.216000
    811    810    812     1   108.4600466 328.025600
    812    810    813     1   109.8800469 414.216000
    814    813    815     1   106.4000456 346.435200
    818    821    822     1   109.5600471 388.275200
    818    821    823     1   109.5600471 388.275200
    818    827    828     1   117.6800502 383.254400
    819    818    821     1   109.5600471 388.275200
    819    818    827     1   108.8800464 416.726400
    819    818    820     1   108.4600466 328.025600
    820    818    821     1   109.5600471 388.275200
    820    818    827     1   108.8800464 416.726400
    821    824    825     1   109.2900470 396.643200
    821    824    826     1   109.2900470 396.643200
    822    821    824     1   109.8800469 414.216000
    822    821    823     1   108.4600466 328.025600
    823    821    824     1   109.8800469 414.216000
    825    824    826     1   106.4000456 346.435200
    829    832    833     1   109.5600471 388.275200
    829    832    834     1   109.5600471 388.275200
    829    838    839     1   117.6800502 383.254400
    830    829    832     1   109.5600471 388.275200
    830    829    838     1   108.8800464 416.726400
    830    829    831     1   108.4600466 328.025600
    831    829    832     1   109.5600471 388.275200
    831    829    838     1   108.8800464 416.726400
    832    835    836     1   109.2900470 396.643200
    832    835    837     1   109.2900470 396.643200
    833    832    835     1   109.8800469 414.216000
    833    832    834     1   108.4600466 328.025600
    834    832    835     1   109.8800469 414.216000
    836    835    837     1   106.4000456 346.435200
    840    843    844     1   109.5600471 388.275200
    840    843    845     1   109.5600471 388.275200
    840    849    850     1   117.6800502 383.254400
    841    840    843     1   109.5600471 388.275200
    841    840    849     1   108.8800464 416.726400
    841    840    842     1   108.4600466 328.025600
    842    840    843     1   109.5600471 388.275200
    842    840    849     1   108.8800464 416.726400
    843    846    847     1   109.2900470 396.643200
    843    846    848     1   109.2900470 396.643200
    844    843    846     1   109.8800469 414.216000
    844    843    845     1   108.4600466 328.025600
    845    843    846     1   109.8800469 414.216000
    847    846    848     1   106.4000456 346.435200
    851    854    855     1   109.5600471 388.275200
    851    854    856     1   109.5600471 388.275200
    851    860    861     1   117.6800502 383.254400
    852    851    854     1   109.5600471 388.275200
    852    851    860     1   108.8800464 416.726400
    852    851    853     1   108.4600466 328.025600
    853    851    854     1   109.5600471 388.275200
    853    851    860     1   108.8800464 416.726400
    854    857    858     1   109.2900470 396.643200
    854    857    859     1   109.2900470 396.643200
    855    854    857     1   109.8800469 414.216000
    855    854    856     1   108.4600466 328.025600
    856    854    857     1   109.8800469 414.216000
    858    857    859     1   106.4000456 346.435200
    862    865    866     1   109.5600471 388.275200
    862    865    867     1   109.5600471 388.275200
    862    871    872     1   117.6800502 383.254400
    863    862    865     1   109.5600471 388.275200
    863    862    871     1   108.8800464 416.726400
    863    862    864     1   108.4600466 328.025600
    864    862    865     1   109.5600471 388.275200
    864    862    871     1   108.8800464 416.726400
    865    868    869     1   109.2900470 396.643200
    865    868    870     1   109.2900470 396.643200
    866    865    868     1   109.8800469 414.216000
    866    865    867     1   108.4600466 328.025600
    867    865    868     1   109.8800469 414.216000
    869    868    870     1   106.4000456 346.435200
    873    876    877     1   109.5600471 388.275200
    873    876    878     1   109.5600471 388.275200
    873    882    883     1   117.6800502 383.254400
    874    873    876     1   109.5600471 388.275200
    874    873    882     1   108.8800464 416.726400
    874    873    875     1   108.4600466 328.025600
    875    873    876     1   109.5600471 388.275200
    875    873    882     1   108.8800464 416.726400
    876    879    880     1   109.2900470 396.643200
    876    879    881     1   109.2900470 396.643200
    877    876    879     1   109.8800469 414.216000
    877    876    878     1   108.4600466 328.025600
    878    876    879     1   109.8800469 414.216000
    880    879    881     1   106.4000456 346.435200
    884    887    888     1   109.5600471 388.275200
    884    887    889     1   109.5600471 388.275200
    884    893    894     1   117.6800502 383.254400
    885    884    887     1   109.5600471 388.275200
    885    884    893     1   108.8800464 416.726400
    885    884    886     1   108.4600466 328.025600
    886    884    887     1   109.5600471 388.275200
    886    884    893     1   108.8800464 416.726400
    887    890    891     1   109.2900470 396.643200
    887    890    892     1   109.2900470 396.643200
    888    887    890     1   109.8800469 414.216000
    888    887    889     1   108.4600466 328.025600
    889    887    890     1   109.8800469 414.216000
    891    890    892     1   106.4000456 346.435200
    895    898    899     1   109.5600471 388.275200
    895    898    900     1   109.5600471 388.275200
    895    904    905     1   117.6800502 383.254400
    896    895    898     1   109.5600471 388.275200
    896    895    904     1   108.8800464 416.726400
    896    895    897     1   108.4600466 328.025600
    897    895    898     1   109.5600471 388.275200
    897    895    904     1   108.8800464 416.726400
    898    901    902     1   109.2900470 396.643200
    898    901    903     1   109.2900470 396.643200
    899    898    901     1   109.8800469 414.216000
    899    898    900     1   108.4600466 328.025600
    900    898    901     1   109.8800469 414.216000
    902    901    903     1   106.4000456 346.435200
    906    909    910     1   109.5600471 388.275200
    906    909    911     1   109.5600471 388.275200
    906    915    916     1   117.6800502 383.254400
    907    906    909     1   109.5600471 388.275200
    907    906    915     1   108.8800464 416.726400
    907    906    908     1   108.4600466 328.025600
    908    906    909     1   109.5600471 388.275200
    908    906    915     1   108.8800464 416.726400
    909    912    913     1   109.2900470 396.643200
    909    912    914     1   109.2900470 396.643200
    910    909    912     1   109.8800469 414.216000
    910    909    911     1   108.4600466 328.025600
    911    909    912     1   109.8800469 414.216000
    913    912    914     1   106.4000456 346.435200
    917    920    921     1   109.5600471 388.275200
    917    920    922     1   109.5600471 388.275200
    917    926    927     1   117.6800502 383.254400
    918    917    920     1   109.5600471 388.275200
    918    917    926     1   108.8800464 416.726400
    918    917    919     1   108.4600466 328.025600
    919    917    920     1   109.5600471 388.275200
    919    917    926     1   108.8800464 416.726400
    920    923    924     1   109.2900470 396.643200
    920    923    925     1   109.2900470 396.643200
    921    920    923     1   109.8800469 414.216000
    921    920    922     1   108.4600466 328.025600
    922    920    923     1   109.8800469 414.216000
    924    923    925     1   106.4000456 346.435200
    928    931    932     1   109.5600471 388.275200
    928    931    933     1   109.5600471 388.275200
    928    937    938     1   117.6800502 383.254400
    929    928    931     1   109.5600471 388.275200
    929    928    937     1   108.8800464 416.726400
    929    928    930     1   108.4600466 328.025600
    930    928    931     1   109.5600471 388.275200
    930    928    937     1   108.8800464 416.726400
    931    934    935     1   109.2900470 396.643200
    931    934    936     1   109.2900470 396.643200
    932    931    934     1   109.8800469 414.216000
    932    931    933     1   108.4600466 328.025600
    933    931    934     1   109.8800469 414.216000
    935    934    936     1   106.4000456 346.435200
    939    942    943     1   109.5600471 388.275200
    939    942    944     1   109.5600471 388.275200
    939    948    949     1   117.6800502 383.254400
    940    939    942     1   109.5600471 388.275200
    940    939    948     1   108.8800464 416.726400
    940    939    941     1   108.4600466 328.025600
    941    939    942     1   109.5600471 388.275200
    941    939    948     1   108.8800464 416.726400
    942    945    946     1   109.2900470 396.643200
    942    945    947     1   109.2900470 396.643200
    943    942    945     1   109.8800469 414.216000
    943    942    944     1   108.4600466 328.025600
    944    942    945     1   109.8800469 414.216000
    946    945    947     1   106.4000456 346.435200
    950    953    954     1   109.5600471 388.275200
    950    953    955     1   109.5600471 388.275200
    950    959    960     1   117.6800502 383.254400
    951    950    953     1   109.5600471 388.275200
    951    950    959     1   108.8800464 416.726400
    951    950    952     1   108.4600466 328.025600
    952    950    953     1   109.5600471 388.275200
    952    950    959     1   108.8800464 416.726400
    953    956    957     1   109.2900470 396.643200
    953    956    958     1   109.2900470 396.643200
    954    953    956     1   109.8800469 414.216000
    954    953    955     1   108.4600466 328.025600
    955    953    956     1   109.8800469 414.216000
    957    956    958     1   106.4000456 346.435200
    961    964    965     1   109.5600471 388.275200
    961    964    966     1   109.5600471 388.275200
    961    970    971     1   117.6800502 383.254400
    962    961    964     1   109.5600471 388.275200
    962    961    970     1   108.8800464 416.726400
    962    961    963     1   108.4600466 328.025600
    963    961    964     1   109.5600471 388.275200
    963    961    970     1   108.8800464 416.726400
    964    967    968     1   109.2900470 396.643200
    964    967    969     1   109.2900470 396.643200
    965    964    967     1   109.8800469 414.216000
    965    964    966     1   108.4600466 328.025600
    966    964    967     1   109.8800469 414.216000
    968    967    969     1   106.4000456 346.435200
    972    975    976     1   109.5600471 388.275200
    972    975    977     1   109.5600471 388.275200
    972    981    982     1   117.6800502 383.254400
    973    972    975     1   109.5600471 388.275200
    973    972    981     1   108.8800464 416.726400
    973    972    974     1   108.4600466 328.025600
    974    972    975     1   109.5600471 388.275200
    974    972    981     1   108.8800464 416.726400
    975    978    979     1   109.2900470 396.643200
    975    978    980     1   109.2900470 396.643200
    976    975    978     1   109.8800469 414.216000
    976    975    977     1   108.4600466 328.025600
    977    975    978     1   109.8800469 414.216000
    979    978    980     1   106.4000456 346.435200
    983    986    987     1   109.5600471 388.275200
    983    986    988     1   109.5600471 388.275200
    983    992    993     1   117.6800502 383.254400
    984    983    986     1   109.5600471 388.275200
    984    983    992     1   108.8800464 416.726400
    984    983    985     1   108.4600466 328.025600
    985    983    986     1   109.5600471 388.275200
    985    983    992     1   108.8800464 416.726400
    986    989    990     1   109.2900470 396.643200
    986    989    991     1   109.2900470 396.643200
    987    986    989     1   109.8800469 414.216000
    987    986    988     1   108.4600466 328.025600
    988    986    989     1   109.8800469 414.216000
    990    989    991     1   106.4000456 346.435200
    994    997    998     1   109.5600471 388.275200
    994    997    999     1   109.5600471 388.275200
    994   1003   1004     1   117.6800502 383.254400
    995    994    997     1   109.5600471 388.275200
    995    994   1003     1   108.8800464 416.726400
    995    994    996     1   108.4600466 328.025600
    996    994    997     1   109.5600471 388.275200
    996    994   1003     1   108.8800464 416.726400
    997   1000   1001     1   109.2900470 396.643200
    997   1000   1002     1   109.2900470 396.643200
    998    997   1000     1   109.8800469 414.216000
    998    997    999     1   108.4600466 328.025600
    999    997   1000     1   109.8800469 414.216000
   1001   1000   1002     1   106.4000456 346.435200
   1005   1008   1009     1   109.5600471 388.275200
   1005   1008   1010     1   109.5600471 388.275200
   1005   1014   1015     1   117.6800502 383.254400
   1006   1005   1008     1   109.5600471 388.275200
   1006   1005   1014     1   108.8800464 416.726400
   1006   1005   1007     1   108.4600466 328.025600
   1007   1005   1008     1   109.5600471 388.275200
   1007   1005   1014     1   108.8800464 416.726400
   1008   1011   1012     1   109.2900470 396.643200
   1008   1011   1013     1   109.2900470 396.643200
   1009   1008   1011     1   109.8800469 414.216000
   1009   1008   1010     1   108.4600466 328.025600
   1010   1008   1011     1   109.8800469 414.216000
   1012   1011   1013     1   106.4000456 346.435200
   1016   1019   1020     1   109.5600471 388.275200
   1016   1019   1021     1   109.5600471 388.275200
   1016   1025   1026     1   117.6800502 383.254400
   1017   1016   1019     1   109.5600471 388.275200
   1017   1016   1025     1   108.8800464 416.726400
   1017   1016   1018     1   108.4600466 328.025600
   1018   1016   1019     1   109.5600471 388.275200
   1018   1016   1025     1   108.8800464 416.726400
   1019   1022   1023     1   109.2900470 396.643200
   1019   1022   1024     1   109.2900470 396.643200
   1020   1019   1022     1   109.8800469 414.216000
   1020   1019   1021     1   108.4600466 328.025600
   1021   1019   1022     1   109.8800469 414.216000
   1023   1022   1024     1   106.4000456 346.435200
   1027   1030   1031     1   109.5600471 388.275200
   1027   1030   1032     1   109.5600471 388.275200
   1027   1036   1037     1   117.6800502 383.254400
   1028   1027   1030     1   109.5600471 388.275200
   1028   1027   1036     1   108.8800464 416.726400
   1028   1027   1029     1   108.4600466 328.025600
   1029   1027   1030     1   109.5600471 388.275200
   1029   1027   1036     1   108.8800464 416.726400
   1030   1033   1034     1   109.2900470 396.643200
   1030   1033   1035     1   109.2900470 396.643200
   1031   1030   1033     1   109.8800469 414.216000
   1031   1030   1032     1   108.4600466 328.025600
   1032   1030   1033     1   109.8800469 414.216000
   1034   1033   1035     1   106.4000456 346.435200
   1038   1041   1042     1   109.5600471 388.275200
   1038   1041   1043     1   109.5600471 388.275200
   1038   1047   1048     1   117.6800502 383.254400
   1039   1038   1041     1   109.5600471 388.275200
   1039   1038   1047     1   108.8800464 416.726400
   1039   1038   1040     1   108.4600466 328.025600
   1040   1038   1041     1   109.5600471 388.275200
   1040   1038   1047     1   108.8800464 416.726400
   1041   1044   1045     1   109.2900470 396.643200
   1041   1044   1046     1   109.2900470 396.643200
   1042   1041   1044     1   109.8800469 414.216000
   1042   1041   1043     1   108.4600466 328.025600
   1043   1041   1044     1   109.8800469 414.216000
   1045   1044   1046     1   106.4000456 346.435200
   1049   1052   1053     1   109.5600471 388.275200
   1049   1052   1054     1   109.5600471 388.275200
   1049   1058   1059     1   117.6800502 383.254400
   1050   1049   1052     1   109.5600471 388.275200
   1050   1049   1058     1   108.8800464 416.726400
   1050   1049   1051     1   108.4600466 328.025600
   1051   1049   1052     1   109.5600471 388.275200
   1051   1049   1058     1   108.8800464 416.726400
   1052   1055   1056     1   109.2900470 396.643200
   1052   1055   1057     1   109.2900470 396.643200
   1053   1052   1055     1   109.8800469 414.216000
   1053   1052   1054     1   108.4600466 328.025600
   1054   1052   1055     1   109.8800469 414.216000
   1056   1055   1057     1   106.4000456 346.435200
   1060   1063   1064     1   109.5600471 388.275200
   1060   1063   1065     1   109.5600471 388.275200
   1060   1069   1070     1   117.6800502 383.254400
   1061   1060   1063     1   109.5600471 388.275200
   1061   1060   1069     1   108.8800464 416.726400
   1061   1060   1062     1   108.4600466 328.025600
   1062   1060   1063     1   109.5600471 388.275200
   1062   1060   1069     1   108.8800464 416.726400
   1063   1066   1067     1   109.2900470 396.643200
   1063   1066   1068     1   109.2900470 396.643200
   1064   1063   1066     1   109.8800469 414.216000
   1064   1063   1065     1   108.4600466 328.025600
   1065   1063   1066     1   109.8800469 414.216000
   1067   1066   1068     1   106.4000456 346.435200
   1071   1074   1075     1   109.5600471 388.275200
   1071   1074   1076     1   109.5600471 388.275200
   1071   1080   1081     1   117.6800502 383.254400
   1072   1071   1074     1   109.5600471 388.275200
   1072   1071   1080     1   108.8800464 416.726400
   1072   1071   1073     1   108.4600466 328.025600
   1073   1071   1074     1   109.5600471 388.275200
   1073   1071   1080     1   108.8800464 416.726400
   1074   1077   1078     1   109.2900470 396.643200
   1074   1077   1079     1   109.2900470 396.643200
   1075   1074   1077     1   109.8800469 414.216000
   1075   1074   1076     1   108.4600466 328.025600
   1076   1074   1077     1   109.8800469 414.216000
   1078   1077   1079     1   106.4000456 346.435200
   1082   1085   1086     1   109.5600471 388.275200
   1082   1085   1087     1   109.5600471 388.275200
   1082   1091   1092     1   117.6800502 383.254400
   1083   1082   1085     1   109.5600471 388.275200
   1083   1082   1091     1   108.8800464 416.726400
   1083   1082   1084     1   108.4600466 328.025600
   1084   1082   1085     1   109.5600471 388.275200
   1084   1082   1091     1   108.8800464 416.726400
   1085   1088   1089     1   109.2900470 396.643200
   1085   1088   1090     1   109.2900470 396.643200
   1086   1085   1088     1   109.8800469 414.216000
   1086   1085   1087     1   108.4600466 328.025600
   1087   1085   1088     1   109.8800469 414.216000
   1089   1088   1090     1   106.4000456 346.435200

[ dihedrals ]
;    ai     aj     ak     al funct         c0         c1         c2         c3         c4         c5
      1      4      7     15     1  180.0000771  2.0083200  2
      1      4      7     15     1  0.0000000  1.2552000  3
      1      4      7     18     1  180.0000771  2.0083200  2
      1      4      7     18     1  0.0000000  1.2552000  3
      1      8      9     30     1  180.0000771  2.0083200  2
      1      8      9     30     1  0.0000000  1.2552000  3
      1      8     12     27     1  180.0000771  2.0083200  2
      1      8     12     27     1  0.0000000  1.2552000  3
      4      1      8      9     1  180.0000771  2.0083200  2
      4      1      8      9     1  0.0000000  1.2552000  3
      4      1      8     12     1  180.0000771  2.0083200  2
      4      1      8     12     1  0.0000000  1.2552000  3
      4      7     15     21     1  180.0000771  2.0083200  2
      4      7     15     21     1  0.0000000  1.2552000  3
      4      7     18     24     1  180.0000771  2.0083200  2
      4      7     18     24     1  0.0000000  1.2552000  3
      8      1      4      7     1  0.0000000  0.6508444  3
      7     15     21     35     1  0.0000000  0.6508444  3
      7     18     24     36     1  0.0000000  0.6508444  3
      8      9     30     34     1  0.0000000  0.6508444  3
      8     12     27     33     1  0.0000000  0.6508444  3
      9      8     12     27     1  180.0000771  2.0083200  2
      9      8     12     27     1  0.0000000  1.2552000  3
      9     30     34     40     1  180.0000771  0.0000000  2
      9     30     34     89     1  0.0000000  0.2928800  2
      9     30     34     89     1  0.0000000  0.4184000  4
     12      8      9     30     1  180.0000771  2.0083200  2
     12      8      9     30     1  0.0000000  1.2552000  3
     12     27     33     37     1  180.0000771  0.0000000  2
     12     27     33     64     1  0.0000000  0.2928800  2
     12     27     33     64     1  0.0000000  0.4184000  4
     15      7     18     24     1  180.0000771  2.0083200  2
     15      7     18     24     1  0.0000000  1.2552000  3
     15     21     35     38     1  180.0000771  0.0000000  2
     15     21     35    114     1  0.0000000  0.2928800  2
     15     21     35    114     1  0.0000000  0.4184000  4
     18      7     15     21     1  180.0000771  2.0083200  2
     18      7     15     21     1  0.0000000  1.2552000  3
     18     24     36     39     1  180.0000771  0.0000000  2
     18     24     36    139     1  0.0000000  0.2928800  2
     18     24     36    139     1  0.0000000  0.4184000  4
     21     35    114     94     1  180.0000771  6.2760000  1
     21     35    114     94     1  0.0000000  0.0000000  2
     24     36    139    119     1  180.0000771  6.2760000  1
     24     36    139    119     1  0.0000000  0.0000000  2
     27     33     64     44     1  180.0000771  6.2760000  1
     27     33     64     44     1  0.0000000  0.0000000  2
     30     34     89     69     1  180.0000771  6.2760000  1
     30     34     89     69     1  0.0000000  0.0000000  2
     33     64     44     41     1  0.0000000  2.2175200  1
     33     64     44     41     1  0.0000000  0.0000000  2
     33     64     44     41     1  180.0000771  0.6276000  3
     33     64     44     41     1  180.0000771  2.0920000  4
     34     89     69     66     1  0.0000000  2.2175200  1
     34     89     69     66     1  0.0000000  0.0000000  2
     34     89     69     66     1  180.0000771  0.6276000  3
     34     89     69     66     1  180.0000771  2.0920000  4
     35    114     94     91     1  0.0000000  2.2175200  1
     35    114     94     91     1  0.0000000  0.0000000  2
     35    114     94     91     1  180.0000771  0.6276000  3
     35    114     94     91     1  180.0000771  2.0920000  4
     36    139    119    116     1  0.0000000  2.2175200  1
     36    139    119    116     1  0.0000000  0.0000000  2
     36    139    119    116     1  180.0000771  0.6276000  3
     36    139    119    116     1  180.0000771  2.0920000  4
     37     33     64     44     1  180.0000771  10.4600000  2
     38     35    114     94     1  180.0000771  10.4600000  2
     39     36    139    119     1  180.0000771  10.4600000  2
     40     34     89     69     1  180.0000771  10.4600000  2
     41     47     48     57     1  180.0000771  2.0083200  2
     41     47     48     57     1  0.0000000  1.2552000  3
     41     47     51     54     1  180.0000771  2.0083200  2
     41     47     51     54     1  0.0000000  1.2552000  3
     44     41     47     48     1  180.0000771  2.0083200  2
     44     41     47     48     1  0.0000000  1.2552000  3
     44     41     47     51     1  180.0000771  2.0083200  2
     44     41     47     51     1  0.0000000  1.2552000  3
     47     41     44     64     1  0.0000000  0.6508444  3
     47     48     57     61     1  0.0000000  0.6508444  3
     47     51     54     60     1  0.0000000  0.6508444  3
     48     47     51     54     1  180.0000771  2.0083200  2
     48     47     51     54     1  0.0000000  1.2552000  3
     48     57     61     63     1  180.0000771  0.0000000  2
     48     57     61    189     1  0.0000000  0.2928800  2
     48     57     61    189     1  0.0000000  0.4184000  4
     51     47     48     57     1  180.0000771  2.0083200  2
     51     47     48     57     1  0.0000000  1.2552000  3
     51     54     60     62     1  180.0000771  0.0000000  2
     51     54     60    164     1  0.0000000  0.2928800  2
     51     54     60    164     1  0.0000000  0.4184000  4
     54     60    164    144     1  180.0000771  6.2760000  1
     54     60    164    144     1  0.0000000  0.0000000  2
     57     61    189    169     1  180.0000771  6.2760000  1
     57     61    189    169     1  0.0000000  0.0000000  2
     60    164    144    141     1  0.0000000  2.2175200  1
     60    164    144    141     1  0.0000000  0.0000000  2
     60    164    144    141     1  180.0000771  0.6276000  3
     60    164    144    141     1  180.0000771  2.0920000  4
     61    189    169    166     1  0.0000000  2.2175200  1
     61    189    169    166     1  0.0000000  0.0000000  2
     61    189    169    166     1  180.0000771  0.6276000  3
     61    189    169    166     1  180.0000771  2.0920000  4
     62     60    164    144     1  180.0000771  10.4600000  2
     63     61    189    169     1  180.0000771  10.4600000  2
     66     72     73     82     1  180.0000771  2.0083200  2
     66     72     73     82     1  0.0000000  1.2552000  3
     66     72     76     79     1  180.0000771  2.0083200  2
     66     72     76     79     1  0.0000000  1.2552000  3
     69     66     72     73     1  180.0000771  2.0083200  2
     69     66     72     73     1  0.0000000  1.2552000  3
     69     66     72     76     1  180.0000771  2.0083200  2
     69     66     72     76     1  0.0000000  1.2552000  3
     72     66     69     89     1  0.0000000  0.6508444  3
     72     73     82     86     1  0.0000000  0.6508444  3
     72     76     79     85     1  0.0000000  0.6508444  3
     73     72     76     79     1  180.0000771  2.0083200  2
     73     72     76     79     1  0.0000000  1.2552000  3
     73     82     86     88     1  180.0000771  0.0000000  2
     73     82     86    239     1  0.0000000  0.2928800  2
     73     82     86    239     1  0.0000000  0.4184000  4
     76     72     73     82     1  180.0000771  2.0083200  2
     76     72     73     82     1  0.0000000  1.2552000  3
     76     79     85     87     1  180.0000771  0.0000000  2
     76     79     85    214     1  0.0000000  0.2928800  2
     76     79     85    214     1  0.0000000  0.4184000  4
     79     85    214    194     1  180.0000771  6.2760000  1
     79     85    214    194     1  0.0000000  0.0000000  2
     82     86    239    219     1  180.0000771  6.2760000  1
     82     86    239    219     1  0.0000000  0.0000000  2
     85    214    194    191     1  0.0000000  2.2175200  1
     85    214    194    191     1  0.0000000  0.0000000  2
     85    214    194    191     1  180.0000771  0.6276000  3
     85    214    194    191     1  180.0000771  2.0920000  4
     86    239    219    216     1  0.0000000  2.2175200  1
     86    239    219    216     1  0.0000000  0.0000000  2
     86    239    219    216     1  180.0000771  0.6276000  3
     86    239    219    216     1  180.0000771  2.0920000  4
     87     85    214    194     1  180.0000771  10.4600000  2
     88     86    239    219     1  180.0000771  10.4600000  2
     91     97     98    107     1  180.0000771  2.0083200  2
     91     97     98    107     1  0.0000000  1.2552000  3
     91     97    101    104     1  180.0000771  2.0083200  2
     91     97    101    104     1  0.0000000  1.2552000  3
     94     91     97     98     1  180.0000771  2.0083200  2
     94     91     97     98     1  0.0000000  1.2552000  3
     94     91     97    101     1  180.0000771  2.0083200  2
     94     91     97    101     1  0.0000000  1.2552000  3
     97     91     94    114     1  0.0000000  0.6508444  3
     97     98    107    111     1  0.0000000  0.6508444  3
     97    101    104    110     1  0.0000000  0.6508444  3
     98     97    101    104     1  180.0000771  2.0083200  2
     98     97    101    104     1  0.0000000  1.2552000  3
     98    107    111    113     1  180.0000771  0.0000000  2
     98    107    111    289     1  0.0000000  0.2928800  2
     98    107    111    289     1  0.0000000  0.4184000  4
    101     97     98    107     1  180.0000771  2.0083200  2
    101     97     98    107     1  0.0000000  1.2552000  3
    101    104    110    112     1  180.0000771  0.0000000  2
    101    104    110    264     1  0.0000000  0.2928800  2
    101    104    110    264     1  0.0000000  0.4184000  4
    104    110    264    244     1  180.0000771  6.2760000  1
    104    110    264    244     1  0.0000000  0.0000000  2
    107    111    289    269     1  180.0000771  6.2760000  1
    107    111    289    269     1  0.0000000  0.0000000  2
    110    264    244    241     1  0.0000000  2.2175200  1
    110    264    244    241     1  0.0000000  0.0000000  2
    110    264    244    241     1  180.0000771  0.6276000  3
    110    264    244    241     1  180.0000771  2.0920000  4
    111    289    269    266     1  0.0000000  2.2175200  1
    111    289    269    266     1  0.0000000  0.0000000  2
    111    289    269    266     1  180.0000771  0.6276000  3
    111    289    269    266     1  180.0000771  2.0920000  4
    112    110    264    244     1  180.0000771  10.4600000  2
    113    111    289    269     1  180.0000771  10.4600000  2
    116    122    123    132     1  180.0000771  2.0083200  2
    116    122    123    132     1  0.0000000  1.2552000  3
    116    122    126    129     1  180.0000771  2.0083200  2
    116    122    126    129     1  0.0000000  1.2552000  3
    119    116    122    123     1  180.0000771  2.0083200  2
    119    116    122    123     1  0.0000000  1.2552000  3
    119    116    122    126     1  180.0000771  2.0083200  2
    119    116    122    126     1  0.0000000  1.2552000  3
    122    116    119    139     1  0.0000000  0.6508444  3
    122    123    132    136     1  0.0000000  0.6508444  3
    122    126    129    135     1  0.0000000  0.6508444  3
    123    122    126    129     1  180.0000771  2.0083200  2
    123    122    126    129     1  0.0000000  1.2552000  3
    123    132    136    138     1  180.0000771  0.0000000  2
    123    132    136    339     1  0.0000000  0.2928800  2
    123    132    136    339     1  0.0000000  0.4184000  4
    126    122    123    132     1  180.0000771  2.0083200  2
    126    122    123    132     1  0.0000000  1.2552000  3
    126    129    135    137     1  180.0000771  0.0000000  2
    126    129    135    314     1  0.0000000  0.2928800  2
    126    129    135    314     1  0.0000000  0.4184000  4
    129    135    314    294     1  180.0000771  6.2760000  1
    129    135    314    294     1  0.0000000  0.0000000  2
    132    136    339    319     1  180.0000771  6.2760000  1
    132    136    339    319     1  0.0000000  0.0000000  2
    135    314    294    291     1  0.0000000  2.2175200  1
    135    314    294    291     1  0.0000000  0.0000000  2
    135    314    294    291     1  180.0000771  0.6276000  3
    135    314    294    291     1  180.0000771  2.0920000  4
    136    339    319    316     1  0.0000000  2.2175200  1
    136    339    319    316     1  0.0000000  0.0000000  2
    136    339    319    316     1  180.0000771  0.6276000  3
    136    339    319    316     1  180.0000771  2.0920000  4
    137    135    314    294     1  180.0000771  10.4600000  2
    138    136    339    319     1  180.0000771  10.4600000  2
    141    147    148    157     1  180.0000771  2.0083200  2
    141    147    148    157     1  0.0000000  1.2552000  3
    141    147    151    154     1  180.0000771  2.0083200  2
    141    147    151    154     1  0.0000000  1.2552000  3
    144    141    147    148     1  180.0000771  2.0083200  2
    144    141    147    148     1  0.0000000  1.2552000  3
    144    141    147    151     1  180.0000771  2.0083200  2
    144    141    147    151     1  0.0000000  1.2552000  3
    147    141    144    164     1  0.0000000  0.6508444  3
    147    148    157    161     1  0.0000000  0.6508444  3
    147    151    154    160     1  0.0000000  0.6508444  3
    148    147    151    154     1  180.0000771  2.0083200  2
    148    147    151    154     1  0.0000000  1.2552000  3
    148    157    161    163     1  180.0000771  0.0000000  2
    148    157    161    389     1  0.0000000  0.2928800  2
    148    157    161    389     1  0.0000000  0.4184000  4
    151    147    148    157     1  180.0000771  2.0083200  2
    151    147    148    157     1  0.0000000  1.2552000  3
    151    154    160    162     1  180.0000771  0.0000000  2
    151    154    160    364     1  0.0000000  0.2928800  2
    151    154    160    364     1  0.0000000  0.4184000  4
    154    160    364    344     1  180.0000771  6.2760000  1
    154    160    364    344     1  0.0000000  0.0000000  2
    157    161    389    369     1  180.0000771  6.2760000  1
    157    161    389    369     1  0.0000000  0.0000000  2
    160    364    344    341     1  0.0000000  2.2175200  1
    160    364    344    341     1  0.0000000  0.0000000  2
    160    364    344    341     1  180.0000771  0.6276000  3
    160    364    344    341     1  180.0000771  2.0920000  4
    161    389    369    366     1  0.0000000  2.2175200  1
    161    389    369    366     1  0.0000000  0.0000000  2
    161    389    369    366     1  180.0000771  0.6276000  3
    161    389    369    366     1  180.0000771  2.0920000  4
    162    160    364    344     1  180.0000771  10.4600000  2
    163    161    389    369     1  180.0000771  10.4600000  2
    166    172    173    182     1  180.0000771  2.0083200  2
    166    172    173    182     1  0.0000000  1.2552000  3
    166    172    176    179     1  180.0000771  2.0083200  2
    166    172    176    179     1  0.0000000  1.2552000  3
    169    166    172    173     1  180.0000771  2.0083200  2
    169    166    172    173     1  0.0000000  1.2552000  3
    169    166    172    176     1  180.0000771  2.0083200  2
    169    166    172    176     1  0.0000000  1.2552000  3
    172    166    169    189     1  0.0000000  0.6508444  3
    172    173    182    186     1  0.0000000  0.6508444  3
    172    176    179    185     1  0.0000000  0.6508444  3
    173    172    176    179     1  180.0000771  2.0083200  2
    173    172    176    179     1  0.0000000  1.2552000  3
    173    182    186    188     1  180.0000771  0.0000000  2
    173    182    186    439     1  0.0000000  0.2928800  2
    173    182    186    439     1  0.0000000  0.4184000  4
    176    172    173    182     1  180.0000771  2.0083200  2
    176    172    173    182     1  0.0000000  1.2552000  3
    176    179    185    187     1  180.0000771  0.0000000  2
    176    179    185    414     1  0.0000000  0.2928800  2
    176    179    185    414     1  0.0000000  0.4184000  4
    179    185    414    394     1  180.0000771  6.2760000  1
    179    185    414    394     1  0.0000000  0.0000000  2
    182    186    439    419     1  180.0000771  6.2760000  1
    182    186    439    419     1  0.0000000  0.0000000  2
    185    414    394    391     1  0.0000000  2.2175200  1
    185    414    394    391     1  0.0000000  0.0000000  2
    185    414    394    391     1  180.0000771  0.6276000  3
    185    414    394    391     1  180.0000771  2.0920000  4
    186    439    419    416     1  0.0000000  2.2175200  1
    186    439    419    416     1  0.0000000  0.0000000  2
    186    439    419    416     1  180.0000771  0.6276000  3
    186    439    419    416     1  180.0000771  2.0920000  4
    187    185    414    394     1  180.0000771  10.4600000  2
    188    186    439    419     1  180.0000771  10.4600000  2
    191    197    198    207     1  180.0000771  2.0083200  2
    191    197    198    207     1  0.0000000  1.2552000  3
    191    197    201    204     1  180.0000771  2.0083200  2
    191    197    201    204     1  0.0000000  1.2552000  3
    194    191    197    198     1  180.0000771  2.0083200  2
    194    191    197    198     1  0.0000000  1.2552000  3
    194    191    197    201     1  180.0000771  2.0083200  2
    194    191    197    201     1  0.0000000  1.2552000  3
    197    191    194    214     1  0.0000000  0.6508444  3
    197    198    207    211     1  0.0000000  0.6508444  3
    197    201    204    210     1  0.0000000  0.6508444  3
    198    197    201    204     1  180.0000771  2.0083200  2
    198    197    201    204     1  0.0000000  1.2552000  3
    198    207    211    213     1  180.0000771  0.0000000  2
    198    207    211    489     1  0.0000000  0.2928800  2
    198    207    211    489     1  0.0000000  0.4184000  4
    201    197    198    207     1  180.0000771  2.0083200  2
    201    197    198    207     1  0.0000000  1.2552000  3
    201    204    210    212     1  180.0000771  0.0000000  2
    201    204    210    464     1  0.0000000  0.2928800  2
    201    204    210    464     1  0.0000000  0.4184000  4
    204    210    464    444     1  180.0000771  6.2760000  1
    204    210    464    444     1  0.0000000  0.0000000  2
    207    211    489    469     1  180.0000771  6.2760000  1
    207    211    489    469     1  0.0000000  0.0000000  2
    210    464    444    441     1  0.0000000  2.2175200  1
    210    464    444    441     1  0.0000000  0.0000000  2
    210    464    444    441     1  180.0000771  0.6276000  3
    210    464    444    441     1  180.0000771  2.0920000  4
    211    489    469    466     1  0.0000000  2.2175200  1
    211    489    469    466     1  0.0000000  0.0000000  2
    211    489    469    466     1  180.0000771  0.6276000  3
    211    489    469    466     1  180.0000771  2.0920000  4
    212    210    464    444     1  180.0000771  10.4600000  2
    213    211    489    469     1  180.0000771  10.4600000  2
    216    222    223    232     1  180.0000771  2.0083200  2
    216    222    223    232     1  0.0000000  1.2552000  3
    216    222    226    229     1  180.0000771  2.0083200  2
    216    222    226    229     1  0.0000000  1.2552000  3
    219    216    222    223     1  180.0000771  2.0083200  2
    219    216    222    223     1  0.0000000  1.2552000  3
    219    216    222    226     1  180.0000771  2.0083200  2
    219    216    222    226     1  0.0000000  1.2552000  3
    222    216    219    239     1  0.0000000  0.6508444  3
    222    223    232    236     1  0.0000000  0.6508444  3
    222    226    229    235     1  0.0000000  0.6508444  3
    223    222    226    229     1  180.0000771  2.0083200  2
    223    222    226    229     1  0.0000000  1.2552000  3
    223    232    236    238     1  180.0000771  0.0000000  2
    223    232    236    539     1  0.0000000  0.2928800  2
    223    232    236    539     1  0.0000000  0.4184000  4
    226    222    223    232     1  180.0000771  2.0083200  2
    226    222    223    232     1  0.0000000  1.2552000  3
    226    229    235    237     1  180.0000771  0.0000000  2
    226    229    235    514     1  0.0000000  0.2928800  2
    226    229    235    514     1  0.0000000  0.4184000  4
    229    235    514    494     1  180.0000771  6.2760000  1
    229    235    514    494     1  0.0000000  0.0000000  2
    232    236    539    519     1  180.0000771  6.2760000  1
    232    236    539    519     1  0.0000000  0.0000000  2
    235    514    494    491     1  0.0000000  2.2175200  1
    235    514    494    491     1  0.0000000  0.0000000  2
    235    514    494    491     1  180.0000771  0.6276000  3
    235    514    494    491     1  180.0000771  2.0920000  4
    236    539    519    516     1  0.0000000  2.2175200  1
    236    539    519    516     1  0.0000000  0.0000000  2
    236    539    519    516     1  180.0000771  0.6276000  3
    236    539    519    516     1  180.0000771  2.0920000  4
    237    235    514    494     1  180.0000771  10.4600000  2
    238    236    539    519     1  180.0000771  10.4600000  2
    241    247    248    257     1  180.0000771  2.0083200  2
    241    247    248    257     1  0.0000000  1.2552000  3
    241    247    251    254     1  180.0000771  2.0083200  2
    241    247    251    254     1  0.0000000  1.2552000  3
    244    241    247    248     1  180.0000771  2.0083200  2
    244    241    247    248     1  0.0000000  1.2552000  3
    244    241    247    251     1  180.0000771  2.0083200  2
    244    241    247    251     1  0.0000000  1.2552000  3
    247    241    244    264     1  0.0000000  0.6508444  3
    247    248    257    261     1  0.0000000  0.6508444  3
    247    251    254    260     1  0.0000000  0.6508444  3
    248    247    251    254     1  180.0000771  2.0083200  2
    248    247    251    254     1  0.0000000  1.2552000  3
    248    257    261    263     1  180.0000771  0.0000000  2
    248    257    261    589     1  0.0000000  0.2928800  2
    248    257    261    589     1  0.0000000  0.4184000  4
    251    247    248    257     1  180.0000771  2.0083200  2
    251    247    248    257     1  0.0000000  1.2552000  3
    251    254    260    262     1  180.0000771  0.0000000  2
    251    254    260    564     1  0.0000000  0.2928800  2
    251    254    260    564     1  0.0000000  0.4184000  4
    254    260    564    544     1  180.0000771  6.2760000  1
    254    260    564    544     1  0.0000000  0.0000000  2
    257    261    589    569     1  180.0000771  6.2760000  1
    257    261    589    569     1  0.0000000  0.0000000  2
    260    564    544    541     1  0.0000000  2.2175200  1
    260    564    544    541     1  0.0000000  0.0000000  2
    260    564    544    541     1  180.0000771  0.6276000  3
    260    564    544    541     1  180.0000771  2.0920000  4
    261    589    569    566     1  0.0000000  2.2175200  1
    261    589    569    566     1  0.0000000  0.0000000  2
    261    589    569    566     1  180.0000771  0.6276000  3
    261    589    569    566     1  180.0000771  2.0920000  4
    262    260    564    544     1  180.0000771  10.4600000  2
    263    261    589    569     1  180.0000771  10.4600000  2
    266    272    273    282     1  180.0000771  2.0083200  2
    266    272    273    282     1  0.0000000  1.2552000  3
    266    272    276    279     1  180.0000771  2.0083200  2
    266    272    276    279     1  0.0000000  1.2552000  3
    269    266    272    273     1  180.0000771  2.0083200  2
    269    266    272    273     1  0.0000000  1.2552000  3
    269    266    272    276     1  180.0000771  2.0083200  2
    269    266    272    276     1  0.0000000  1.2552000  3
    272    266    269    289     1  0.0000000  0.6508444  3
    272    273    282    286     1  0.0000000  0.6508444  3
    272    276    279    285     1  0.0000000  0.6508444  3
    273    272    276    279     1  180.0000771  2.0083200  2
    273    272    276    279     1  0.0000000  1.2552000  3
    273    282    286    288     1  180.0000771  0.0000000  2
    273    282    286    639     1  0.0000000  0.2928800  2
    273    282    286    639     1  0.0000000  0.4184000  4
    276    272    273    282     1  180.0000771  2.0083200  2
    276    272    273    282     1  0.0000000  1.2552000  3
    276    279    285    287     1  180.0000771  0.0000000  2
    276    279    285    614     1  0.0000000  0.2928800  2
    276    279    285    614     1  0.0000000  0.4184000  4
    279    285    614    594     1  180.0000771  6.2760000  1
    279    285    614    594     1  0.0000000  0.0000000  2
    282    286    639    619     1  180.0000771  6.2760000  1
    282    286    639    619     1  0.0000000  0.0000000  2
    285    614    594    591     1  0.0000000  2.2175200  1
    285    614    594    591     1  0.0000000  0.0000000  2
    285    614    594    591     1  180.0000771  0.6276000  3
    285    614    594    591     1  180.0000771  2.0920000  4
    286    639    619    616     1  0.0000000  2.2175200  1
    286    639    619    616     1  0.0000000  0.0000000  2
    286    639    619    616     1  180.0000771  0.6276000  3
    286    639    619    616     1  180.0000771  2.0920000  4
    287    285    614    594     1  180.0000771  10.4600000  2
    288    286    639    619     1  180.0000771  10.4600000  2
    291    297    298    307     1  180.0000771  2.0083200  2
    291    297    298    307     1  0.0000000  1.2552000  3
    291    297    301    304     1  180.0000771  2.0083200  2
    291    297    301    304     1  0.0000000  1.2552000  3
    294    291    297    298     1  180.0000771  2.0083200  2
    294    291    297    298     1  0.0000000  1.2552000  3
    294    291    297    301     1  180.0000771  2.0083200  2
    294    291    297    301     1  0.0000000  1.2552000  3
    297    291    294    314     1  0.0000000  0.6508444  3
    297    298    307    311     1  0.0000000  0.6508444  3
    297    301    304    310     1  0.0000000  0.6508444  3
    298    297    301    304     1  180.0000771  2.0083200  2
    298    297    301    304     1  0.0000000  1.2552000  3
    298    307    311    313     1  180.0000771  0.0000000  2
    298    307    311    689     1  0.0000000  0.2928800  2
    298    307    311    689     1  0.0000000  0.4184000  4
    301    297    298    307     1  180.0000771  2.0083200  2
    301    297    298    307     1  0.0000000  1.2552000  3
    301    304    310    312     1  180.0000771  0.0000000  2
    301    304    310    664     1  0.0000000  0.2928800  2
    301    304    310    664     1  0.0000000  0.4184000  4
    304    310    664    644     1  180.0000771  6.2760000  1
    304    310    664    644     1  0.0000000  0.0000000  2
    307    311    689    669     1  180.0000771  6.2760000  1
    307    311    689    669     1  0.0000000  0.0000000  2
    310    664    644    641     1  0.0000000  2.2175200  1
    310    664    644    641     1  0.0000000  0.0000000  2
    310    664    644    641     1  180.0000771  0.6276000  3
    310    664    644    641     1  180.0000771  2.0920000  4
    311    689    669    666     1  0.0000000  2.2175200  1
    311    689    669    666     1  0.0000000  0.0000000  2
    311    689    669    666     1  180.0000771  0.6276000  3
    311    689    669    666     1  180.0000771  2.0920000  4
    312    310    664    644     1  180.0000771  10.4600000  2
    313    311    689    669     1  180.0000771  10.4600000  2
    316    322    323    332     1  180.0000771  2.0083200  2
    316    322    323    332     1  0.0000000  1.2552000  3
    316    322    326    329     1  180.0000771  2.0083200  2
    316    322    326    329     1  0.0000000  1.2552000  3
    319    316    322    323     1  180.0000771  2.0083200  2
    319    316    322    323     1  0.0000000  1.2552000  3
    319    316    322    326     1  180.0000771  2.0083200  2
    319    316    322    326     1  0.0000000  1.2552000  3
    322    316    319    339     1  0.0000000  0.6508444  3
    322    323    332    336     1  0.0000000  0.6508444  3
    322    326    329    335     1  0.0000000  0.6508444  3
    323    322    326    329     1  180.0000771  2.0083200  2
    323    322    326    329     1  0.0000000  1.2552000  3
    323    332    336    338     1  180.0000771  0.0000000  2
    323    332    336    739     1  0.0000000  0.2928800  2
    323    332    336    739     1  0.0000000  0.4184000  4
    326    322    323    332     1  180.0000771  2.0083200  2
    326    322    323    332     1  0.0000000  1.2552000  3
    326    329    335    337     1  180.0000771  0.0000000  2
    326    329    335    714     1  0.0000000  0.2928800  2
    326    329    335    714     1  0.0000000  0.4184000  4
    329    335    714    694     1  180.0000771  6.2760000  1
    329    335    714    694     1  0.0000000  0.0000000  2
    332    336    739    719     1  180.0000771  6.2760000  1
    332    336    739    719     1  0.0000000  0.0000000  2
    335    714    694    691     1  0.0000000  2.2175200  1
    335    714    694    691     1  0.0000000  0.0000000  2
    335    714    694    691     1  180.0000771  0.6276000  3
    335    714    694    691     1  180.0000771  2.0920000  4
    336    739    719    716     1  0.0000000  2.2175200  1
    336    739    719    716     1  0.0000000  0.0000000  2
    336    739    719    716     1  180.0000771  0.6276000  3
    336    739    719    716     1  180.0000771  2.0920000  4
    337    335    714    694     1  180.0000771  10.4600000  2
    338    336    739    719     1  180.0000771  10.4600000  2
    341    347    348    357     1  180.0000771  2.0083200  2
    341    347    348    357     1  0.0000000  1.2552000  3
    341    347    351    354     1  180.0000771  2.0083200  2
    341    347    351    354     1  0.0000000  1.2552000  3
    344    341    347    348     1  180.0000771  2.0083200  2
    344    341    347    348     1  0.0000000  1.2552000  3
    344    341    347    351     1  180.0000771  2.0083200  2
    344    341    347    351     1  0.0000000  1.2552000  3
    347    341    344    364     1  0.0000000  0.6508444  3
    347    348    357    361     1  0.0000000  0.6508444  3
    347    351    354    360     1  0.0000000  0.6508444  3
    348    347    351    354     1  180.0000771  2.0083200  2
    348    347    351    354     1  0.0000000  1.2552000  3
    348    357    361    363     1  180.0000771  0.0000000  2
    348    357    361    761     1  0.0000000  0.2928800  2
    348    357    361    761     1  0.0000000  0.4184000  4
    351    347    348    357     1  180.0000771  2.0083200  2
    351    347    348    357     1  0.0000000  1.2552000  3
    351    354    360    750     1  0.0000000  0.2928800  2
    351    354    360    750     1  0.0000000  0.4184000  4
    351    354    360    362     1  180.0000771  0.0000000  2
    354    360    750    741     1  180.0000771  6.2760000  1
    354    360    750    741     1  0.0000000  0.0000000  2
    357    361    761    752     1  180.0000771  6.2760000  1
    357    361    761    752     1  0.0000000  0.0000000  2
    360    750    741    744     1  0.0000000  2.2175200  1
    360    750    741    744     1  0.0000000  0.0000000  2
    360    750    741    744     1  180.0000771  0.6276000  3
    360    750    741    744     1  180.0000771  2.0920000  4
    361    761    752    755     1  0.0000000  2.2175200  1
    361    761    752    755     1  0.0000000  0.0000000  2
    361    761    752    755     1  180.0000771  0.6276000  3
    361    761    752    755     1  180.0000771  2.0920000  4
    362    360    750    741     1  180.0000771  10.4600000  2
    363    361    761    752     1  180.0000771  10.4600000  2
    366    372    373    382     1  180.0000771  2.0083200  2
    366    372    373    382     1  0.0000000  1.2552000  3
    366    372    376    379     1  180.0000771  2.0083200  2
    366    372    376    379     1  0.0000000  1.2552000  3
    369    366    372    373     1  180.0000771  2.0083200  2
    369    366    372    373     1  0.0000000  1.2552000  3
    369    366    372    376     1  180.0000771  2.0083200  2
    369    366    372    376     1  0.0000000  1.2552000  3
    372    366    369    389     1  0.0000000  0.6508444  3
    372    373    382    386     1  0.0000000  0.6508444  3
    372    376    379    385     1  0.0000000  0.6508444  3
    373    372    376    379     1  180.0000771  2.0083200  2
    373    372    376    379     1  0.0000000  1.2552000  3
    373    382    386    388     1  180.0000771  0.0000000  2
    373    382    386    783     1  0.0000000  0.2928800  2
    373    382    386    783     1  0.0000000  0.4184000  4
    376    372    373    382     1  180.0000771  2.0083200  2
    376    372    373    382     1  0.0000000  1.2552000  3
    376    379    385    772     1  0.0000000  0.2928800  2
    376    379    385    772     1  0.0000000  0.4184000  4
    376    379    385    387     1  180.0000771  0.0000000  2
    379    385    772    763     1  180.0000771  6.2760000  1
    379    385    772    763     1  0.0000000  0.0000000  2
    382    386    783    774     1  180.0000771  6.2760000  1
    382    386    783    774     1  0.0000000  0.0000000  2
    385    772    763    766     1  0.0000000  2.2175200  1
    385    772    763    766     1  0.0000000  0.0000000  2
    385    772    763    766     1  180.0000771  0.6276000  3
    385    772    763    766     1  180.0000771  2.0920000  4
    386    783    774    777     1  0.0000000  2.2175200  1
    386    783    774    777     1  0.0000000  0.0000000  2
    386    783    774    777     1  180.0000771  0.6276000  3
    386    783    774    777     1  180.0000771  2.0920000  4
    387    385    772    763     1  180.0000771  10.4600000  2
    388    386    783    774     1  180.0000771  10.4600000  2
    391    397    398    407     1  180.0000771  2.0083200  2
    391    397    398    407     1  0.0000000  1.2552000  3
    391    397    401    404     1  180.0000771  2.0083200  2
    391    397    401    404     1  0.0000000  1.2552000  3
    394    391    397    398     1  180.0000771  2.0083200  2
    394    391    397    398     1  0.0000000  1.2552000  3
    394    391    397    401     1  180.0000771  2.0083200  2
    394    391    397    401     1  0.0000000  1.2552000  3
    397    391    394    414     1  0.0000000  0.6508444  3
    397    398    407    411     1  0.0000000  0.6508444  3
    397    401    404    410     1  0.0000000  0.6508444  3
    398    397    401    404     1  180.0000771  2.0083200  2
    398    397    401    404     1  0.0000000  1.2552000  3
    398    407    411    413     1  180.0000771  0.0000000  2
    398    407    411    805     1  0.0000000  0.2928800  2
    398    407    411    805     1  0.0000000  0.4184000  4
    401    397    398    407     1  180.0000771  2.0083200  2
    401    397    398    407     1  0.0000000  1.2552000  3
    401    404    410    794     1  0.0000000  0.2928800  2
    401    404    410    794     1  0.0000000  0.4184000  4
    401    404    410    412     1  180.0000771  0.0000000  2
    404    410    794    785     1  180.0000771  6.2760000  1
    404    410    794    785     1  0.0000000  0.0000000  2
    407    411    805    796     1  180.0000771  6.2760000  1
    407    411    805    796     1  0.0000000  0.0000000  2
    410    794    785    788     1  0.0000000  2.2175200  1
    410    794    785    788     1  0.0000000  0.0000000  2
    410    794    785    788     1  180.0000771  0.6276000  3
    410    794    785    788     1  180.0000771  2.0920000  4
    411    805    796    799     1  0.0000000  2.2175200  1
    411    805    796    799     1  0.0000000  0.0000000  2
    411    805    796    799     1  180.0000771  0.6276000  3
    411    805    796    799     1  180.0000771  2.0920000  4
    412    410    794    785     1  180.0000771  10.4600000  2
    413    411    805    796     1  180.0000771  10.4600000  2
    416    422    423    432     1  180.0000771  2.0083200  2
    416    422    423    432     1  0.0000000  1.2552000  3
    416    422    426    429     1  180.0000771  2.0083200  2
    416    422    426    429     1  0.0000000  1.2552000  3
    419    416    422    423     1  180.0000771  2.0083200  2
    419    416    422    423     1  0.0000000  1.2552000  3
    419    416    422    426     1  180.0000771  2.0083200  2
    419    416    422    426     1  0.0000000  1.2552000  3
    422    416    419    439     1  0.0000000  0.6508444  3
    422    423    432    436     1  0.0000000  0.6508444  3
    422    426    429    435     1  0.0000000  0.6508444  3
    423    422    426    429     1  180.0000771  2.0083200  2
    423    422    426    429     1  0.0000000  1.2552000  3
    423    432    436    438     1  180.0000771  0.0000000  2
    423    432    436    827     1  0.0000000  0.2928800  2
    423    432    436    827     1  0.0000000  0.4184000  4
    426    422    423    432     1  180.0000771  2.0083200  2
    426    422    423    432     1  0.0000000  1.2552000  3
    426    429    435    816     1  0.0000000  0.2928800  2
    426    429    435    816     1  0.0000000  0.4184000  4
    426    429    435    437     1  180.0000771  0.0000000  2
    429    435    816    807     1  180.0000771  6.2760000  1
    429    435    816    807     1  0.0000000  0.0000000  2
    432    436    827    818     1  180.0000771  6.2760000  1
    432    436    827    818     1  0.0000000  0.0000000  2
    435    816    807    810     1  0.0000000  2.2175200  1
    435    816    807    810     1  0.0000000  0.0000000  2
    435    816    807    810     1  180.0000771  0.6276000  3
    435    816    807    810     1  180.0000771  2.0920000  4
    436    827    818    821     1  0.0000000  2.2175200  1
    436    827    818    821     1  0.0000000  0.0000000  2
    436    827    818    821     1  180.0000771  0.6276000  3
    436    827    818    821     1  180.0000771  2.0920000  4
    437    435    816    807     1  180.0000771  10.4600000  2
    438    436    827    818     1  180.0000771  10.4600000  2
    441    447    448    457     1  180.0000771  2.0083200  2
    441    447    448    457     1  0.0000000  1.2552000  3
    441    447    451    454     1  180.0000771  2.0083200  2
    441    447    451    454     1  0.0000000  1.2552000  3
    444    441    447    448     1  180.0000771  2.0083200  2
    444    441    447    448     1  0.0000000  1.2552000  3
    444    441    447    451     1  180.0000771  2.0083200  2
    444    441    447    451     1  0.0000000  1.2552000  3
    447    441    444    464     1  0.0000000  0.6508444  3
    447    448    457    461     1  0.0000000  0.6508444  3
    447    451    454    460     1  0.0000000  0.6508444  3
    448    447    451    454     1  180.0000771  2.0083200  2
    448    447    451    454     1  0.0000000  1.2552000  3
    448    457    461    463     1  180.0000771  0.0000000  2
    448    457    461    849     1  0.0000000  0.2928800  2
    448    457    461    849     1  0.0000000  0.4184000  4
    451    447    448    457     1  180.0000771  2.0083200  2
    451    447    448    457     1  0.0000000  1.2552000  3
    451    454    460    838     1  0.0000000  0.2928800  2
    451    454    460    838     1  0.0000000  0.4184000  4
    451    454    460    462     1  180.0000771  0.0000000  2
    454    460    838    829     1  180.0000771  6.2760000  1
    454    460    838    829     1  0.0000000  0.0000000  2
    457    461    849    840     1  180.0000771  6.2760000  1
    457    461    849    840     1  0.0000000  0.0000000  2
    460    838    829    832     1  0.0000000  2.2175200  1
    460    838    829    832     1  0.0000000  0.0000000  2
    460    838    829    832     1  180.0000771  0.6276000  3
    460    838    829    832     1  180.0000771  2.0920000  4
    461    849    840    843     1  0.0000000  2.2175200  1
    461    849    840    843     1  0.0000000  0.0000000  2
    461    849    840    843     1  180.0000771  0.6276000  3
    461    849    840    843     1  180.0000771  2.0920000  4
    462    460    838    829     1  180.0000771  10.4600000  2
    463    461    849    840     1  180.0000771  10.4600000  2
    466    472    473    482     1  180.0000771  2.0083200  2
    466    472    473    482     1  0.0000000  1.2552000  3
    466    472    476    479     1  180.0000771  2.0083200  2
    466    472    476    479     1  0.0000000  1.2552000  3
    469    466    472    473     1  180.0000771  2.0083200  2
    469    466    472    473     1  0.0000000  1.2552000  3
    469    466    472    476     1  180.0000771  2.0083200  2
    469    466    472    476     1  0.0000000  1.2552000  3
    472    466    469    489     1  0.0000000  0.6508444  3
    472    473    482    486     1  0.0000000  0.6508444  3
    472    476    479    485     1  0.0000000  0.6508444  3
    473    472    476    479     1  180.0000771  2.0083200  2
    473    472    476    479     1  0.0000000  1.2552000  3
    473    482    486    488     1  180.0000771  0.0000000  2
    473    482    486    871     1  0.0000000  0.2928800  2
    473    482    486    871     1  0.0000000  0.4184000  4
    476    472    473    482     1  180.0000771  2.0083200  2
    476    472    473    482     1  0.0000000  1.2552000  3
    476    479    485    860     1  0.0000000  0.2928800  2
    476    479    485    860     1  0.0000000  0.4184000  4
    476    479    485    487     1  180.0000771  0.0000000  2
    479    485    860    851     1  180.0000771  6.2760000  1
    479    485    860    851     1  0.0000000  0.0000000  2
    482    486    871    862     1  180.0000771  6.2760000  1
    482    486    871    862     1  0.0000000  0.0000000  2
    485    860    851    854     1  0.0000000  2.2175200  1
    485    860    851    854     1  0.0000000  0.0000000  2
    485    860    851    854     1  180.0000771  0.6276000  3
    485    860    851    854     1  180.0000771  2.0920000  4
    486    871    862    865     1  0.0000000  2.2175200  1
    486    871    862    865     1  0.0000000  0.0000000  2
    486    871    862    865     1  180.0000771  0.6276000  3
    486    871    862    865     1  180.0000771  2.0920000  4
    487    485    860    851     1  180.0000771  10.4600000  2
    488    486    871    862     1  180.0000771  10.4600000  2
    491    497    498    507     1  180.0000771  2.0083200  2
    491    497    498    507     1  0.0000000  1.2552000  3
    491    497    501    504     1  180.0000771  2.0083200  2
    491    497    501    504     1  0.0000000  1.2552000  3
    494    491    497    498     1  180.0000771  2.0083200  2
    494    491    497    498     1  0.0000000  1.2552000  3
    494    491    497    501     1  180.0000771  2.0083200  2
    494    491    497    501     1  0.0000000  1.2552000  3
    497    491    494    514     1  0.0000000  0.6508444  3
    497    498    507    511     1  0.0000000  0.6508444  3
    497    501    504    510     1  0.0000000  0.6508444  3
    498    497    501    504     1  180.0000771  2.0083200  2
    498    497    501    504     1  0.0000000  1.2552000  3
    498    507    511    513     1  180.0000771  0.0000000  2
    498    507    511    893     1  0.0000000  0.2928800  2
    498    507    511    893     1  0.0000000  0.4184000  4
    501    497    498    507     1  180.0000771  2.0083200  2
    501    497    498    507     1  0.0000000  1.2552000  3
    501    504    510    882     1  0.0000000  0.2928800  2
    501    504    510    882     1  0.0000000  0.4184000  4
    501    504    510    512     1  180.0000771  0.0000000  2
    504    510    882    873     1  180.0000771  6.2760000  1
    504    510    882    873     1  0.0000000  0.0000000  2
    507    511    893    884     1  180.0000771  6.2760000  1
    507    511    893    884     1  0.0000000  0.0000000  2
    510    882    873    876     1  0.0000000  2.2175200  1
    510    882    873    876     1  0.0000000  0.0000000  2
    510    882    873    876     1  180.0000771  0.6276000  3
    510    882    873    876     1  180.0000771  2.0920000  4
    511    893    884    887     1  0.0000000  2.2175200  1
    511    893    884    887     1  0.0000000  0.0000000  2
    511    893    884    887     1  180.0000771  0.6276000  3
    511    893    884    887     1  180.0000771  2.0920000  4
    512    510    882    873     1  180.0000771  10.4600000  2
    513    511    893    884     1  180.0000771  10.4600000  2
    516    522    523    532     1  180.0000771  2.0083200  2
    516    522    523    532     1  0.0000000  1.2552000  3
    516    522    526    529     1  180.0000771  2.0083200  2
    516    522    526    529     1  0.0000000  1.2552000  3
    519    516    522    523     1  180.0000771  2.0083200  2
    519    516    522    523     1  0.0000000  1.2552000  3
    519    516    522    526     1  180.0000771  2.0083200  2
    519    516    522    526     1  0.0000000  1.2552000  3
    522    516    519    539     1  0.0000000  0.6508444  3
    522    523    532    536     1  0.0000000  0.6508444  3
    522    526    529    535     1  0.0000000  0.6508444  3
    523    522    526    529     1  180.0000771  2.0083200  2
    523    522    526    529     1  0.0000000  1.2552000  3
    523    532    536    538     1  180.0000771  0.0000000  2
    523    532    536    915     1  0.0000000  0.2928800  2
    523    532    536    915     1  0.0000000  0.4184000  4
    526    522    523    532     1  180.0000771  2.0083200  2
    526    522    523    532     1  0.0000000  1.2552000  3
    526    529    535    904     1  0.0000000  0.2928800  2
    526    529    535    904     1  0.0000000  0.4184000  4
    526    529    535    537     1  180.0000771  0.0000000  2
    529    535    904    895     1  180.0000771  6.2760000  1
    529    535    904    895     1  0.0000000  0.0000000  2
    532    536    915    906     1  180.0000771  6.2760000  1
    532    536    915    906     1  0.0000000  0.0000000  2
    535    904    895    898     1  0.0000000  2.2175200  1
    535    904    895    898     1  0.0000000  0.0000000  2
    535    904    895    898     1  180.0000771  0.6276000  3
    535    904    895    898     1  180.0000771  2.0920000  4
    536    915    906    909     1  0.0000000  2.2175200  1
    536    915    906    909     1  0.0000000  0.0000000  2
    536    915    906    909     1  180.0000771  0.6276000  3
    536    915    906    909     1  180.0000771  2.0920000  4
    537    535    904    895     1  180.0000771  10.4600000  2
    538    536    915    906     1  180.0000771  10.4600000  2
    541    547    548    557     1  180.0000771  2.0083200  2
    541    547    548    557     1  0.0000000  1.2552000  3
    541    547    551    554     1  180.0000771  2.0083200  2
    541    547    551    554     1  0.0000000  1.2552000  3
    544    541    547    548     1  180.0000771  2.0083200  2
    544    541    547    548     1  0.0000000  1.2552000  3
    544    541    547    551     1  180.0000771  2.0083200  2
    544    541    547    551     1  0.0000000  1.2552000  3
    547    541    544    564     1  0.0000000  0.6508444  3
    547    548    557    561     1  0.0000000  0.6508444  3
    547    551    554    560     1  0.0000000  0.6508444  3
    548    547    551    554     1  180.0000771  2.0083200  2
    548    547    551    554     1  0.0000000  1.2552000  3
    548    557    561    563     1  180.0000771  0.0000000  2
    548    557    561    937     1  0.0000000  0.2928800  2
    548    557    561    937     1  0.0000000  0.4184000  4
    551    547    548    557     1  180.0000771  2.0083200  2
    551    547    548    557     1  0.0000000  1.2552000  3
    551    554    560    926     1  0.0000000  0.2928800  2
    551    554    560    926     1  0.0000000  0.4184000  4
    551    554    560    562     1  180.0000771  0.0000000  2
    554    560    926    917     1  180.0000771  6.2760000  1
    554    560    926    917     1  0.0000000  0.0000000  2
    557    561    937    928     1  180.0000771  6.2760000  1
    557    561    937    928     1  0.0000000  0.0000000  2
    560    926    917    920     1  0.0000000  2.2175200  1
    560    926    917    920     1  0.0000000  0.0000000  2
    560    926    917    920     1  180.0000771  0.6276000  3
    560    926    917    920     1  180.0000771  2.0920000  4
    561    937    928    931     1  0.0000000  2.2175200  1
    561    937    928    931     1  0.0000000  0.0000000  2
    561    937    928    931     1  180.0000771  0.6276000  3
    561    937    928    931     1  180.0000771  2.0920000  4
    562    560    926    917     1  180.0000771  10.4600000  2
    563    561    937    928     1  180.0000771  10.4600000  2
    566    572    573    582     1  180.0000771  2.0083200  2
    566    572    573    582     1  0.0000000  1.2552000  3
    566    572    576    579     1  180.0000771  2.0083200  2
    566    572    576    579     1  0.0000000  1.2552000  3
    569    566    572    573     1  180.0000771  2.0083200  2
    569    566    572    573     1  0.0000000  1.2552000  3
    569    566    572    576     1  180.0000771  2.0083200  2
    569    566    572    576     1  0.0000000  1.2552000  3
    572    566    569    589     1  0.0000000  0.6508444  3
    572    573    582    586     1  0.0000000  0.6508444  3
    572    576    579    585     1  0.0000000  0.6508444  3
    573    572    576    579     1  180.0000771  2.0083200  2
    573    572    576    579     1  0.0000000  1.2552000  3
    573    582    586    588     1  180.0000771  0.0000000  2
    573    582    586    959     1  0.0000000  0.2928800  2
    573    582    586    959     1  0.0000000  0.4184000  4
    576    572    573    582     1  180.0000771  2.0083200  2
    576    572    573    582     1  0.0000000  1.2552000  3
    576    579    585    948     1  0.0000000  0.2928800  2
    576    579    585    948     1  0.0000000  0.4184000  4
    576    579    585    587     1  180.0000771  0.0000000  2
    579    585    948    939     1  180.0000771  6.2760000  1
    579    585    948    939     1  0.0000000  0.0000000  2
    582    586    959    950     1  180.0000771  6.2760000  1
    582    586    959    950     1  0.0000000  0.0000000  2
    585    948    939    942     1  0.0000000  2.2175200  1
    585    948    939    942     1  0.0000000  0.0000000  2
    585    948    939    942     1  180.0000771  0.6276000  3
    585    948    939    942     1  180.0000771  2.0920000  4
    586    959    950    953     1  0.0000000  2.2175200  1
    586    959    950    953     1  0.0000000  0.0000000  2
    586    959    950    953     1  180.0000771  0.6276000  3
    586    959    950    953     1  180.0000771  2.0920000  4
    587    585    948    939     1  180.0000771  10.4600000  2
    588    586    959    950     1  180.0000771  10.4600000  2
    591    597    598    607     1  180.0000771  2.0083200  2
    591    597    598    607     1  0.0000000  1.2552000  3
    591    597    601    604     1  180.0000771  2.0083200  2
    591    597    601    604     1  0.0000000  1.2552000  3
    594    591    597    598     1  180.0000771  2.0083200  2
    594    591    597    598     1  0.0000000  1.2552000  3
    594    591    597    601     1  180.0000771  2.0083200  2
    594    591    597    601     1  0.0000000  1.2552000  3
    597    591    594    614     1  0.0000000  0.6508444  3
    597    598    607    611     1  0.0000000  0.6508444  3
    597    601    604    610     1  0.0000000  0.6508444  3
    598    597    601    604     1  180.0000771  2.0083200  2
    598    597    601    604     1  0.0000000  1.2552000  3
    598    607    611    613     1  180.0000771  0.0000000  2
    598    607    611    981     1  0.0000000  0.2928800  2
    598    607    611    981     1  0.0000000  0.4184000  4
    601    597    598    607     1  180.0000771  2.0083200  2
    601    597    598    607     1  0.0000000  1.2552000  3
    601    604    610    970     1  0.0000000  0.2928800  2
    601    604    610    970     1  0.0000000  0.4184000  4
    601    604    610    612     1  180.0000771  0.0000000  2
    604    610    970    961     1  180.0000771  6.2760000  1
    604    610    970    961     1  0.0000000  0.0000000  2
    607    611    981    972     1  180.0000771  6.2760000  1
    607    611    981    972     1  0.0000000  0.0000000  2
    610    970    961    964     1  0.0000000  2.2175200  1
    610    970    961    964     1  0.0000000  0.0000000  2
    610    970    961    964     1  180.0000771  0.6276000  3
    610    970    961    964     1  180.0000771  2.0920000  4
    611    981    972    975     1  0.0000000  2.2175200  1
    611    981    972    975     1  0.0000000  0.0000000  2
    611    981    972    975     1  180.0000771  0.6276000  3
    611    981    972    975     1  180.0000771  2.0920000  4
    612    610    970    961     1  180.0000771  10.4600000  2
    613    611    981    972     1  180.0000771  10.4600000  2
    616    622    623    632     1  180.0000771  2.0083200  2
    616    622    623    632     1  0.0000000  1.2552000  3
    616    622    626    629     1  180.0000771  2.0083200  2
    616    622    626    629     1  0.0000000  1.2552000  3
    619    616    622    623     1  180.0000771  2.0083200  2
    619    616    622    623     1  0.0000000  1.2552000  3
    619    616    622    626     1  180.0000771  2.0083200  2
    619    616    622    626     1  0.0000000  1.2552000  3
    622    616    619    639     1  0.0000000  0.6508444  3
    622    623    632    636     1  0.0000000  0.6508444  3
    622    626    629    635     1  0.0000000  0.6508444  3
    623    622    626    629     1  180.0000771  2.0083200  2
    623    622    626    629     1  0.0000000  1.2552000  3
    623    632    636    638     1  180.0000771  0.0000000  2
    623    632    636   1003     1  0.0000000  0.2928800  2
    623    632    636   1003     1  0.0000000  0.4184000  4
    626    622    623    632     1  180.0000771  2.0083200  2
    626    622    623    632     1  0.0000000  1.2552000  3
    626    629    635    992     1  0.0000000  0.2928800  2
    626    629    635    992     1  0.0000000  0.4184000  4
    626    629    635    637     1  180.0000771  0.0000000  2
    629    635    992    983     1  180.0000771  6.2760000  1
    629    635    992    983     1  0.0000000  0.0000000  2
    632    636   1003    994     1  180.0000771  6.2760000  1
    632    636   1003    994     1  0.0000000  0.0000000  2
    635    992    983    986     1  0.0000000  2.2175200  1
    635    992    983    986     1  0.0000000  0.0000000  2
    635    992    983    986     1  180.0000771  0.6276000  3
    635    992    983    986     1  180.0000771  2.0920000  4
    636   1003    994    997     1  0.0000000  2.2175200  1
    636   1003    994    997     1  0.0000000  0.0000000  2
    636   1003    994    997     1  180.0000771  0.6276000  3
    636   1003    994    997     1  180.0000771  2.0920000  4
    637    635    992    983     1  180.0000771  10.4600000  2
    638    636   1003    994     1  180.0000771  10.4600000  2
    641    647    648    657     1  180.0000771  2.0083200  2
    641    647    648    657     1  0.0000000  1.2552000  3
    641    647    651    654     1  180.0000771  2.0083200  2
    641    647    651    654     1  0.0000000  1.2552000  3
    644    641    647    648     1  180.0000771  2.0083200  2
    644    641    647    648     1  0.0000000  1.2552000  3
    644    641    647    651     1  180.0000771  2.0083200  2
    644    641    647    651     1  0.0000000  1.2552000  3
    647    641    644    664     1  0.0000000  0.6508444  3
    647    648    657    661     1  0.0000000  0.6508444  3
    647    651    654    660     1  0.0000000  0.6508444  3
    648    647    651    654     1  180.0000771  2.0083200  2
    648    647    651    654     1  0.0000000  1.2552000  3
    648    657    661    663     1  180.0000771  0.0000000  2
    648    657    661   1025     1  0.0000000  0.2928800  2
    648    657    661   1025     1  0.0000000  0.4184000  4
    651    647    648    657     1  180.0000771  2.0083200  2
    651    647    648    657     1  0.0000000  1.2552000  3
    651    654    660   1014     1  0.0000000  0.2928800  2
    651    654    660   1014     1  0.0000000  0.4184000  4
    651    654    660    662     1  180.0000771  0.0000000  2
    654    660   1014   1005     1  180.0000771  6.2760000  1
    654    660   1014   1005     1  0.0000000  0.0000000  2
    657    661   1025   1016     1  180.0000771  6.2760000  1
    657    661   1025   1016     1  0.0000000  0.0000000  2
    660   1014   1005   1008     1  0.0000000  2.2175200  1
    660   1014   1005   1008     1  0.0000000  0.0000000  2
    660   1014   1005   1008     1  180.0000771  0.6276000  3
    660   1014   1005   1008     1  180.0000771  2.0920000  4
    661   1025   1016   1019     1  0.0000000  2.2175200  1
    661   1025   1016   1019     1  0.0000000  0.0000000  2
    661   1025   1016   1019     1  180.0000771  0.6276000  3
    661   1025   1016   1019     1  180.0000771  2.0920000  4
    662    660   1014   1005     1  180.0000771  10.4600000  2
    663    661   1025   1016     1  180.0000771  10.4600000  2
    666    672    673    682     1  180.0000771  2.0083200  2
    666    672    673    682     1  0.0000000  1.2552000  3
    666    672    676    679     1  180.0000771  2.0083200  2
    666    672    676    679     1  0.0000000  1.2552000  3
    669    666    672    673     1  180.0000771  2.0083200  2
    669    666    672    673     1  0.0000000  1.2552000  3
    669    666    672    676     1  180.0000771  2.0083200  2
    669    666    672    676     1  0.0000000  1.2552000  3
    672    666    669    689     1  0.0000000  0.6508444  3
    672    673    682    686     1  0.0000000  0.6508444  3
    672    676    679    685     1  0.0000000  0.6508444  3
    673    672    676    679     1  180.0000771  2.0083200  2
    673    672    676    679     1  0.0000000  1.2552000  3
    673    682    686    688     1  180.0000771  0.0000000  2
    673    682    686   1047     1  0.0000000  0.2928800  2
    673    682    686   1047     1  0.0000000  0.4184000  4
    676    672    673    682     1  180.0000771  2.0083200  2
    676    672    673    682     1  0.0000000  1.2552000  3
    676    679    685   1036     1  0.0000000  0.2928800  2
    676    679    685   1036     1  0.0000000  0.4184000  4
    676    679    685    687     1  180.0000771  0.0000000  2
    679    685   1036   1027     1  180.0000771  6.2760000  1
    679    685   1036   1027     1  0.0000000  0.0000000  2
    682    686   1047   1038     1  180.0000771  6.2760000  1
    682    686   1047   1038     1  0.0000000  0.0000000  2
    685   1036   1027   1030     1  0.0000000  2.2175200  1
    685   1036   1027   1030     1  0.0000000  0.0000000  2
    685   1036   1027   1030     1  180.0000771  0.6276000  3
    685   1036   1027   1030     1  180.0000771  2.0920000  4
    686   1047   1038   1041     1  0.0000000  2.2175200  1
    686   1047   1038   1041     1  0.0000000  0.0000000  2
    686   1047   1038   1041     1  180.0000771  0.6276000  3
    686   1047   1038   1041     1  180.0000771  2.0920000  4
    687    685   1036   1027     1  180.0000771  10.4600000  2
    688    686   1047   1038     1  180.0000771  10.4600000  2
    691    697    698    707     1  180.0000771  2.0083200  2
    691    697    698    707     1  0.0000000  1.2552000  3
    691    697    701    704     1  180.0000771  2.0083200  2
    691    697    701    704     1  0.0000000  1.2552000  3
    694    691    697    698     1  180.0000771  2.0083200  2
    694    691    697    698     1  0.0000000  1.2552000  3
    694    691    697    701     1  180.0000771  2.0083200  2
    694    691    697    701     1  0.0000000  1.2552000  3
    697    691    694    714     1  0.0000000  0.6508444  3
    697    698    707    711     1  0.0000000  0.6508444  3
    697    701    704    710     1  0.0000000  0.6508444  3
    698    697    701    704     1  180.0000771  2.0083200  2
    698    697    701    704     1  0.0000000  1.2552000  3
    698    707    711    713     1  180.0000771  0.0000000  2
    698    707    711   1069     1  0.0000000  0.2928800  2
    698    707    711   1069     1  0.0000000  0.4184000  4
    701    697    698    707     1  180.0000771  2.0083200  2
    701    697    698    707     1  0.0000000  1.2552000  3
    701    704    710   1058     1  0.0000000  0.2928800  2
    701    704    710   1058     1  0.0000000  0.4184000  4
    701    704    710    712     1  180.0000771  0.0000000  2
    704    710   1058   1049     1  180.0000771  6.2760000  1
    704    710   1058   1049     1  0.0000000  0.0000000  2
    707    711   1069   1060     1  180.0000771  6.2760000  1
    707    711   1069   1060     1  0.0000000  0.0000000  2
    710   1058   1049   1052     1  0.0000000  2.2175200  1
    710   1058   1049   1052     1  0.0000000  0.0000000  2
    710   1058   1049   1052     1  180.0000771  0.6276000  3
    710   1058   1049   1052     1  180.0000771  2.0920000  4
    711   1069   1060   1063     1  0.0000000  2.2175200  1
    711   1069   1060   1063     1  0.0000000  0.0000000  2
    711   1069   1060   1063     1  180.0000771  0.6276000  3
    711   1069   1060   1063     1  180.0000771  2.0920000  4
    712    710   1058   1049     1  180.0000771  10.4600000  2
    713    711   1069   1060     1  180.0000771  10.4600000  2
    716    722    723    732     1  180.0000771  2.0083200  2
    716    722    723    732     1  0.0000000  1.2552000  3
    716    722    726    729     1  180.0000771  2.0083200  2
    716    722    726    729     1  0.0000000  1.2552000  3
    719    716    722    723     1  180.0000771  2.0083200  2
    719    716    722    723     1  0.0000000  1.2552000  3
    719    716    722    726     1  180.0000771  2.0083200  2
    719    716    722    726     1  0.0000000  1.2552000  3
    722    716    719    739     1  0.0000000  0.6508444  3
    722    723    732    736     1  0.0000000  0.6508444  3
    722    726    729    735     1  0.0000000  0.6508444  3
    723    722    726    729     1  180.0000771  2.0083200  2
    723    722    726    729     1  0.0000000  1.2552000  3
    723    732    736   1091     1  0.0000000  0.2928800  2
    723    732    736   1091     1  0.0000000  0.4184000  4
    723    732    736    738     1  180.0000771  0.0000000  2
    726    722    723    732     1  180.0000771  2.0083200  2
    726    722    723    732     1  0.0000000  1.2552000  3
    726    729    735   1080     1  0.0000000  0.2928800  2
    726    729    735   1080     1  0.0000000  0.4184000  4
    726    729    735    737     1  180.0000771  0.0000000  2
    729    735   1080   1071     1  180.0000771  6.2760000  1
    729    735   1080   1071     1  0.0000000  0.0000000  2
    732    736   1091   1082     1  180.0000771  6.2760000  1
    732    736   1091   1082     1  0.0000000  0.0000000  2
    735   1080   1071   1074     1  0.0000000  2.2175200  1
    735   1080   1071   1074     1  0.0000000  0.0000000  2
    735   1080   1071   1074     1  180.0000771  0.6276000  3
    735   1080   1071   1074     1  180.0000771  2.0920000  4
    736   1091   1082   1085     1  0.0000000  2.2175200  1
    736   1091   1082   1085     1  0.0000000  0.0000000  2
    736   1091   1082   1085     1  180.0000771  0.6276000  3
    736   1091   1082   1085     1  180.0000771  2.0920000  4
    737    735   1080   1071     1  180.0000771  10.4600000  2
    738    736   1091   1082     1  180.0000771  10.4600000  2
    747    744    741    750     1  0.0000000  0.6508444  3
    758    755    752    761     1  0.0000000  0.6508444  3
    769    766    763    772     1  0.0000000  0.6508444  3
    780    777    774    783     1  0.0000000  0.6508444  3
    791    788    785    794     1  0.0000000  0.6508444  3
    802    799    796    805     1  0.0000000  0.6508444  3
    813    810    807    816     1  0.0000000  0.6508444  3
    824    821    818    827     1  0.0000000  0.6508444  3
    835    832    829    838     1  0.0000000  0.6508444  3
    846    843    840    849     1  0.0000000  0.6508444  3
    857    854    851    860     1  0.0000000  0.6508444  3
    868    865    862    871     1  0.0000000  0.6508444  3
    879    876    873    882     1  0.0000000  0.6508444  3
    890    887    884    893     1  0.0000000  0.6508444  3
    901    898    895    904     1  0.0000000  0.6508444  3
    912    909    906    915     1  0.0000000  0.6508444  3
    923    920    917    926     1  0.0000000  0.6508444  3
    934    931    928    937     1  0.0000000  0.6508444  3
    945    942    939    948     1  0.0000000  0.6508444  3
    956    953    950    959     1  0.0000000  0.6508444  3
    967    964    961    970     1  0.0000000  0.6508444  3
    978    975    972    981     1  0.0000000  0.6508444  3
    989    986    983    992     1  0.0000000  0.6508444  3
   1000    997    994   1003     1  0.0000000  0.6508444  3
   1011   1008   1005   1014     1  0.0000000  0.6508444  3
   1022   1019   1016   1025     1  0.0000000  0.6508444  3
   1033   1030   1027   1036     1  0.0000000  0.6508444  3
   1044   1041   1038   1047     1  0.0000000  0.6508444  3
   1055   1052   1049   1058     1  0.0000000  0.6508444  3
   1066   1063   1060   1069     1  0.0000000  0.6508444  3
   1077   1074   1071   1080     1  0.0000000  0.6508444  3
   1088   1085   1082   1091     1  0.0000000  0.6508444  3
     27     64     33     37     4  180.0000771  43.9320000  2
     30     89     34     40     4  180.0000771  43.9320000  2
     21    114     35     38     4  180.0000771  43.9320000  2
     24    139     36     39     4  180.0000771  43.9320000  2
     54    164     60     62     4  180.0000771  43.9320000  2
     57    189     61     63     4  180.0000771  43.9320000  2
     79    214     85     87     4  180.0000771  43.9320000  2
     82    239     86     88     4  180.0000771  43.9320000  2
    104    264    110    112     4  180.0000771  43.9320000  2
    107    289    111    113     4  180.0000771  43.9320000  2
    129    314    135    137     4  180.0000771  43.9320000  2
    132    339    136    138     4  180.0000771  43.9320000  2
    154    364    160    162     4  180.0000771  43.9320000  2
    157    389    161    163     4  180.0000771  43.9320000  2
    179    414    185    187     4  180.0000771  43.9320000  2
    182    439    186    188     4  180.0000771  43.9320000  2
    204    464    210    212     4  180.0000771  43.9320000  2
    207    489    211    213     4  180.0000771  43.9320000  2
    229    514    235    237     4  180.0000771  43.9320000  2
    232    539    236    238     4  180.0000771  43.9320000  2
    254    564    260    262     4  180.0000771  43.9320000  2
    257    589    261    263     4  180.0000771  43.9320000  2
    279    614    285    287     4  180.0000771  43.9320000  2
    282    639    286    288     4  180.0000771  43.9320000  2
    304    664    310    312     4  180.0000771  43.9320000  2
    307    689    311    313     4  180.0000771  43.9320000  2
    329    714    335    337     4  180.0000771  43.9320000  2
    332    739    336    338     4  180.0000771  43.9320000  2
    354    750    360    362     4  180.0000771  43.9320000  2
    357    761    361    363     4  180.0000771  43.9320000  2
    379    772    385    387     4  180.0000771  43.9320000  2
    382    783    386    388     4  180.0000771  43.9320000  2
    404    794    410    412     4  180.0000771  43.9320000  2
    407    805    411    413     4  180.0000771  43.9320000  2
    429    816    435    437     4  180.0000771  43.9320000  2
    432    827    436    438     4  180.0000771  43.9320000  2
    454    838    460    462     4  180.0000771  43.9320000  2
    457    849    461    463     4  180.0000771  43.9320000  2
    479    860    485    487     4  180.0000771  43.9320000  2
    482    871    486    488     4  180.0000771  43.9320000  2
    504    882    510    512     4  180.0000771  43.9320000  2
    507    893    511    513     4  180.0000771  43.9320000  2
    529    904    535    537     4  180.0000771  43.9320000  2
    532    915    536    538     4  180.0000771  43.9320000  2
    554    926    560    562     4  180.0000771  43.9320000  2
    557    937    561    563     4  180.0000771  43.9320000  2
    579    948    585    587     4  180.0000771  43.9320000  2
    582    959    586    588     4  180.0000771  43.9320000  2
    604    970    610    612     4  180.0000771  43.9320000  2
    607    981    611    613     4  180.0000771  43.9320000  2
    629    992    635    637     4  180.0000771  43.9320000  2
    632   1003    636    638     4  180.0000771  43.9320000  2
    654   1014    660    662     4  180.0000771  43.9320000  2
    657   1025    661    663     4  180.0000771  43.9320000  2
    679   1036    685    687     4  180.0000771  43.9320000  2
    682   1047    686    688     4  180.0000771  43.9320000  2
    704   1058    710    712     4  180.0000771  43.9320000  2
    707   1069    711    713     4  180.0000771  43.9320000  2
    729   1080    735    737     4  180.0000771  43.9320000  2
    732   1091    736    738     4  180.0000771  43.9320000  2
      1      8      9     10     1  0.0000000  1.2552000  3
      1      8      9     11     1  0.0000000  1.2552000  3
      1      8     12     13     1  0.0000000  1.2552000  3
      1      8     12     14     1  0.0000000  1.2552000  3
      2      1      4      7     1  0.0000000  0.6508444  3
      2      1      4      5     1  0.0000000  0.6508444  3
      2      1      4      6     1  0.0000000  0.6508444  3
      2      1      8      9     1  0.0000000  1.2552000  3
      2      1      8     12     1  0.0000000  1.2552000  3
      3      1      4      7     1  0.0000000  0.6508444  3
      3      1      4      5     1  0.0000000  0.6508444  3
      3      1      4      6     1  0.0000000  0.6508444  3
      3      1      8      9     1  0.0000000  1.2552000  3
      3      1      8     12     1  0.0000000  1.2552000  3
      4      7     15     16     1  0.0000000  1.2552000  3
      4      7     15     17     1  0.0000000  1.2552000  3
      4      7     18     19     1  0.0000000  1.2552000  3
      4      7     18     20     1  0.0000000  1.2552000  3
      8      1      4      5     1  0.0000000  0.6508444  3
      5      4      7     15     1  0.0000000  1.2552000  3
      5      4      7     18     1  0.0000000  1.2552000  3
      8      1      4      6     1  0.0000000  0.6508444  3
      6      4      7     15     1  0.0000000  1.2552000  3
      6      4      7     18     1  0.0000000  1.2552000  3
      7     15     21     22     1  0.0000000  0.6508444  3
      7     15     21     23     1  0.0000000  0.6508444  3
      7     18     24     25     1  0.0000000  0.6508444  3
      7     18     24     26     1  0.0000000  0.6508444  3
      8      9     30     31     1  0.0000000  0.6508444  3
      8      9     30     32     1  0.0000000  0.6508444  3
      8     12     27     28     1  0.0000000  0.6508444  3
      8     12     27     29     1  0.0000000  0.6508444  3
      9      8     12     13     1  0.0000000  1.2552000  3
      9      8     12     14     1  0.0000000  1.2552000  3
     10      9      8     12     1  0.0000000  1.2552000  3
     10      9     30     34     1  0.0000000  0.6508444  3
     10      9     30     31     1  0.0000000  0.6508444  3
     10      9     30     32     1  0.0000000  0.6508444  3
     11      9      8     12     1  0.0000000  1.2552000  3
     11      9     30     34     1  0.0000000  0.6508444  3
     11      9     30     31     1  0.0000000  0.6508444  3
     11      9     30     32     1  0.0000000  0.6508444  3
     13     12     27     33     1  0.0000000  0.6508444  3
     13     12     27     28     1  0.0000000  0.6508444  3
     13     12     27     29     1  0.0000000  0.6508444  3
     14     12     27     33     1  0.0000000  0.6508444  3
     14     12     27     28     1  0.0000000  0.6508444  3
     14     12     27     29     1  0.0000000  0.6508444  3
     15      7     18     19     1  0.0000000  1.2552000  3
     15      7     18     20     1  0.0000000  1.2552000  3
     16     15      7     18     1  0.0000000  1.2552000  3
     16     15     21     35     1  0.0000000  0.6508444  3
     16     15     21     22     1  0.0000000  0.6508444  3
     16     15     21     23     1  0.0000000  0.6508444  3
     17     15      7     18     1  0.0000000  1.2552000  3
     17     15     21     35     1  0.0000000  0.6508444  3
     17     15     21     22     1  0.0000000  0.6508444  3
     17     15     21     23     1  0.0000000  0.6508444  3
     19     18     24     36     1  0.0000000  0.6508444  3
     19     18     24     25     1  0.0000000  0.6508444  3
     19     18     24     26     1  0.0000000  0.6508444  3
     20     18     24     36     1  0.0000000  0.6508444  3
     20     18     24     25     1  0.0000000  0.6508444  3
     20     18     24     26     1  0.0000000  0.6508444  3
     21     35    114    115     1  180.0000771  10.4600000  2
     22     21     35     38     1  0.0000000  3.3472000  1
     22     21     35     38     1  0.0000000  0.0000000  2
     22     21     35     38     1  180.0000771  0.3347200  3
     22     21     35    114     1  180.0000771  0.0000000  2
     23     21     35     38     1  0.0000000  3.3472000  1
     23     21     35     38     1  0.0000000  0.0000000  2
     23     21     35     38     1  180.0000771  0.3347200  3
     23     21     35    114     1  180.0000771  0.0000000  2
     24     36    139    140     1  180.0000771  10.4600000  2
     25     24     36     39     1  0.0000000  3.3472000  1
     25     24     36     39     1  0.0000000  0.0000000  2
     25     24     36     39     1  180.0000771  0.3347200  3
     25     24     36    139     1  180.0000771  0.0000000  2
     26     24     36     39     1  0.0000000  3.3472000  1
     26     24     36     39     1  0.0000000  0.0000000  2
     26     24     36     39     1  180.0000771  0.3347200  3
     26     24     36    139     1  180.0000771  0.0000000  2
     27     33     64     65     1  180.0000771  10.4600000  2
     28     27     33     37     1  0.0000000  3.3472000  1
     28     27     33     37     1  0.0000000  0.0000000  2
     28     27     33     37     1  180.0000771  0.3347200  3
     28     27     33     64     1  180.0000771  0.0000000  2
     29     27     33     37     1  0.0000000  3.3472000  1
     29     27     33     37     1  0.0000000  0.0000000  2
     29     27     33     37     1  180.0000771  0.3347200  3
     29     27     33     64     1  180.0000771  0.0000000  2
     30     34     89     90     1  180.0000771  10.4600000  2
     31     30     34     40     1  0.0000000  3.3472000  1
     31     30     34     40     1  0.0000000  0.0000000  2
     31     30     34     40     1  180.0000771  0.3347200  3
     31     30     34     89     1  180.0000771  0.0000000  2
     32     30     34     40     1  0.0000000  3.3472000  1
     32     30     34     40     1  0.0000000  0.0000000  2
     32     30     34     40     1  180.0000771  0.3347200  3
     32     30     34     89     1  180.0000771  0.0000000  2
     33     64     44     45     1  0.0000000  0.0000000  2
     33     64     44     46     1  0.0000000  0.0000000  2
     34     89     69     70     1  0.0000000  0.0000000  2
     34     89     69     71     1  0.0000000  0.0000000  2
     35    114     94     95     1  0.0000000  0.0000000  2
     35    114     94     96     1  0.0000000  0.0000000  2
     36    139    119    120     1  0.0000000  0.0000000  2
     36    139    119    121     1  0.0000000  0.0000000  2
     37     33     64     65     1  0.0000000  8.3680000  1
     37     33     64     65     1  180.0000771  10.4600000  2
     38     35    114    115     1  0.0000000  8.3680000  1
     38     35    114    115     1  180.0000771  10.4600000  2
     39     36    139    140     1  0.0000000  8.3680000  1
     39     36    139    140     1  180.0000771  10.4600000  2
     40     34     89     90     1  0.0000000  8.3680000  1
     40     34     89     90     1  180.0000771  10.4600000  2
     41     44     64     65     1  0.0000000  0.0000000  2
     41     47     48     49     1  0.0000000  1.2552000  3
     41     47     48     50     1  0.0000000  1.2552000  3
     41     47     51     52     1  0.0000000  1.2552000  3
     41     47     51     53     1  0.0000000  1.2552000  3
     42     41     44     64     1  0.0000000  0.6508444  3
     42     41     44     45     1  0.0000000  0.6508444  3
     42     41     44     46     1  0.0000000  0.6508444  3
     42     41     47     48     1  0.0000000  1.2552000  3
     42     41     47     51     1  0.0000000  1.2552000  3
     43     41     44     64     1  0.0000000  0.6508444  3
     43     41     44     45     1  0.0000000  0.6508444  3
     43     41     44     46     1  0.0000000  0.6508444  3
     43     41     47     48     1  0.0000000  1.2552000  3
     43     41     47     51     1  0.0000000  1.2552000  3
     45     44     41     47     1  0.0000000  0.6508444  3
     45     44     64     65     1  0.0000000  0.0000000  2
     46     44     41     47     1  0.0000000  0.6508444  3
     46     44     64     65     1  0.0000000  0.0000000  2
     47     48     57     58     1  0.0000000  0.6508444  3
     47     48     57     59     1  0.0000000  0.6508444  3
     47     51     54     55     1  0.0000000  0.6508444  3
     47     51     54     56     1  0.0000000  0.6508444  3
     48     47     51     52     1  0.0000000  1.2552000  3
     48     47     51     53     1  0.0000000  1.2552000  3
     49     48     47     51     1  0.0000000  1.2552000  3
     49     48     57     61     1  0.0000000  0.6508444  3
     49     48     57     58     1  0.0000000  0.6508444  3
     49     48     57     59     1  0.0000000  0.6508444  3
     50     48     47     51     1  0.0000000  1.2552000  3
     50     48     57     61     1  0.0000000  0.6508444  3
     50     48     57     58     1  0.0000000  0.6508444  3
     50     48     57     59     1  0.0000000  0.6508444  3
     52     51     54     60     1  0.0000000  0.6508444  3
     52     51     54     55     1  0.0000000  0.6508444  3
     52     51     54     56     1  0.0000000  0.6508444  3
     53     51     54     60     1  0.0000000  0.6508444  3
     53     51     54     55     1  0.0000000  0.6508444  3
     53     51     54     56     1  0.0000000  0.6508444  3
     54     60    164    165     1  180.0000771  10.4600000  2
     55     54     60     62     1  0.0000000  3.3472000  1
     55     54     60     62     1  0.0000000  0.0000000  2
     55     54     60     62     1  180.0000771  0.3347200  3
     55     54     60    164     1  180.0000771  0.0000000  2
     56     54     60     62     1  0.0000000  3.3472000  1
     56     54     60     62     1  0.0000000  0.0000000  2
     56     54     60     62     1  180.0000771  0.3347200  3
     56     54     60    164     1  180.0000771  0.0000000  2
     57     61    189    190     1  180.0000771  10.4600000  2
     58     57     61     63     1  0.0000000  3.3472000  1
     58     57     61     63     1  0.0000000  0.0000000  2
     58     57     61     63     1  180.0000771  0.3347200  3
     58     57     61    189     1  180.0000771  0.0000000  2
     59     57     61     63     1  0.0000000  3.3472000  1
     59     57     61     63     1  0.0000000  0.0000000  2
     59     57     61     63     1  180.0000771  0.3347200  3
     59     57     61    189     1  180.0000771  0.0000000  2
     60    164    144    145     1  0.0000000  0.0000000  2
     60    164    144    146     1  0.0000000  0.0000000  2
     61    189    169    170     1  0.0000000  0.0000000  2
     61    189    169    171     1  0.0000000  0.0000000  2
     62     60    164    165     1  0.0000000  8.3680000  1
     62     60    164    165     1  180.0000771  10.4600000  2
     63     61    189    190     1  0.0000000  8.3680000  1
     63     61    189    190     1  180.0000771  10.4600000  2
     66     69     89     90     1  0.0000000  0.0000000  2
     66     72     73     74     1  0.0000000  1.2552000  3
     66     72     73     75     1  0.0000000  1.2552000  3
     66     72     76     77     1  0.0000000  1.2552000  3
     66     72     76     78     1  0.0000000  1.2552000  3
     67     66     69     89     1  0.0000000  0.6508444  3
     67     66     69     70     1  0.0000000  0.6508444  3
     67     66     69     71     1  0.0000000  0.6508444  3
     67     66     72     73     1  0.0000000  1.2552000  3
     67     66     72     76     1  0.0000000  1.2552000  3
     68     66     69     89     1  0.0000000  0.6508444  3
     68     66     69     70     1  0.0000000  0.6508444  3
     68     66     69     71     1  0.0000000  0.6508444  3
     68     66     72     73     1  0.0000000  1.2552000  3
     68     66     72     76     1  0.0000000  1.2552000  3
     70     69     66     72     1  0.0000000  0.6508444  3
     70     69     89     90     1  0.0000000  0.0000000  2
     71     69     66     72     1  0.0000000  0.6508444  3
     71     69     89     90     1  0.0000000  0.0000000  2
     72     73     82     83     1  0.0000000  0.6508444  3
     72     73     82     84     1  0.0000000  0.6508444  3
     72     76     79     80     1  0.0000000  0.6508444  3
     72     76     79     81     1  0.0000000  0.6508444  3
     73     72     76     77     1  0.0000000  1.2552000  3
     73     72     76     78     1  0.0000000  1.2552000  3
     74     73     72     76     1  0.0000000  1.2552000  3
     74     73     82     86     1  0.0000000  0.6508444  3
     74     73     82     83     1  0.0000000  0.6508444  3
     74     73     82     84     1  0.0000000  0.6508444  3
     75     73     72     76     1  0.0000000  1.2552000  3
     75     73     82     86     1  0.0000000  0.6508444  3
     75     73     82     83     1  0.0000000  0.6508444  3
     75     73     82     84     1  0.0000000  0.6508444  3
     77     76     79     85     1  0.0000000  0.6508444  3
     77     76     79     80     1  0.0000000  0.6508444  3
     77     76     79     81     1  0.0000000  0.6508444  3
     78     76     79     85     1  0.0000000  0.6508444  3
     78     76     79     80     1  0.0000000  0.6508444  3
     78     76     79     81     1  0.0000000  0.6508444  3
     79     85    214    215     1  180.0000771  10.4600000  2
     80     79     85     87     1  0.0000000  3.3472000  1
     80     79     85     87     1  0.0000000  0.0000000  2
     80     79     85     87     1  180.0000771  0.3347200  3
     80     79     85    214     1  180.0000771  0.0000000  2
     81     79     85     87     1  0.0000000  3.3472000  1
     81     79     85     87     1  0.0000000  0.0000000  2
     81     79     85     87     1  180.0000771  0.3347200  3
     81     79     85    214     1  180.0000771  0.0000000  2
     82     86    239    240     1  180.0000771  10.4600000  2
     83     82     86     88     1  0.0000000  3.3472000  1
     83     82     86     88     1  0.0000000  0.0000000  2
     83     82     86     88     1  180.0000771  0.3347200  3
     83     82     86    239     1  180.0000771  0.0000000  2
     84     82     86     88     1  0.0000000  3.3472000  1
     84     82     86     88     1  0.0000000  0.0000000  2
     84     82     86     88     1  180.0000771  0.3347200  3
     84     82     86    239     1  180.0000771  0.0000000  2
     85    214    194    195     1  0.0000000  0.0000000  2
     85    214    194    196     1  0.0000000  0.0000000  2
     86    239    219    220     1  0.0000000  0.0000000  2
     86    239    219    221     1  0.0000000  0.0000000  2
     87     85    214    215     1  0.0000000  8.3680000  1
     87     85    214    215     1  180.0000771  10.4600000  2
     88     86    239    240     1  0.0000000  8.3680000  1
     88     86    239    240     1  180.0000771  10.4600000  2
     91     94    114    115     1  0.0000000  0.0000000  2
     91     97     98     99     1  0.0000000  1.2552000  3
     91     97     98    100     1  0.0000000  1.2552000  3
     91     97    101    102     1  0.0000000  1.2552000  3
     91     97    101    103     1  0.0000000  1.2552000  3
     92     91     94    114     1  0.0000000  0.6508444  3
     92     91     94     95     1  0.0000000  0.6508444  3
     92     91     94     96     1  0.0000000  0.6508444  3
     92     91     97     98     1  0.0000000  1.2552000  3
     92     91     97    101     1  0.0000000  1.2552000  3
     93     91     94    114     1  0.0000000  0.6508444  3
     93     91     94     95     1  0.0000000  0.6508444  3
     93     91     94     96     1  0.0000000  0.6508444  3
     93     91     97     98     1  0.0000000  1.2552000  3
     93     91     97    101     1  0.0000000  1.2552000  3
     95     94     91     97     1  0.0000000  0.6508444  3
     95     94    114    115     1  0.0000000  0.0000000  2
     96     94     91     97     1  0.0000000  0.6508444  3
     96     94    114    115     1  0.0000000  0.0000000  2
     97     98    107    108     1  0.0000000  0.6508444  3
     97     98    107    109     1  0.0000000  0.6508444  3
     97    101    104    105     1  0.0000000  0.6508444  3
     97    101    104    106     1  0.0000000  0.6508444  3
     98     97    101    102     1  0.0000000  1.2552000  3
     98     97    101    103     1  0.0000000  1.2552000  3
     99     98     97    101     1  0.0000000  1.2552000  3
     99     98    107    111     1  0.0000000  0.6508444  3
     99     98    107    108     1  0.0000000  0.6508444  3
     99     98    107    109     1  0.0000000  0.6508444  3
    100     98     97    101     1  0.0000000  1.2552000  3
    100     98    107    111     1  0.0000000  0.6508444  3
    100     98    107    108     1  0.0000000  0.6508444  3
    100     98    107    109     1  0.0000000  0.6508444  3
    102    101    104    110     1  0.0000000  0.6508444  3
    102    101    104    105     1  0.0000000  0.6508444  3
    102    101    104    106     1  0.0000000  0.6508444  3
    103    101    104    110     1  0.0000000  0.6508444  3
    103    101    104    105     1  0.0000000  0.6508444  3
    103    101    104    106     1  0.0000000  0.6508444  3
    104    110    264    265     1  180.0000771  10.4600000  2
    105    104    110    112     1  0.0000000  3.3472000  1
    105    104    110    112     1  0.0000000  0.0000000  2
    105    104    110    112     1  180.0000771  0.3347200  3
    105    104    110    264     1  180.0000771  0.0000000  2
    106    104    110    112     1  0.0000000  3.3472000  1
    106    104    110    112     1  0.0000000  0.0000000  2
    106    104    110    112     1  180.0000771  0.3347200  3
    106    104    110    264     1  180.0000771  0.0000000  2
    107    111    289    290     1  180.0000771  10.4600000  2
    108    107    111    113     1  0.0000000  3.3472000  1
    108    107    111    113     1  0.0000000  0.0000000  2
    108    107    111    113     1  180.0000771  0.3347200  3
    108    107    111    289     1  180.0000771  0.0000000  2
    109    107    111    113     1  0.0000000  3.3472000  1
    109    107    111    113     1  0.0000000  0.0000000  2
    109    107    111    113     1  180.0000771  0.3347200  3
    109    107    111    289     1  180.0000771  0.0000000  2
    110    264    244    245     1  0.0000000  0.0000000  2
    110    264    244    246     1  0.0000000  0.0000000  2
    111    289    269    270     1  0.0000000  0.0000000  2
    111    289    269    271     1  0.0000000  0.0000000  2
    112    110    264    265     1  0.0000000  8.3680000  1
    112    110    264    265     1  180.0000771  10.4600000  2
    113    111    289    290     1  0.0000000  8.3680000  1
    113    111    289    290     1  180.0000771  10.4600000  2
    116    119    139    140     1  0.0000000  0.0000000  2
    116    122    123    124     1  0.0000000  1.2552000  3
    116    122    123    125     1  0.0000000  1.2552000  3
    116    122    126    127     1  0.0000000  1.2552000  3
    116    122    126    128     1  0.0000000  1.2552000  3
    117    116    119    139     1  0.0000000  0.6508444  3
    117    116    119    120     1  0.0000000  0.6508444  3
    117    116    119    121     1  0.0000000  0.6508444  3
    117    116    122    123     1  0.0000000  1.2552000  3
    117    116    122    126     1  0.0000000  1.2552000  3
    118    116    119    139     1  0.0000000  0.6508444  3
    118    116    119    120     1  0.0000000  0.6508444  3
    118    116    119    121     1  0.0000000  0.6508444  3
    118    116    122    123     1  0.0000000  1.2552000  3
    118    116    122    126     1  0.0000000  1.2552000  3
    120    119    116    122     1  0.0000000  0.6508444  3
    120    119    139    140     1  0.0000000  0.0000000  2
    121    119    116    122     1  0.0000000  0.6508444  3
    121    119    139    140     1  0.0000000  0.0000000  2
    122    123    132    133     1  0.0000000  0.6508444  3
    122    123    132    134     1  0.0000000  0.6508444  3
    122    126    129    130     1  0.0000000  0.6508444  3
    122    126    129    131     1  0.0000000  0.6508444  3
    123    122    126    127     1  0.0000000  1.2552000  3
    123    122    126    128     1  0.0000000  1.2552000  3
    124    123    122    126     1  0.0000000  1.2552000  3
    124    123    132    136     1  0.0000000  0.6508444  3
    124    123    132    133     1  0.0000000  0.6508444  3
    124    123    132    134     1  0.0000000  0.6508444  3
    125    123    122    126     1  0.0000000  1.2552000  3
    125    123    132    136     1  0.0000000  0.6508444  3
    125    123    132    133     1  0.0000000  0.6508444  3
    125    123    132    134     1  0.0000000  0.6508444  3
    127    126    129    135     1  0.0000000  0.6508444  3
    127    126    129    130     1  0.0000000  0.6508444  3
    127    126    129    131     1  0.0000000  0.6508444  3
    128    126    129    135     1  0.0000000  0.6508444  3
    128    126    129    130     1  0.0000000  0.6508444  3
    128    126    129    131     1  0.0000000  0.6508444  3
    129    135    314    315     1  180.0000771  10.4600000  2
    130    129    135    137     1  0.0000000  3.3472000  1
    130    129    135    137     1  0.0000000  0.0000000  2
    130    129    135    137     1  180.0000771  0.3347200  3
    130    129    135    314     1  180.0000771  0.0000000  2
    131    129    135    137     1  0.0000000  3.3472000  1
    131    129    135    137     1  0.0000000  0.0000000  2
    131    129    135    137     1  180.0000771  0.3347200  3
    131    129    135    314     1  180.0000771  0.0000000  2
    132    136    339    340     1  180.0000771  10.4600000  2
    133    132    136    138     1  0.0000000  3.3472000  1
    133    132    136    138     1  0.0000000  0.0000000  2
    133    132    136    138     1  180.0000771  0.3347200  3
    133    132    136    339     1  180.0000771  0.0000000  2
    134    132    136    138     1  0.0000000  3.3472000  1
    134    132    136    138     1  0.0000000  0.0000000  2
    134    132    136    138     1  180.0000771  0.3347200  3
    134    132    136    339     1  180.0000771  0.0000000  2
    135    314    294    295     1  0.0000000  0.0000000  2
    135    314    294    296     1  0.0000000  0.0000000  2
    136    339    319    320     1  0.0000000  0.0000000  2
    136    339    319    321     1  0.0000000  0.0000000  2
    137    135    314    315     1  0.0000000  8.3680000  1
    137    135    314    315     1  180.0000771  10.4600000  2
    138    136    339    340     1  0.0000000  8.3680000  1
    138    136    339    340     1  180.0000771  10.4600000  2
    141    144    164    165     1  0.0000000  0.0000000  2
    141    147    148    149     1  0.0000000  1.2552000  3
    141    147    148    150     1  0.0000000  1.2552000  3
    141    147    151    152     1  0.0000000  1.2552000  3
    141    147    151    153     1  0.0000000  1.2552000  3
    142    141    144    164     1  0.0000000  0.6508444  3
    142    141    144    145     1  0.0000000  0.6508444  3
    142    141    144    146     1  0.0000000  0.6508444  3
    142    141    147    148     1  0.0000000  1.2552000  3
    142    141    147    151     1  0.0000000  1.2552000  3
    143    141    144    164     1  0.0000000  0.6508444  3
    143    141    144    145     1  0.0000000  0.6508444  3
    143    141    144    146     1  0.0000000  0.6508444  3
    143    141    147    148     1  0.0000000  1.2552000  3
    143    141    147    151     1  0.0000000  1.2552000  3
    145    144    141    147     1  0.0000000  0.6508444  3
    145    144    164    165     1  0.0000000  0.0000000  2
    146    144    141    147     1  0.0000000  0.6508444  3
    146    144    164    165     1  0.0000000  0.0000000  2
    147    148    157    158     1  0.0000000  0.6508444  3
    147    148    157    159     1  0.0000000  0.6508444  3
    147    151    154    155     1  0.0000000  0.6508444  3
    147    151    154    156     1  0.0000000  0.6508444  3
    148    147    151    152     1  0.0000000  1.2552000  3
    148    147    151    153     1  0.0000000  1.2552000  3
    149    148    147    151     1  0.0000000  1.2552000  3
    149    148    157    161     1  0.0000000  0.6508444  3
    149    148    157    158     1  0.0000000  0.6508444  3
    149    148    157    159     1  0.0000000  0.6508444  3
    150    148    147    151     1  0.0000000  1.2552000  3
    150    148    157    161     1  0.0000000  0.6508444  3
    150    148    157    158     1  0.0000000  0.6508444  3
    150    148    157    159     1  0.0000000  0.6508444  3
    152    151    154    160     1  0.0000000  0.6508444  3
    152    151    154    155     1  0.0000000  0.6508444  3
    152    151    154    156     1  0.0000000  0.6508444  3
    153    151    154    160     1  0.0000000  0.6508444  3
    153    151    154    155     1  0.0000000  0.6508444  3
    153    151    154    156     1  0.0000000  0.6508444  3
    154    160    364    365     1  180.0000771  10.4600000  2
    155    154    160    162     1  0.0000000  3.3472000  1
    155    154    160    162     1  0.0000000  0.0000000  2
    155    154    160    162     1  180.0000771  0.3347200  3
    155    154    160    364     1  180.0000771  0.0000000  2
    156    154    160    162     1  0.0000000  3.3472000  1
    156    154    160    162     1  0.0000000  0.0000000  2
    156    154    160    162     1  180.0000771  0.3347200  3
    156    154    160    364     1  180.0000771  0.0000000  2
    157    161    389    390     1  180.0000771  10.4600000  2
    158    157    161    163     1  0.0000000  3.3472000  1
    158    157    161    163     1  0.0000000  0.0000000  2
    158    157    161    163     1  180.0000771  0.3347200  3
    158    157    161    389     1  180.0000771  0.0000000  2
    159    157    161    163     1  0.0000000  3.3472000  1
    159    157    161    163     1  0.0000000  0.0000000  2
    159    157    161    163     1  180.0000771  0.3347200  3
    159    157    161    389     1  180.0000771  0.0000000  2
    160    364    344    345     1  0.0000000  0.0000000  2
    160    364    344    346     1  0.0000000  0.0000000  2
    161    389    369    370     1  0.0000000  0.0000000  2
    161    389    369    371     1  0.0000000  0.0000000  2
    162    160    364    365     1  0.0000000  8.3680000  1
    162    160    364    365     1  180.0000771  10.4600000  2
    163    161    389    390     1  0.0000000  8.3680000  1
    163    161    389    390     1  180.0000771  10.4600000  2
    166    169    189    190     1  0.0000000  0.0000000  2
    166    172    173    174     1  0.0000000  1.2552000  3
    166    172    173    175     1  0.0000000  1.2552000  3
    166    172    176    177     1  0.0000000  1.2552000  3
    166    172    176    178     1  0.0000000  1.2552000  3
    167    166    169    189     1  0.0000000  0.6508444  3
    167    166    169    170     1  0.0000000  0.6508444  3
    167    166    169    171     1  0.0000000  0.6508444  3
    167    166    172    173     1  0.0000000  1.2552000  3
    167    166    172    176     1  0.0000000  1.2552000  3
    168    166    169    189     1  0.0000000  0.6508444  3
    168    166    169    170     1  0.0000000  0.6508444  3
    168    166    169    171     1  0.0000000  0.6508444  3
    168    166    172    173     1  0.0000000  1.2552000  3
    168    166    172    176     1  0.0000000  1.2552000  3
    170    169    166    172     1  0.0000000  0.6508444  3
    170    169    189    190     1  0.0000000  0.0000000  2
    171    169    166    172     1  0.0000000  0.6508444  3
    171    169    189    190     1  0.0000000  0.0000000  2
    172    173    182    183     1  0.0000000  0.6508444  3
    172    173    182    184     1  0.0000000  0.6508444  3
    172    176    179    180     1  0.0000000  0.6508444  3
    172    176    179    181     1  0.0000000  0.6508444  3
    173    172    176    177     1  0.0000000  1.2552000  3
    173    172    176    178     1  0.0000000  1.2552000  3
    174    173    172    176     1  0.0000000  1.2552000  3
    174    173    182    186     1  0.0000000  0.6508444  3
    174    173    182    183     1  0.0000000  0.6508444  3
    174    173    182    184     1  0.0000000  0.6508444  3
    175    173    172    176     1  0.0000000  1.2552000  3
    175    173    182    186     1  0.0000000  0.6508444  3
    175    173    182    183     1  0.0000000  0.6508444  3
    175    173    182    184     1  0.0000000  0.6508444  3
    177    176    179    185     1  0.0000000  0.6508444  3
    177    176    179    180     1  0.0000000  0.6508444  3
    177    176    179    181     1  0.0000000  0.6508444  3
    178    176    179    185     1  0.0000000  0.6508444  3
    178    176    179    180     1  0.0000000  0.6508444  3
    178    176    179    181     1  0.0000000  0.6508444  3
    179    185    414    415     1  180.0000771  10.4600000  2
    180    179    185    187     1  0.0000000  3.3472000  1
    180    179    185    187     1  0.0000000  0.0000000  2
    180    179    185    187     1  180.0000771  0.3347200  3
    180    179    185    414     1  180.0000771  0.0000000  2
    181    179    185    187     1  0.0000000  3.3472000  1
    181    179    185    187     1  0.0000000  0.0000000  2
    181    179    185    187     1  180.0000771  0.3347200  3
    181    179    185    414     1  180.0000771  0.0000000  2
    182    186    439    440     1  180.0000771  10.4600000  2
    183    182    186    188     1  0.0000000  3.3472000  1
    183    182    186    188     1  0.0000000  0.0000000  2
    183    182    186    188     1  180.0000771  0.3347200  3
    183    182    186    439     1  180.0000771  0.0000000  2
    184    182    186    188     1  0.0000000  3.3472000  1
    184    182    186    188     1  0.0000000  0.0000000  2
    184    182    186    188     1  180.0000771  0.3347200  3
    184    182    186    439     1  180.0000771  0.0000000  2
    185    414    394    395     1  0.0000000  0.0000000  2
    185    414    394    396     1  0.0000000  0.0000000  2
    186    439    419    420     1  0.0000000  0.0000000  2
    186    439    419    421     1  0.0000000  0.0000000  2
    187    185    414    415     1  0.0000000  8.3680000  1
    187    185    414    415     1  180.0000771  10.4600000  2
    188    186    439    440     1  0.0000000  8.3680000  1
    188    186    439    440     1  180.0000771  10.4600000  2
    191    194    214    215     1  0.0000000  0.0000000  2
    191    197    198    199     1  0.0000000  1.2552000  3
    191    197    198    200     1  0.0000000  1.2552000  3
    191    197    201    202     1  0.0000000  1.2552000  3
    191    197    201    203     1  0.0000000  1.2552000  3
    192    191    194    214     1  0.0000000  0.6508444  3
    192    191    194    195     1  0.0000000  0.6508444  3
    192    191    194    196     1  0.0000000  0.6508444  3
    192    191    197    198     1  0.0000000  1.2552000  3
    192    191    197    201     1  0.0000000  1.2552000  3
    193    191    194    214     1  0.0000000  0.6508444  3
    193    191    194    195     1  0.0000000  0.6508444  3
    193    191    194    196     1  0.0000000  0.6508444  3
    193    191    197    198     1  0.0000000  1.2552000  3
    193    191    197    201     1  0.0000000  1.2552000  3
    195    194    191    197     1  0.0000000  0.6508444  3
    195    194    214    215     1  0.0000000  0.0000000  2
    196    194    191    197     1  0.0000000  0.6508444  3
    196    194    214    215     1  0.0000000  0.0000000  2
    197    198    207    208     1  0.0000000  0.6508444  3
    197    198    207    209     1  0.0000000  0.6508444  3
    197    201    204    205     1  0.0000000  0.6508444  3
    197    201    204    206     1  0.0000000  0.6508444  3
    198    197    201    202     1  0.0000000  1.2552000  3
    198    197    201    203     1  0.0000000  1.2552000  3
    199    198    197    201     1  0.0000000  1.2552000  3
    199    198    207    211     1  0.0000000  0.6508444  3
    199    198    207    208     1  0.0000000  0.6508444  3
    199    198    207    209     1  0.0000000  0.6508444  3
    200    198    197    201     1  0.0000000  1.2552000  3
    200    198    207    211     1  0.0000000  0.6508444  3
    200    198    207    208     1  0.0000000  0.6508444  3
    200    198    207    209     1  0.0000000  0.6508444  3
    202    201    204    210     1  0.0000000  0.6508444  3
    202    201    204    205     1  0.0000000  0.6508444  3
    202    201    204    206     1  0.0000000  0.6508444  3
    203    201    204    210     1  0.0000000  0.6508444  3
    203    201    204    205     1  0.0000000  0.6508444  3
    203    201    204    206     1  0.0000000  0.6508444  3
    204    210    464    465     1  180.0000771  10.4600000  2
    205    204    210    212     1  0.0000000  3.3472000  1
    205    204    210    212     1  0.0000000  0.0000000  2
    205    204    210    212     1  180.0000771  0.3347200  3
    205    204    210    464     1  180.0000771  0.0000000  2
    206    204    210    212     1  0.0000000  3.3472000  1
    206    204    210    212     1  0.0000000  0.0000000  2
    206    204    210    212     1  180.0000771  0.3347200  3
    206    204    210    464     1  180.0000771  0.0000000  2
    207    211    489    490     1  180.0000771  10.4600000  2
    208    207    211    213     1  0.0000000  3.3472000  1
    208    207    211    213     1  0.0000000  0.0000000  2
    208    207    211    213     1  180.0000771  0.3347200  3
    208    207    211    489     1  180.0000771  0.0000000  2
    209    207    211    213     1  0.0000000  3.3472000  1
    209    207    211    213     1  0.0000000  0.0000000  2
    209    207    211    213     1  180.0000771  0.3347200  3
    209    207    211    489     1  180.0000771  0.0000000  2
    210    464    444    445     1  0.0000000  0.0000000  2
    210    464    444    446     1  0.0000000  0.0000000  2
    211    489    469    470     1  0.0000000  0.0000000  2
    211    489    469    471     1  0.0000000  0.0000000  2
    212    210    464    465     1  0.0000000  8.3680000  1
    212    210    464    465     1  180.0000771  10.4600000  2
    213    211    489    490     1  0.0000000  8.3680000  1
    213    211    489    490     1  180.0000771  10.4600000  2
    216    219    239    240     1  0.0000000  0.0000000  2
    216    222    223    224     1  0.0000000  1.2552000  3
    216    222    223    225     1  0.0000000  1.2552000  3
    216    222    226    227     1  0.0000000  1.2552000  3
    216    222    226    228     1  0.0000000  1.2552000  3
    217    216    219    239     1  0.0000000  0.6508444  3
    217    216    219    220     1  0.0000000  0.6508444  3
    217    216    219    221     1  0.0000000  0.6508444  3
    217    216    222    223     1  0.0000000  1.2552000  3
    217    216    222    226     1  0.0000000  1.2552000  3
    218    216    219    239     1  0.0000000  0.6508444  3
    218    216    219    220     1  0.0000000  0.6508444  3
    218    216    219    221     1  0.0000000  0.6508444  3
    218    216    222    223     1  0.0000000  1.2552000  3
    218    216    222    226     1  0.0000000  1.2552000  3
    220    219    216    222     1  0.0000000  0.6508444  3
    220    219    239    240     1  0.0000000  0.0000000  2
    221    219    216    222     1  0.0000000  0.6508444  3
    221    219    239    240     1  0.0000000  0.0000000  2
    222    223    232    233     1  0.0000000  0.6508444  3
    222    223    232    234     1  0.0000000  0.6508444  3
    222    226    229    230     1  0.0000000  0.6508444  3
    222    226    229    231     1  0.0000000  0.6508444  3
    223    222    226    227     1  0.0000000  1.2552000  3
    223    222    226    228     1  0.0000000  1.2552000  3
    224    223    222    226     1  0.0000000  1.2552000  3
    224    223    232    236     1  0.0000000  0.6508444  3
    224    223    232    233     1  0.0000000  0.6508444  3
    224    223    232    234     1  0.0000000  0.6508444  3
    225    223    222    226     1  0.0000000  1.2552000  3
    225    223    232    236     1  0.0000000  0.6508444  3
    225    223    232    233     1  0.0000000  0.6508444  3
    225    223    232    234     1  0.0000000  0.6508444  3
    227    226    229    235     1  0.0000000  0.6508444  3
    227    226    229    230     1  0.0000000  0.6508444  3
    227    226    229    231     1  0.0000000  0.6508444  3
    228    226    229    235     1  0.0000000  0.6508444  3
    228    226    229    230     1  0.0000000  0.6508444  3
    228    226    229    231     1  0.0000000  0.6508444  3
    229    235    514    515     1  180.0000771  10.4600000  2
    230    229    235    237     1  0.0000000  3.3472000  1
    230    229    235    237     1  0.0000000  0.0000000  2
    230    229    235    237     1  180.0000771  0.3347200  3
    230    229    235    514     1  180.0000771  0.0000000  2
    231    229    235    237     1  0.0000000  3.3472000  1
    231    229    235    237     1  0.0000000  0.0000000  2
    231    229    235    237     1  180.0000771  0.3347200  3
    231    229    235    514     1  180.0000771  0.0000000  2
    232    236    539    540     1  180.0000771  10.4600000  2
    233    232    236    238     1  0.0000000  3.3472000  1
    233    232    236    238     1  0.0000000  0.0000000  2
    233    232    236    238     1  180.0000771  0.3347200  3
    233    232    236    539     1  180.0000771  0.0000000  2
    234    232    236    238     1  0.0000000  3.3472000  1
    234    232    236    238     1  0.0000000  0.0000000  2
    234    232    236    238     1  180.0000771  0.3347200  3
    234    232    236    539     1  180.0000771  0.0000000  2
    235    514    494    495     1  0.0000000  0.0000000  2
    235    514    494    496     1  0.0000000  0.0000000  2
    236    539    519    520     1  0.0000000  0.0000000  2
    236    539    519    521     1  0.0000000  0.0000000  2
    237    235    514    515     1  0.0000000  8.3680000  1
    237    235    514    515     1  180.0000771  10.4600000  2
    238    236    539    540     1  0.0000000  8.3680000  1
    238    236    539    540     1  180.0000771  10.4600000  2
    241    244    264    265     1  0.0000000  0.0000000  2
    241    247    248    249     1  0.0000000  1.2552000  3
    241    247    248    250     1  0.0000000  1.2552000  3
    241    247    251    252     1  0.0000000  1.2552000  3
    241    247    251    253     1  0.0000000  1.2552000  3
    242    241    244    264     1  0.0000000  0.6508444  3
    242    241    244    245     1  0.0000000  0.6508444  3
    242    241    244    246     1  0.0000000  0.6508444  3
    242    241    247    248     1  0.0000000  1.2552000  3
    242    241    247    251     1  0.0000000  1.2552000  3
    243    241    244    264     1  0.0000000  0.6508444  3
    243    241    244    245     1  0.0000000  0.6508444  3
    243    241    244    246     1  0.0000000  0.6508444  3
    243    241    247    248     1  0.0000000  1.2552000  3
    243    241    247    251     1  0.0000000  1.2552000  3
    245    244    241    247     1  0.0000000  0.6508444  3
    245    244    264    265     1  0.0000000  0.0000000  2
    246    244    241    247     1  0.0000000  0.6508444  3
    246    244    264    265     1  0.0000000  0.0000000  2
    247    248    257    258     1  0.0000000  0.6508444  3
    247    248    257    259     1  0.0000000  0.6508444  3
    247    251    254    255     1  0.0000000  0.6508444  3
    247    251    254    256     1  0.0000000  0.6508444  3
    248    247    251    252     1  0.0000000  1.2552000  3
    248    247    251    253     1  0.0000000  1.2552000  3
    249    248    247    251     1  0.0000000  1.2552000  3
    249    248    257    261     1  0.0000000  0.6508444  3
    249    248    257    258     1  0.0000000  0.6508444  3
    249    248    257    259     1  0.0000000  0.6508444  3
    250    248    247    251     1  0.0000000  1.2552000  3
    250    248    257    261     1  0.0000000  0.6508444  3
    250    248    257    258     1  0.0000000  0.6508444  3
    250    248    257    259     1  0.0000000  0.6508444  3
    252    251    254    260     1  0.0000000  0.6508444  3
    252    251    254    255     1  0.0000000  0.6508444  3
    252    251    254    256     1  0.0000000  0.6508444  3
    253    251    254    260     1  0.0000000  0.6508444  3
    253    251    254    255     1  0.0000000  0.6508444  3
    253    251    254    256     1  0.0000000  0.6508444  3
    254    260    564    565     1  180.0000771  10.4600000  2
    255    254    260    262     1  0.0000000  3.3472000  1
    255    254    260    262     1  0.0000000  0.0000000  2
    255    254    260    262     1  180.0000771  0.3347200  3
    255    254    260    564     1  180.0000771  0.0000000  2
    256    254    260    262     1  0.0000000  3.3472000  1
    256    254    260    262     1  0.0000000  0.0000000  2
    256    254    260    262     1  180.0000771  0.3347200  3
    256    254    260    564     1  180.0000771  0.0000000  2
    257    261    589    590     1  180.0000771  10.4600000  2
    258    257    261    263     1  0.0000000  3.3472000  1
    258    257    261    263     1  0.0000000  0.0000000  2
    258    257    261    263     1  180.0000771  0.3347200  3
    258    257    261    589     1  180.0000771  0.0000000  2
    259    257    261    263     1  0.0000000  3.3472000  1
    259    257    261    263     1  0.0000000  0.0000000  2
    259    257    261    263     1  180.0000771  0.3347200  3
    259    257    261    589     1  180.0000771  0.0000000  2
    260    564    544    545     1  0.0000000  0.0000000  2
    260    564    544    546     1  0.0000000  0.0000000  2
    261    589    569    570     1  0.0000000  0.0000000  2
    261    589    569    571     1  0.0000000  0.0000000  2
    262    260    564    565     1  0.0000000  8.3680000  1
    262    260    564    565     1  180.0000771  10.4600000  2
    263    261    589    590     1  0.0000000  8.3680000  1
    263    261    589    590     1  180.0000771  10.4600000  2
    266    269    289    290     1  0.0000000  0.0000000  2
    266    272    273    274     1  0.0000000  1.2552000  3
    266    272    273    275     1  0.0000000  1.2552000  3
    266    272    276    277     1  0.0000000  1.2552000  3
    266    272    276    278     1  0.0000000  1.2552000  3
    267    266    269    289     1  0.0000000  0.6508444  3
    267    266    269    270     1  0.0000000  0.6508444  3
    267    266    269    271     1  0.0000000  0.6508444  3
    267    266    272    273     1  0.0000000  1.2552000  3
    267    266    272    276     1  0.0000000  1.2552000  3
    268    266    269    289     1  0.0000000  0.6508444  3
    268    266    269    270     1  0.0000000  0.6508444  3
    268    266    269    271     1  0.0000000  0.6508444  3
    268    266    272    273     1  0.0000000  1.2552000  3
    268    266    272    276     1  0.0000000  1.2552000  3
    270    269    266    272     1  0.0000000  0.6508444  3
    270    269    289    290     1  0.0000000  0.0000000  2
    271    269    266    272     1  0.0000000  0.6508444  3
    271    269    289    290     1  0.0000000  0.0000000  2
    272    273    282    283     1  0.0000000  0.6508444  3
    272    273    282    284     1  0.0000000  0.6508444  3
    272    276    279    280     1  0.0000000  0.6508444  3
    272    276    279    281     1  0.0000000  0.6508444  3
    273    272    276    277     1  0.0000000  1.2552000  3
    273    272    276    278     1  0.0000000  1.2552000  3
    274    273    272    276     1  0.0000000  1.2552000  3
    274    273    282    286     1  0.0000000  0.6508444  3
    274    273    282    283     1  0.0000000  0.6508444  3
    274    273    282    284     1  0.0000000  0.6508444  3
    275    273    272    276     1  0.0000000  1.2552000  3
    275    273    282    286     1  0.0000000  0.6508444  3
    275    273    282    283     1  0.0000000  0.6508444  3
    275    273    282    284     1  0.0000000  0.6508444  3
    277    276    279    285     1  0.0000000  0.6508444  3
    277    276    279    280     1  0.0000000  0.6508444  3
    277    276    279    281     1  0.0000000  0.6508444  3
    278    276    279    285     1  0.0000000  0.6508444  3
    278    276    279    280     1  0.0000000  0.6508444  3
    278    276    279    281     1  0.0000000  0.6508444  3
    279    285    614    615     1  180.0000771  10.4600000  2
    280    279    285    287     1  0.0000000  3.3472000  1
    280    279    285    287     1  0.0000000  0.0000000  2
    280    279    285    287     1  180.0000771  0.3347200  3
    280    279    285    614     1  180.0000771  0.0000000  2
    281    279    285    287     1  0.0000000  3.3472000  1
    281    279    285    287     1  0.0000000  0.0000000  2
    281    279    285    287     1  180.0000771  0.3347200  3
    281    279    285    614     1  180.0000771  0.0000000  2
    282    286    639    640     1  180.0000771  10.4600000  2
    283    282    286    288     1  0.0000000  3.3472000  1
    283    282    286    288     1  0.0000000  0.0000000  2
    283    282    286    288     1  180.0000771  0.3347200  3
    283    282    286    639     1  180.0000771  0.0000000  2
    284    282    286    288     1  0.0000000  3.3472000  1
    284    282    286    288     1  0.0000000  0.0000000  2
    284    282    286    288     1  180.0000771  0.3347200  3
    284    282    286    639     1  180.0000771  0.0000000  2
    285    614    594    595     1  0.0000000  0.0000000  2
    285    614    594    596     1  0.0000000  0.0000000  2
    286    639    619    620     1  0.0000000  0.0000000  2
    286    639    619    621     1  0.0000000  0.0000000  2
    287    285    614    615     1  0.0000000  8.3680000  1
    287    285    614    615     1  180.0000771  10.4600000  2
    288    286    639    640     1  0.0000000  8.3680000  1
    288    286    639    640     1  180.0000771  10.4600000  2
    291    294    314    315     1  0.0000000  0.0000000  2
    291    297    298    299     1  0.0000000  1.2552000  3
    291    297    298    300     1  0.0000000  1.2552000  3
    291    297    301    302     1  0.0000000  1.2552000  3
    291    297    301    303     1  0.0000000  1.2552000  3
    292    291    294    314     1  0.0000000  0.6508444  3
    292    291    294    295     1  0.0000000  0.6508444  3
    292    291    294    296     1  0.0000000  0.6508444  3
    292    291    297    298     1  0.0000000  1.2552000  3
    292    291    297    301     1  0.0000000  1.2552000  3
    293    291    294    314     1  0.0000000  0.6508444  3
    293    291    294    295     1  0.0000000  0.6508444  3
    293    291    294    296     1  0.0000000  0.6508444  3
    293    291    297    298     1  0.0000000  1.2552000  3
    293    291    297    301     1  0.0000000  1.2552000  3
    295    294    291    297     1  0.0000000  0.6508444  3
    295    294    314    315     1  0.0000000  0.0000000  2
    296    294    291    297     1  0.0000000  0.6508444  3
    296    294    314    315     1  0.0000000  0.0000000  2
    297    298    307    308     1  0.0000000  0.6508444  3
    297    298    307    309     1  0.0000000  0.6508444  3
    297    301    304    305     1  0.0000000  0.6508444  3
    297    301    304    306     1  0.0000000  0.6508444  3
    298    297    301    302     1  0.0000000  1.2552000  3
    298    297    301    303     1  0.0000000  1.2552000  3
    299    298    297    301     1  0.0000000  1.2552000  3
    299    298    307    311     1  0.0000000  0.6508444  3
    299    298    307    308     1  0.0000000  0.6508444  3
    299    298    307    309     1  0.0000000  0.6508444  3
    300    298    297    301     1  0.0000000  1.2552000  3
    300    298    307    311     1  0.0000000  0.6508444  3
    300    298    307    308     1  0.0000000  0.6508444  3
    300    298    307    309     1  0.0000000  0.6508444  3
    302    301    304    310     1  0.0000000  0.6508444  3
    302    301    304    305     1  0.0000000  0.6508444  3
    302    301    304    306     1  0.0000000  0.6508444  3
    303    301    304    310     1  0.0000000  0.6508444  3
    303    301    304    305     1  0.0000000  0.6508444  3
    303    301    304    306     1  0.0000000  0.6508444  3
    304    310    664    665     1  180.0000771  10.4600000  2
    305    304    310    312     1  0.0000000  3.3472000  1
    305    304    310    312     1  0.0000000  0.0000000  2
    305    304    310    312     1  180.0000771  0.3347200  3
    305    304    310    664     1  180.0000771  0.0000000  2
    306    304    310    312     1  0.0000000  3.3472000  1
    306    304    310    312     1  0.0000000  0.0000000  2
    306    304    310    312     1  180.0000771  0.3347200  3
    306    304    310    664     1  180.0000771  0.0000000  2
    307    311    689    690     1  180.0000771  10.4600000  2
    308    307    311    313     1  0.0000000  3.3472000  1
    308    307    311    313     1  0.0000000  0.0000000  2
    308    307    311    313     1  180.0000771  0.3347200  3
    308    307    311    689     1  180.0000771  0.0000000  2
    309    307    311    313     1  0.0000000  3.3472000  1
    309    307    311    313     1  0.0000000  0.0000000  2
    309    307    311    313     1  180.0000771  0.3347200  3
    309    307    311    689     1  180.0000771  0.0000000  2
    310    664    644    645     1  0.0000000  0.0000000  2
    310    664    644    646     1  0.0000000  0.0000000  2
    311    689    669    670     1  0.0000000  0.0000000  2
    311    689    669    671     1  0.0000000  0.0000000  2
    312    310    664    665     1  0.0000000  8.3680000  1
    312    310    664    665     1  180.0000771  10.4600000  2
    313    311    689    690     1  0.0000000  8.3680000  1
    313    311    689    690     1  180.0000771  10.4600000  2
    316    319    339    340     1  0.0000000  0.0000000  2
    316    322    323    324     1  0.0000000  1.2552000  3
    316    322    323    325     1  0.0000000  1.2552000  3
    316    322    326    327     1  0.0000000  1.2552000  3
    316    322    326    328     1  0.0000000  1.2552000  3
    317    316    319    339     1  0.0000000  0.6508444  3
    317    316    319    320     1  0.0000000  0.6508444  3
    317    316    319    321     1  0.0000000  0.6508444  3
    317    316    322    323     1  0.0000000  1.2552000  3
    317    316    322    326     1  0.0000000  1.2552000  3
    318    316    319    339     1  0.0000000  0.6508444  3
    318    316    319    320     1  0.0000000  0.6508444  3
    318    316    319    321     1  0.0000000  0.6508444  3
    318    316    322    323     1  0.0000000  1.2552000  3
    318    316    322    326     1  0.0000000  1.2552000  3
    320    319    316    322     1  0.0000000  0.6508444  3
    320    319    339    340     1  0.0000000  0.0000000  2
    321    319    316    322     1  0.0000000  0.6508444  3
    321    319    339    340     1  0.0000000  0.0000000  2
    322    323    332    333     1  0.0000000  0.6508444  3
    322    323    332    334     1  0.0000000  0.6508444  3
    322    326    329    330     1  0.0000000  0.6508444  3
    322    326    329    331     1  0.0000000  0.6508444  3
    323    322    326    327     1  0.0000000  1.2552000  3
    323    322    326    328     1  0.0000000  1.2552000  3
    324    323    322    326     1  0.0000000  1.2552000  3
    324    323    332    336     1  0.0000000  0.6508444  3
    324    323    332    333     1  0.0000000  0.6508444  3
    324    323    332    334     1  0.0000000  0.6508444  3
    325    323    322    326     1  0.0000000  1.2552000  3
    325    323    332    336     1  0.0000000  0.6508444  3
    325    323    332    333     1  0.0000000  0.6508444  3
    325    323    332    334     1  0.0000000  0.6508444  3
    327    326    329    335     1  0.0000000  0.6508444  3
    327    326    329    330     1  0.0000000  0.6508444  3
    327    326    329    331     1  0.0000000  0.6508444  3
    328    326    329    335     1  0.0000000  0.6508444  3
    328    326    329    330     1  0.0000000  0.6508444  3
    328    326    329    331     1  0.0000000  0.6508444  3
    329    335    714    715     1  180.0000771  10.4600000  2
    330    329    335    337     1  0.0000000  3.3472000  1
    330    329    335    337     1  0.0000000  0.0000000  2
    330    329    335    337     1  180.0000771  0.3347200  3
    330    329    335    714     1  180.0000771  0.0000000  2
    331    329    335    337     1  0.0000000  3.3472000  1
    331    329    335    337     1  0.0000000  0.0000000  2
    331    329    335    337     1  180.0000771  0.3347200  3
    331    329    335    714     1  180.0000771  0.0000000  2
    332    336    739    740     1  180.0000771  10.4600000  2
    333    332    336    338     1  0.0000000  3.3472000  1
    333    332    336    338     1  0.0000000  0.0000000  2
    333    332    336    338     1  180.0000771  0.3347200  3
    333    332    336    739     1  180.0000771  0.0000000  2
    334    332    336    338     1  0.0000000  3.3472000  1
    334    332    336    338     1  0.0000000  0.0000000  2
    334    332    336    338     1  180.0000771  0.3347200  3
    334    332    336    739     1  180.0000771  0.0000000  2
    335    714    694    695     1  0.0000000  0.0000000  2
    335    714    694    696     1  0.0000000  0.0000000  2
    336    739    719    720     1  0.0000000  0.0000000  2
    336    739    719    721     1  0.0000000  0.0000000  2
    337    335    714    715     1  0.0000000  8.3680000  1
    337    335    714    715     1  180.0000771  10.4600000  2
    338    336    739    740     1  0.0000000  8.3680000  1
    338    336    739    740     1  180.0000771  10.4600000  2
    341    344    364    365     1  0.0000000  0.0000000  2
    341    347    348    349     1  0.0000000  1.2552000  3
    341    347    348    350     1  0.0000000  1.2552000  3
    341    347    351    352     1  0.0000000  1.2552000  3
    341    347    351    353     1  0.0000000  1.2552000  3
    342    341    344    364     1  0.0000000  0.6508444  3
    342    341    344    345     1  0.0000000  0.6508444  3
    342    341    344    346     1  0.0000000  0.6508444  3
    342    341    347    348     1  0.0000000  1.2552000  3
    342    341    347    351     1  0.0000000  1.2552000  3
    343    341    344    364     1  0.0000000  0.6508444  3
    343    341    344    345     1  0.0000000  0.6508444  3
    343    341    344    346     1  0.0000000  0.6508444  3
    343    341    347    348     1  0.0000000  1.2552000  3
    343    341    347    351     1  0.0000000  1.2552000  3
    345    344    341    347     1  0.0000000  0.6508444  3
    345    344    364    365     1  0.0000000  0.0000000  2
    346    344    341    347     1  0.0000000  0.6508444  3
    346    344    364    365     1  0.0000000  0.0000000  2
    347    348    357    358     1  0.0000000  0.6508444  3
    347    348    357    359     1  0.0000000  0.6508444  3
    347    351    354    355     1  0.0000000  0.6508444  3
    347    351    354    356     1  0.0000000  0.6508444  3
    348    347    351    352     1  0.0000000  1.2552000  3
    348    347    351    353     1  0.0000000  1.2552000  3
    349    348    347    351     1  0.0000000  1.2552000  3
    349    348    357    361     1  0.0000000  0.6508444  3
    349    348    357    358     1  0.0000000  0.6508444  3
    349    348    357    359     1  0.0000000  0.6508444  3
    350    348    347    351     1  0.0000000  1.2552000  3
    350    348    357    361     1  0.0000000  0.6508444  3
    350    348    357    358     1  0.0000000  0.6508444  3
    350    348    357    359     1  0.0000000  0.6508444  3
    352    351    354    360     1  0.0000000  0.6508444  3
    352    351    354    355     1  0.0000000  0.6508444  3
    352    351    354    356     1  0.0000000  0.6508444  3
    353    351    354    360     1  0.0000000  0.6508444  3
    353    351    354    355     1  0.0000000  0.6508444  3
    353    351    354    356     1  0.0000000  0.6508444  3
    354    360    750    751     1  180.0000771  10.4600000  2
    355    354    360    750     1  180.0000771  0.0000000  2
    355    354    360    362     1  0.0000000  3.3472000  1
    355    354    360    362     1  0.0000000  0.0000000  2
    355    354    360    362     1  180.0000771  0.3347200  3
    356    354    360    750     1  180.0000771  0.0000000  2
    356    354    360    362     1  0.0000000  3.3472000  1
    356    354    360    362     1  0.0000000  0.0000000  2
    356    354    360    362     1  180.0000771  0.3347200  3
    357    361    761    762     1  180.0000771  10.4600000  2
    358    357    361    363     1  0.0000000  3.3472000  1
    358    357    361    363     1  0.0000000  0.0000000  2
    358    357    361    363     1  180.0000771  0.3347200  3
    358    357    361    761     1  180.0000771  0.0000000  2
    359    357    361    363     1  0.0000000  3.3472000  1
    359    357    361    363     1  0.0000000  0.0000000  2
    359    357    361    363     1  180.0000771  0.3347200  3
    359    357    361    761     1  180.0000771  0.0000000  2
    360    750    741    742     1  0.0000000  0.0000000  2
    360    750    741    743     1  0.0000000  0.0000000  2
    361    761    752    753     1  0.0000000  0.0000000  2
    361    761    752    754     1  0.0000000  0.0000000  2
    362    360    750    751     1  0.0000000  8.3680000  1
    362    360    750    751     1  180.0000771  10.4600000  2
    363    361    761    762     1  0.0000000  8.3680000  1
    363    361    761    762     1  180.0000771  10.4600000  2
    366    369    389    390     1  0.0000000  0.0000000  2
    366    372    373    374     1  0.0000000  1.2552000  3
    366    372    373    375     1  0.0000000  1.2552000  3
    366    372    376    377     1  0.0000000  1.2552000  3
    366    372    376    378     1  0.0000000  1.2552000  3
    367    366    369    389     1  0.0000000  0.6508444  3
    367    366    369    370     1  0.0000000  0.6508444  3
    367    366    369    371     1  0.0000000  0.6508444  3
    367    366    372    373     1  0.0000000  1.2552000  3
    367    366    372    376     1  0.0000000  1.2552000  3
    368    366    369    389     1  0.0000000  0.6508444  3
    368    366    369    370     1  0.0000000  0.6508444  3
    368    366    369    371     1  0.0000000  0.6508444  3
    368    366    372    373     1  0.0000000  1.2552000  3
    368    366    372    376     1  0.0000000  1.2552000  3
    370    369    366    372     1  0.0000000  0.6508444  3
    370    369    389    390     1  0.0000000  0.0000000  2
    371    369    366    372     1  0.0000000  0.6508444  3
    371    369    389    390     1  0.0000000  0.0000000  2
    372    373    382    383     1  0.0000000  0.6508444  3
    372    373    382    384     1  0.0000000  0.6508444  3
    372    376    379    380     1  0.0000000  0.6508444  3
    372    376    379    381     1  0.0000000  0.6508444  3
    373    372    376    377     1  0.0000000  1.2552000  3
    373    372    376    378     1  0.0000000  1.2552000  3
    374    373    372    376     1  0.0000000  1.2552000  3
    374    373    382    386     1  0.0000000  0.6508444  3
    374    373    382    383     1  0.0000000  0.6508444  3
    374    373    382    384     1  0.0000000  0.6508444  3
    375    373    372    376     1  0.0000000  1.2552000  3
    375    373    382    386     1  0.0000000  0.6508444  3
    375    373    382    383     1  0.0000000  0.6508444  3
    375    373    382    384     1  0.0000000  0.6508444  3
    377    376    379    385     1  0.0000000  0.6508444  3
    377    376    379    380     1  0.0000000  0.6508444  3
    377    376    379    381     1  0.0000000  0.6508444  3
    378    376    379    385     1  0.0000000  0.6508444  3
    378    376    379    380     1  0.0000000  0.6508444  3
    378    376    379    381     1  0.0000000  0.6508444  3
    379    385    772    773     1  180.0000771  10.4600000  2
    380    379    385    772     1  180.0000771  0.0000000  2
    380    379    385    387     1  0.0000000  3.3472000  1
    380    379    385    387     1  0.0000000  0.0000000  2
    380    379    385    387     1  180.0000771  0.3347200  3
    381    379    385    772     1  180.0000771  0.0000000  2
    381    379    385    387     1  0.0000000  3.3472000  1
    381    379    385    387     1  0.0000000  0.0000000  2
    381    379    385    387     1  180.0000771  0.3347200  3
    382    386    783    784     1  180.0000771  10.4600000  2
    383    382    386    388     1  0.0000000  3.3472000  1
    383    382    386    388     1  0.0000000  0.0000000  2
    383    382    386    388     1  180.0000771  0.3347200  3
    383    382    386    783     1  180.0000771  0.0000000  2
    384    382    386    388     1  0.0000000  3.3472000  1
    384    382    386    388     1  0.0000000  0.0000000  2
    384    382    386    388     1  180.0000771  0.3347200  3
    384    382    386    783     1  180.0000771  0.0000000  2
    385    772    763    764     1  0.0000000  0.0000000  2
    385    772    763    765     1  0.0000000  0.0000000  2
    386    783    774    775     1  0.0000000  0.0000000  2
    386    783    774    776     1  0.0000000  0.0000000  2
    387    385    772    773     1  0.0000000  8.3680000  1
    387    385    772    773     1  180.0000771  10.4600000  2
    388    386    783    784     1  0.0000000  8.3680000  1
    388    386    783    784     1  180.0000771  10.4600000  2
    391    394    414    415     1  0.0000000  0.0000000  2
    391    397    398    399     1  0.0000000  1.2552000  3
    391    397    398    400     1  0.0000000  1.2552000  3
    391    397    401    402     1  0.0000000  1.2552000  3
    391    397    401    403     1  0.0000000  1.2552000  3
    392    391    394    414     1  0.0000000  0.6508444  3
    392    391    394    395     1  0.0000000  0.6508444  3
    392    391    394    396     1  0.0000000  0.6508444  3
    392    391    397    398     1  0.0000000  1.2552000  3
    392    391    397    401     1  0.0000000  1.2552000  3
    393    391    394    414     1  0.0000000  0.6508444  3
    393    391    394    395     1  0.0000000  0.6508444  3
    393    391    394    396     1  0.0000000  0.6508444  3
    393    391    397    398     1  0.0000000  1.2552000  3
    393    391    397    401     1  0.0000000  1.2552000  3
    395    394    391    397     1  0.0000000  0.6508444  3
    395    394    414    415     1  0.0000000  0.0000000  2
    396    394    391    397     1  0.0000000  0.6508444  3
    396    394    414    415     1  0.0000000  0.0000000  2
    397    398    407    408     1  0.0000000  0.6508444  3
    397    398    407    409     1  0.0000000  0.6508444  3
    397    401    404    405     1  0.0000000  0.6508444  3
    397    401    404    406     1  0.0000000  0.6508444  3
    398    397    401    402     1  0.0000000  1.2552000  3
    398    397    401    403     1  0.0000000  1.2552000  3
    399    398    397    401     1  0.0000000  1.2552000  3
    399    398    407    411     1  0.0000000  0.6508444  3
    399    398    407    408     1  0.0000000  0.6508444  3
    399    398    407    409     1  0.0000000  0.6508444  3
    400    398    397    401     1  0.0000000  1.2552000  3
    400    398    407    411     1  0.0000000  0.6508444  3
    400    398    407    408     1  0.0000000  0.6508444  3
    400    398    407    409     1  0.0000000  0.6508444  3
    402    401    404    410     1  0.0000000  0.6508444  3
    402    401    404    405     1  0.0000000  0.6508444  3
    402    401    404    406     1  0.0000000  0.6508444  3
    403    401    404    410     1  0.0000000  0.6508444  3
    403    401    404    405     1  0.0000000  0.6508444  3
    403    401    404    406     1  0.0000000  0.6508444  3
    404    410    794    795     1  180.0000771  10.4600000  2
    405    404    410    794     1  180.0000771  0.0000000  2
    405    404    410    412     1  0.0000000  3.3472000  1
    405    404    410    412     1  0.0000000  0.0000000  2
    405    404    410    412     1  180.0000771  0.3347200  3
    406    404    410    794     1  180.0000771  0.0000000  2
    406    404    410    412     1  0.0000000  3.3472000  1
    406    404    410    412     1  0.0000000  0.0000000  2
    406    404    410    412     1  180.0000771  0.3347200  3
    407    411    805    806     1  180.0000771  10.4600000  2
    408    407    411    413     1  0.0000000  3.3472000  1
    408    407    411    413     1  0.0000000  0.0000000  2
    408    407    411    413     1  180.0000771  0.3347200  3
    408    407    411    805     1  180.0000771  0.0000000  2
    409    407    411    413     1  0.0000000  3.3472000  1
    409    407    411    413     1  0.0000000  0.0000000  2
    409    407    411    413     1  180.0000771  0.3347200  3
    409    407    411    805     1  180.0000771  0.0000000  2
    410    794    785    786     1  0.0000000  0.0000000  2
    410    794    785    787     1  0.0000000  0.0000000  2
    411    805    796    797     1  0.0000000  0.0000000  2
    411    805    796    798     1  0.0000000  0.0000000  2
    412    410    794    795     1  0.0000000  8.3680000  1
    412    410    794    795     1  180.0000771  10.4600000  2
    413    411    805    806     1  0.0000000  8.3680000  1
    413    411    805    806     1  180.0000771  10.4600000  2
    416    419    439    440     1  0.0000000  0.0000000  2
    416    422    423    424     1  0.0000000  1.2552000  3
    416    422    423    425     1  0.0000000  1.2552000  3
    416    422    426    427     1  0.0000000  1.2552000  3
    416    422    426    428     1  0.0000000  1.2552000  3
    417    416    419    439     1  0.0000000  0.6508444  3
    417    416    419    420     1  0.0000000  0.6508444  3
    417    416    419    421     1  0.0000000  0.6508444  3
    417    416    422    423     1  0.0000000  1.2552000  3
    417    416    422    426     1  0.0000000  1.2552000  3
    418    416    419    439     1  0.0000000  0.6508444  3
    418    416    419    420     1  0.0000000  0.6508444  3
    418    416    419    421     1  0.0000000  0.6508444  3
    418    416    422    423     1  0.0000000  1.2552000  3
    418    416    422    426     1  0.0000000  1.2552000  3
    420    419    416    422     1  0.0000000  0.6508444  3
    420    419    439    440     1  0.0000000  0.0000000  2
    421    419    416    422     1  0.0000000  0.6508444  3
    421    419    439    440     1  0.0000000  0.0000000  2
    422    423    432    433     1  0.0000000  0.6508444  3
    422    423    432    434     1  0.0000000  0.6508444  3
    422    426    429    430     1  0.0000000  0.6508444  3
    422    426    429    431     1  0.0000000  0.6508444  3
    423    422    426    427     1  0.0000000  1.2552000  3
    423    422    426    428     1  0.0000000  1.2552000  3
    424    423    422    426     1  0.0000000  1.2552000  3
    424    423    432    436     1  0.0000000  0.6508444  3
    424    423    432    433     1  0.0000000  0.6508444  3
    424    423    432    434     1  0.0000000  0.6508444  3
    425    423    422    426     1  0.0000000  1.2552000  3
    425    423    432    436     1  0.0000000  0.6508444  3
    425    423    432    433     1  0.0000000  0.6508444  3
    425    423    432    434     1  0.0000000  0.6508444  3
    427    426    429    435     1  0.0000000  0.6508444  3
    427    426    429    430     1  0.0000000  0.6508444  3
    427    426    429    431     1  0.0000000  0.6508444  3
    428    426    429    435     1  0.0000000  0.6508444  3
    428    426    429    430     1  0.0000000  0.6508444  3
    428    426    429    431     1  0.0000000  0.6508444  3
    429    435    816    817     1  180.0000771  10.4600000  2
    430    429    435    816     1  180.0000771  0.0000000  2
    430    429    435    437     1  0.0000000  3.3472000  1
    430    429    435    437     1  0.0000000  0.0000000  2
    430    429    435    437     1  180.0000771  0.3347200  3
    431    429    435    816     1  180.0000771  0.0000000  2
    431    429    435    437     1  0.0000000  3.3472000  1
    431    429    435    437     1  0.0000000  0.0000000  2
    431    429    435    437     1  180.0000771  0.3347200  3
    432    436    827    828     1  180.0000771  10.4600000  2
    433    432    436    438     1  0.0000000  3.3472000  1
    433    432    436    438     1  0.0000000  0.0000000  2
    433    432    436    438     1  180.0000771  0.3347200  3
    433    432    436    827     1  180.0000771  0.0000000  2
    434    432    436    438     1  0.0000000  3.3472000  1
    434    432    436    438     1  0.0000000  0.0000000  2
    434    432    436    438     1  180.0000771  0.3347200  3
    434    432    436    827     1  180.0000771  0.0000000  2
    435    816    807    808     1  0.0000000  0.0000000  2
    435    816    807    809     1  0.0000000  0.0000000  2
    436    827    818    819     1  0.0000000  0.0000000  2
    436    827    818    820     1  0.0000000  0.0000000  2
    437    435    816    817     1  0.0000000  8.3680000  1
    437    435    816    817     1  180.0000771  10.4600000  2
    438    436    827    828     1  0.0000000  8.3680000  1
    438    436    827    828     1  180.0000771  10.4600000  2
    441    444    464    465     1  0.0000000  0.0000000  2
    441    447    448    449     1  0.0000000  1.2552000  3
    441    447    448    450     1  0.0000000  1.2552000  3
    441    447    451    452     1  0.0000000  1.2552000  3
    441    447    451    453     1  0.0000000  1.2552000  3
    442    441    444    464     1  0.0000000  0.6508444  3
    442    441    444    445     1  0.0000000  0.6508444  3
    442    441    444    446     1  0.0000000  0.6508444  3
    442    441    447    448     1  0.0000000  1.2552000  3
    442    441    447    451     1  0.0000000  1.2552000  3
    443    441    444    464     1  0.0000000  0.6508444  3
    443    441    444    445     1  0.0000000  0.6508444  3
    443    441    444    446     1  0.0000000  0.6508444  3
    443    441    447    448     1  0.0000000  1.2552000  3
    443    441    447    451     1  0.0000000  1.2552000  3
    445    444    441    447     1  0.0000000  0.6508444  3
    445    444    464    465     1  0.0000000  0.0000000  2
    446    444    441    447     1  0.0000000  0.6508444  3
    446    444    464    465     1  0.0000000  0.0000000  2
    447    448    457    458     1  0.0000000  0.6508444  3
    447    448    457    459     1  0.0000000  0.6508444  3
    447    451    454    455     1  0.0000000  0.6508444  3
    447    451    454    456     1  0.0000000  0.6508444  3
    448    447    451    452     1  0.0000000  1.2552000  3
    448    447    451    453     1  0.0000000  1.2552000  3
    449    448    447    451     1  0.0000000  1.2552000  3
    449    448    457    461     1  0.0000000  0.6508444  3
    449    448    457    458     1  0.0000000  0.6508444  3
    449    448    457    459     1  0.0000000  0.6508444  3
    450    448    447    451     1  0.0000000  1.2552000  3
    450    448    457    461     1  0.0000000  0.6508444  3
    450    448    457    458     1  0.0000000  0.6508444  3
    450    448    457    459     1  0.0000000  0.6508444  3
    452    451    454    460     1  0.0000000  0.6508444  3
    452    451    454    455     1  0.0000000  0.6508444  3
    452    451    454    456     1  0.0000000  0.6508444  3
    453    451    454    460     1  0.0000000  0.6508444  3
    453    451    454    455     1  0.0000000  0.6508444  3
    453    451    454    456     1  0.0000000  0.6508444  3
    454    460    838    839     1  180.0000771  10.4600000  2
    455    454    460    838     1  180.0000771  0.0000000  2
    455    454    460    462     1  0.0000000  3.3472000  1
    455    454    460    462     1  0.0000000  0.0000000  2
    455    454    460    462     1  180.0000771  0.3347200  3
    456    454    460    838     1  180.0000771  0.0000000  2
    456    454    460    462     1  0.0000000  3.3472000  1
    456    454    460    462     1  0.0000000  0.0000000  2
    456    454    460    462     1  180.0000771  0.3347200  3
    457    461    849    850     1  180.0000771  10.4600000  2
    458    457    461    463     1  0.0000000  3.3472000  1
    458    457    461    463     1  0.0000000  0.0000000  2
    458    457    461    463     1  180.0000771  0.3347200  3
    458    457    461    849     1  180.0000771  0.0000000  2
    459    457    461    463     1  0.0000000  3.3472000  1
    459    457    461    463     1  0.0000000  0.0000000  2
    459    457    461    463     1  180.0000771  0.3347200  3
    459    457    461    849     1  180.0000771  0.0000000  2
    460    838    829    830     1  0.0000000  0.0000000  2
    460    838    829    831     1  0.0000000  0.0000000  2
    461    849    840    841     1  0.0000000  0.0000000  2
    461    849    840    842     1  0.0000000  0.0000000  2
    462    460    838    839     1  0.0000000  8.3680000  1
    462    460    838    839     1  180.0000771  10.4600000  2
    463    461    849    850     1  0.0000000  8.3680000  1
    463    461    849    850     1  180.0000771  10.4600000  2
    466    469    489    490     1  0.0000000  0.0000000  2
    466    472    473    474     1  0.0000000  1.2552000  3
    466    472    473    475     1  0.0000000  1.2552000  3
    466    472    476    477     1  0.0000000  1.2552000  3
    466    472    476    478     1  0.0000000  1.2552000  3
    467    466    469    489     1  0.0000000  0.6508444  3
    467    466    469    470     1  0.0000000  0.6508444  3
    467    466    469    471     1  0.0000000  0.6508444  3
    467    466    472    473     1  0.0000000  1.2552000  3
    467    466    472    476     1  0.0000000  1.2552000  3
    468    466    469    489     1  0.0000000  0.6508444  3
    468    466    469    470     1  0.0000000  0.6508444  3
    468    466    469    471     1  0.0000000  0.6508444  3
    468    466    472    473     1  0.0000000  1.2552000  3
    468    466    472    476     1  0.0000000  1.2552000  3
    470    469    466    472     1  0.0000000  0.6508444  3
    470    469    489    490     1  0.0000000  0.0000000  2
    471    469    466    472     1  0.0000000  0.6508444  3
    471    469    489    490     1  0.0000000  0.0000000  2
    472    473    482    483     1  0.0000000  0.6508444  3
    472    473    482    484     1  0.0000000  0.6508444  3
    472    476    479    480     1  0.0000000  0.6508444  3
    472    476    479    481     1  0.0000000  0.6508444  3
    473    472    476    477     1  0.0000000  1.2552000  3
    473    472    476    478     1  0.0000000  1.2552000  3
    474    473    472    476     1  0.0000000  1.2552000  3
    474    473    482    486     1  0.0000000  0.6508444  3
    474    473    482    483     1  0.0000000  0.6508444  3
    474    473    482    484     1  0.0000000  0.6508444  3
    475    473    472    476     1  0.0000000  1.2552000  3
    475    473    482    486     1  0.0000000  0.6508444  3
    475    473    482    483     1  0.0000000  0.6508444  3
    475    473    482    484     1  0.0000000  0.6508444  3
    477    476    479    485     1  0.0000000  0.6508444  3
    477    476    479    480     1  0.0000000  0.6508444  3
    477    476    479    481     1  0.0000000  0.6508444  3
    478    476    479    485     1  0.0000000  0.6508444  3
    478    476    479    480     1  0.0000000  0.6508444  3
    478    476    479    481     1  0.0000000  0.6508444  3
    479    485    860    861     1  180.0000771  10.4600000  2
    480    479    485    860     1  180.0000771  0.0000000  2
    480    479    485    487     1  0.0000000  3.3472000  1
    480    479    485    487     1  0.0000000  0.0000000  2
    480    479    485    487     1  180.0000771  0.3347200  3
    481    479    485    860     1  180.0000771  0.0000000  2
    481    479    485    487     1  0.0000000  3.3472000  1
    481    479    485    487     1  0.0000000  0.0000000  2
    481    479    485    487     1  180.0000771  0.3347200  3
    482    486    871    872     1  180.0000771  10.4600000  2
    483    482    486    488     1  0.0000000  3.3472000  1
    483    482    486    488     1  0.0000000  0.0000000  2
    483    482    486    488     1  180.0000771  0.3347200  3
    483    482    486    871     1  180.0000771  0.0000000  2
    484    482    486    488     1  0.0000000  3.3472000  1
    484    482    486    488     1  0.0000000  0.0000000  2
    484    482    486    488     1  180.0000771  0.3347200  3
    484    482    486    871     1  180.0000771  0.0000000  2
    485    860    851    852     1  0.0000000  0.0000000  2
    485    860    851    853     1  0.0000000  0.0000000  2
    486    871    862    863     1  0.0000000  0.0000000  2
    486    871    862    864     1  0.0000000  0.0000000  2
    487    485    860    861     1  0.0000000  8.3680000  1
    487    485    860    861     1  180.0000771  10.4600000  2
    488    486    871    872     1  0.0000000  8.3680000  1
    488    486    871    872     1  180.0000771  10.4600000  2
    491    494    514    515     1  0.0000000  0.0000000  2
    491    497    498    499     1  0.0000000  1.2552000  3
    491    497    498    500     1  0.0000000  1.2552000  3
    491    497    501    502     1  0.0000000  1.2552000  3
    491    497    501    503     1  0.0000000  1.2552000  3
    492    491    494    514     1  0.0000000  0.6508444  3
    492    491    494    495     1  0.0000000  0.6508444  3
    492    491    494    496     1  0.0000000  0.6508444  3
    492    491    497    498     1  0.0000000  1.2552000  3
    492    491    497    501     1  0.0000000  1.2552000  3
    493    491    494    514     1  0.0000000  0.6508444  3
    493    491    494    495     1  0.0000000  0.6508444  3
    493    491    494    496     1  0.0000000  0.6508444  3
    493    491    497    498     1  0.0000000  1.2552000  3
    493    491    497    501     1  0.0000000  1.2552000  3
    495    494    491    497     1  0.0000000  0.6508444  3
    495    494    514    515     1  0.0000000  0.0000000  2
    496    494    491    497     1  0.0000000  0.6508444  3
    496    494    514    515     1  0.0000000  0.0000000  2
    497    498    507    508     1  0.0000000  0.6508444  3
    497    498    507    509     1  0.0000000  0.6508444  3
    497    501    504    505     1  0.0000000  0.6508444  3
    497    501    504    506     1  0.0000000  0.6508444  3
    498    497    501    502     1  0.0000000  1.2552000  3
    498    497    501    503     1  0.0000000  1.2552000  3
    499    498    497    501     1  0.0000000  1.2552000  3
    499    498    507    511     1  0.0000000  0.6508444  3
    499    498    507    508     1  0.0000000  0.6508444  3
    499    498    507    509     1  0.0000000  0.6508444  3
    500    498    497    501     1  0.0000000  1.2552000  3
    500    498    507    511     1  0.0000000  0.6508444  3
    500    498    507    508     1  0.0000000  0.6508444  3
    500    498    507    509     1  0.0000000  0.6508444  3
    502    501    504    510     1  0.0000000  0.6508444  3
    502    501    504    505     1  0.0000000  0.6508444  3
    502    501    504    506     1  0.0000000  0.6508444  3
    503    501    504    510     1  0.0000000  0.6508444  3
    503    501    504    505     1  0.0000000  0.6508444  3
    503    501    504    506     1  0.0000000  0.6508444  3
    504    510    882    883     1  180.0000771  10.4600000  2
    505    504    510    882     1  180.0000771  0.0000000  2
    505    504    510    512     1  0.0000000  3.3472000  1
    505    504    510    512     1  0.0000000  0.0000000  2
    505    504    510    512     1  180.0000771  0.3347200  3
    506    504    510    882     1  180.0000771  0.0000000  2
    506    504    510    512     1  0.0000000  3.3472000  1
    506    504    510    512     1  0.0000000  0.0000000  2
    506    504    510    512     1  180.0000771  0.3347200  3
    507    511    893    894     1  180.0000771  10.4600000  2
    508    507    511    513     1  0.0000000  3.3472000  1
    508    507    511    513     1  0.0000000  0.0000000  2
    508    507    511    513     1  180.0000771  0.3347200  3
    508    507    511    893     1  180.0000771  0.0000000  2
    509    507    511    513     1  0.0000000  3.3472000  1
    509    507    511    513     1  0.0000000  0.0000000  2
    509    507    511    513     1  180.0000771  0.3347200  3
    509    507    511    893     1  180.0000771  0.0000000  2
    510    882    873    874     1  0.0000000  0.0000000  2
    510    882    873    875     1  0.0000000  0.0000000  2
    511    893    884    885     1  0.0000000  0.0000000  2
    511    893    884    886     1  0.0000000  0.0000000  2
    512    510    882    883     1  0.0000000  8.3680000  1
    512    510    882    883     1  180.0000771  10.4600000  2
    513    511    893    894     1  0.0000000  8.3680000  1
    513    511    893    894     1  180.0000771  10.4600000  2
    516    519    539    540     1  0.0000000  0.0000000  2
    516    522    523    524     1  0.0000000  1.2552000  3
    516    522    523    525     1  0.0000000  1.2552000  3
    516    522    526    527     1  0.0000000  1.2552000  3
    516    522    526    528     1  0.0000000  1.2552000  3
    517    516    519    539     1  0.0000000  0.6508444  3
    517    516    519    520     1  0.0000000  0.6508444  3
    517    516    519    521     1  0.0000000  0.6508444  3
    517    516    522    523     1  0.0000000  1.2552000  3
    517    516    522    526     1  0.0000000  1.2552000  3
    518    516    519    539     1  0.0000000  0.6508444  3
    518    516    519    520     1  0.0000000  0.6508444  3
    518    516    519    521     1  0.0000000  0.6508444  3
    518    516    522    523     1  0.0000000  1.2552000  3
    518    516    522    526     1  0.0000000  1.2552000  3
    520    519    516    522     1  0.0000000  0.6508444  3
    520    519    539    540     1  0.0000000  0.0000000  2
    521    519    516    522     1  0.0000000  0.6508444  3
    521    519    539    540     1  0.0000000  0.0000000  2
    522    523    532    533     1  0.0000000  0.6508444  3
    522    523    532    534     1  0.0000000  0.6508444  3
    522    526    529    530     1  0.0000000  0.6508444  3
    522    526    529    531     1  0.0000000  0.6508444  3
    523    522    526    527     1  0.0000000  1.2552000  3
    523    522    526    528     1  0.0000000  1.2552000  3
    524    523    522    526     1  0.0000000  1.2552000  3
    524    523    532    536     1  0.0000000  0.6508444  3
    524    523    532    533     1  0.0000000  0.6508444  3
    524    523    532    534     1  0.0000000  0.6508444  3
    525    523    522    526     1  0.0000000  1.2552000  3
    525    523    532    536     1  0.0000000  0.6508444  3
    525    523    532    533     1  0.0000000  0.6508444  3
    525    523    532    534     1  0.0000000  0.6508444  3
    527    526    529    535     1  0.0000000  0.6508444  3
    527    526    529    530     1  0.0000000  0.6508444  3
    527    526    529    531     1  0.0000000  0.6508444  3
    528    526    529    535     1  0.0000000  0.6508444  3
    528    526    529    530     1  0.0000000  0.6508444  3
    528    526    529    531     1  0.0000000  0.6508444  3
    529    535    904    905     1  180.0000771  10.4600000  2
    530    529    535    904     1  180.0000771  0.0000000  2
    530    529    535    537     1  0.0000000  3.3472000  1
    530    529    535    537     1  0.0000000  0.0000000  2
    530    529    535    537     1  180.0000771  0.3347200  3
    531    529    535    904     1  180.0000771  0.0000000  2
    531    529    535    537     1  0.0000000  3.3472000  1
    531    529    535    537     1  0.0000000  0.0000000  2
    531    529    535    537     1  180.0000771  0.3347200  3
    532    536    915    916     1  180.0000771  10.4600000  2
    533    532    536    538     1  0.0000000  3.3472000  1
    533    532    536    538     1  0.0000000  0.0000000  2
    533    532    536    538     1  180.0000771  0.3347200  3
    533    532    536    915     1  180.0000771  0.0000000  2
    534    532    536    538     1  0.0000000  3.3472000  1
    534    532    536    538     1  0.0000000  0.0000000  2
    534    532    536    538     1  180.0000771  0.3347200  3
    534    532    536    915     1  180.0000771  0.0000000  2
    535    904    895    896     1  0.0000000  0.0000000  2
    535    904    895    897     1  0.0000000  0.0000000  2
    536    915    906    907     1  0.0000000  0.0000000  2
    536    915    906    908     1  0.0000000  0.0000000  2
    537    535    904    905     1  0.0000000  8.3680000  1
    537    535    904    905     1  180.0000771  10.4600000  2
    538    536    915    916     1  0.0000000  8.3680000  1
    538    536    915    916     1  180.0000771  10.4600000  2
    541    544    564    565     1  0.0000000  0.0000000  2
    541    547    548    549     1  0.0000000  1.2552000  3
    541    547    548    550     1  0.0000000  1.2552000  3
    541    547    551    552     1  0.0000000  1.2552000  3
    541    547    551    553     1  0.0000000  1.2552000  3
    542    541    544    564     1  0.0000000  0.6508444  3
    542    541    544    545     1  0.0000000  0.6508444  3
    542    541    544    546     1  0.0000000  0.6508444  3
    542    541    547    548     1  0.0000000  1.2552000  3
    542    541    547    551     1  0.0000000  1.2552000  3
    543    541    544    564     1  0.0000000  0.6508444  3
    543    541    544    545     1  0.0000000  0.6508444  3
    543    541    544    546     1  0.0000000  0.6508444  3
    543    541    547    548     1  0.0000000  1.2552000  3
    543    541    547    551     1  0.0000000  1.2552000  3
    545    544    541    547     1  0.0000000  0.6508444  3
    545    544    564    565     1  0.0000000  0.0000000  2
    546    544    541    547     1  0.0000000  0.6508444  3
    546    544    564    565     1  0.0000000  0.0000000  2
    547    548    557    558     1  0.0000000  0.6508444  3
    547    548    557    559     1  0.0000000  0.6508444  3
    547    551    554    555     1  0.0000000  0.6508444  3
    547    551    554    556     1  0.0000000  0.6508444  3
    548    547    551    552     1  0.0000000  1.2552000  3
    548    547    551    553     1  0.0000000  1.2552000  3
    549    548    547    551     1  0.0000000  1.2552000  3
    549    548    557    561     1  0.0000000  0.6508444  3
    549    548    557    558     1  0.0000000  0.6508444  3
    549    548    557    559     1  0.0000000  0.6508444  3
    550    548    547    551     1  0.0000000  1.2552000  3
    550    548    557    561     1  0.0000000  0.6508444  3
    550    548    557    558     1  0.0000000  0.6508444  3
    550    548    557    559     1  0.0000000  0.6508444  3
    552    551    554    560     1  0.0000000  0.6508444  3
    552    551    554    555     1  0.0000000  0.6508444  3
    552    551    554    556     1  0.0000000  0.6508444  3
    553    551    554    560     1  0.0000000  0.6508444  3
    553    551    554    555     1  0.0000000  0.6508444  3
    553    551    554    556     1  0.0000000  0.6508444  3
    554    560    926    927     1  180.0000771  10.4600000  2
    555    554    560    926     1  180.0000771  0.0000000  2
    555    554    560    562     1  0.0000000  3.3472000  1
    555    554    560    562     1  0.0000000  0.0000000  2
    555    554    560    562     1  180.0000771  0.3347200  3
    556    554    560    926     1  180.0000771  0.0000000  2
    556    554    560    562     1  0.0000000  3.3472000  1
    556    554    560    562     1  0.0000000  0.0000000  2
    556    554    560    562     1  180.0000771  0.3347200  3
    557    561    937    938     1  180.0000771  10.4600000  2
    558    557    561    563     1  0.0000000  3.3472000  1
    558    557    561    563     1  0.0000000  0.0000000  2
    558    557    561    563     1  180.0000771  0.3347200  3
    558    557    561    937     1  180.0000771  0.0000000  2
    559    557    561    563     1  0.0000000  3.3472000  1
    559    557    561    563     1  0.0000000  0.0000000  2
    559    557    561    563     1  180.0000771  0.3347200  3
    559    557    561    937     1  180.0000771  0.0000000  2
    560    926    917    918     1  0.0000000  0.0000000  2
    560    926    917    919     1  0.0000000  0.0000000  2
    561    937    928    929     1  0.0000000  0.0000000  2
    561    937    928    930     1  0.0000000  0.0000000  2
    562    560    926    927     1  0.0000000  8.3680000  1
    562    560    926    927     1  180.0000771  10.4600000  2
    563    561    937    938     1  0.0000000  8.3680000  1
    563    561    937    938     1  180.0000771  10.4600000  2
    566    569    589    590     1  0.0000000  0.0000000  2
    566    572    573    574     1  0.0000000  1.2552000  3
    566    572    573    575     1  0.0000000  1.2552000  3
    566    572    576    577     1  0.0000000  1.2552000  3
    566    572    576    578     1  0.0000000  1.2552000  3
    567    566    569    589     1  0.0000000  0.6508444  3
    567    566    569    570     1  0.0000000  0.6508444  3
    567    566    569    571     1  0.0000000  0.6508444  3
    567    566    572    573     1  0.0000000  1.2552000  3
    567    566    572    576     1  0.0000000  1.2552000  3
    568    566    569    589     1  0.0000000  0.6508444  3
    568    566    569    570     1  0.0000000  0.6508444  3
    568    566    569    571     1  0.0000000  0.6508444  3
    568    566    572    573     1  0.0000000  1.2552000  3
    568    566    572    576     1  0.0000000  1.2552000  3
    570    569    566    572     1  0.0000000  0.6508444  3
    570    569    589    590     1  0.0000000  0.0000000  2
    571    569    566    572     1  0.0000000  0.6508444  3
    571    569    589    590     1  0.0000000  0.0000000  2
    572    573    582    583     1  0.0000000  0.6508444  3
    572    573    582    584     1  0.0000000  0.6508444  3
    572    576    579    580     1  0.0000000  0.6508444  3
    572    576    579    581     1  0.0000000  0.6508444  3
    573    572    576    577     1  0.0000000  1.2552000  3
    573    572    576    578     1  0.0000000  1.2552000  3
    574    573    572    576     1  0.0000000  1.2552000  3
    574    573    582    586     1  0.0000000  0.6508444  3
    574    573    582    583     1  0.0000000  0.6508444  3
    574    573    582    584     1  0.0000000  0.6508444  3
    575    573    572    576     1  0.0000000  1.2552000  3
    575    573    582    586     1  0.0000000  0.6508444  3
    575    573    582    583     1  0.0000000  0.6508444  3
    575    573    582    584     1  0.0000000  0.6508444  3
    577    576    579    585     1  0.0000000  0.6508444  3
    577    576    579    580     1  0.0000000  0.6508444  3
    577    576    579    581     1  0.0000000  0.6508444  3
    578    576    579    585     1  0.0000000  0.6508444  3
    578    576    579    580     1  0.0000000  0.6508444  3
    578    576    579    581     1  0.0000000  0.6508444  3
    579    585    948    949     1  180.0000771  10.4600000  2
    580    579    585    948     1  180.0000771  0.0000000  2
    580    579    585    587     1  0.0000000  3.3472000  1
    580    579    585    587     1  0.0000000  0.0000000  2
    580    579    585    587     1  180.0000771  0.3347200  3
    581    579    585    948     1  180.0000771  0.0000000  2
    581    579    585    587     1  0.0000000  3.3472000  1
    581    579    585    587     1  0.0000000  0.0000000  2
    581    579    585    587     1  180.0000771  0.3347200  3
    582    586    959    960     1  180.0000771  10.4600000  2
    583    582    586    588     1  0.0000000  3.3472000  1
    583    582    586    588     1  0.0000000  0.0000000  2
    583    582    586    588     1  180.0000771  0.3347200  3
    583    582    586    959     1  180.0000771  0.0000000  2
    584    582    586    588     1  0.0000000  3.3472000  1
    584    582    586    588     1  0.0000000  0.0000000  2
    584    582    586    588     1  180.0000771  0.3347200  3
    584    582    586    959     1  180.0000771  0.0000000  2
    585    948    939    940     1  0.0000000  0.0000000  2
    585    948    939    941     1  0.0000000  0.0000000  2
    586    959    950    951     1  0.0000000  0.0000000  2
    586    959    950    952     1  0.0000000  0.0000000  2
    587    585    948    949     1  0.0000000  8.3680000  1
    587    585    948    949     1  180.0000771  10.4600000  2
    588    586    959    960     1  0.0000000  8.3680000  1
    588    586    959    960     1  180.0000771  10.4600000  2
    591    594    614    615     1  0.0000000  0.0000000  2
    591    597    598    599     1  0.0000000  1.2552000  3
    591    597    598    600     1  0.0000000  1.2552000  3
    591    597    601    602     1  0.0000000  1.2552000  3
    591    597    601    603     1  0.0000000  1.2552000  3
    592    591    594    614     1  0.0000000  0.6508444  3
    592    591    594    595     1  0.0000000  0.6508444  3
    592    591    594    596     1  0.0000000  0.6508444  3
    592    591    597    598     1  0.0000000  1.2552000  3
    592    591    597    601     1  0.0000000  1.2552000  3
    593    591    594    614     1  0.0000000  0.6508444  3
    593    591    594    595     1  0.0000000  0.6508444  3
    593    591    594    596     1  0.0000000  0.6508444  3
    593    591    597    598     1  0.0000000  1.2552000  3
    593    591    597    601     1  0.0000000  1.2552000  3
    595    594    591    597     1  0.0000000  0.6508444  3
    595    594    614    615     1  0.0000000  0.0000000  2
    596    594    591    597     1  0.0000000  0.6508444  3
    596    594    614    615     1  0.0000000  0.0000000  2
    597    598    607    608     1  0.0000000  0.6508444  3
    597    598    607    609     1  0.0000000  0.6508444  3
    597    601    604    605     1  0.0000000  0.6508444  3
    597    601    604    606     1  0.0000000  0.6508444  3
    598    597    601    602     1  0.0000000  1.2552000  3
    598    597    601    603     1  0.0000000  1.2552000  3
    599    598    597    601     1  0.0000000  1.2552000  3
    599    598    607    611     1  0.0000000  0.6508444  3
    599    598    607    608     1  0.0000000  0.6508444  3
    599    598    607    609     1  0.0000000  0.6508444  3
    600    598    597    601     1  0.0000000  1.2552000  3
    600    598    607    611     1  0.0000000  0.6508444  3
    600    598    607    608     1  0.0000000  0.6508444  3
    600    598    607    609     1  0.0000000  0.6508444  3
    602    601    604    610     1  0.0000000  0.6508444  3
    602    601    604    605     1  0.0000000  0.6508444  3
    602    601    604    606     1  0.0000000  0.6508444  3
    603    601    604    610     1  0.0000000  0.6508444  3
    603    601    604    605     1  0.0000000  0.6508444  3
    603    601    604    606     1  0.0000000  0.6508444  3
    604    610    970    971     1  180.0000771  10.4600000  2
    605    604    610    970     1  180.0000771  0.0000000  2
    605    604    610    612     1  0.0000000  3.3472000  1
    605    604    610    612     1  0.0000000  0.0000000  2
    605    604    610    612     1  180.0000771  0.3347200  3
    606    604    610    970     1  180.0000771  0.0000000  2
    606    604    610    612     1  0.0000000  3.3472000  1
    606    604    610    612     1  0.0000000  0.0000000  2
    606    604    610    612     1  180.0000771  0.3347200  3
    607    611    981    982     1  180.0000771  10.4600000  2
    608    607    611    613     1  0.0000000  3.3472000  1
    608    607    611    613     1  0.0000000  0.0000000  2
    608    607    611    613     1  180.0000771  0.3347200  3
    608    607    611    981     1  180.0000771  0.0000000  2
    609    607    611    613     1  0.0000000  3.3472000  1
    609    607    611    613     1  0.0000000  0.0000000  2
    609    607    611    613     1  180.0000771  0.3347200  3
    609    607    611    981     1  180.0000771  0.0000000  2
    610    970    961    962     1  0.0000000  0.0000000  2
    610    970    961    963     1  0.0000000  0.0000000  2
    611    981    972    973     1  0.0000000  0.0000000  2
    611    981    972    974     1  0.0000000  0.0000000  2
    612    610    970    971     1  0.0000000  8.3680000  1
    612    610    970    971     1  180.0000771  10.4600000  2
    613    611    981    982     1  0.0000000  8.3680000  1
    613    611    981    982     1  180.0000771  10.4600000  2
    616    619    639    640     1  0.0000000  0.0000000  2
    616    622    623    624     1  0.0000000  1.2552000  3
    616    622    623    625     1  0.0000000  1.2552000  3
    616    622    626    627     1  0.0000000  1.2552000  3
    616    622    626    628     1  0.0000000  1.2552000  3
    617    616    619    639     1  0.0000000  0.6508444  3
    617    616    619    620     1  0.0000000  0.6508444  3
    617    616    619    621     1  0.0000000  0.6508444  3
    617    616    622    623     1  0.0000000  1.2552000  3
    617    616    622    626     1  0.0000000  1.2552000  3
    618    616    619    639     1  0.0000000  0.6508444  3
    618    616    619    620     1  0.0000000  0.6508444  3
    618    616    619    621     1  0.0000000  0.6508444  3
    618    616    622    623     1  0.0000000  1.2552000  3
    618    616    622    626     1  0.0000000  1.2552000  3
    620    619    616    622     1  0.0000000  0.6508444  3
    620    619    639    640     1  0.0000000  0.0000000  2
    621    619    616    622     1  0.0000000  0.6508444  3
    621    619    639    640     1  0.0000000  0.0000000  2
    622    623    632    633     1  0.0000000  0.6508444  3
    622    623    632    634     1  0.0000000  0.6508444  3
    622    626    629    630     1  0.0000000  0.6508444  3
    622    626    629    631     1  0.0000000  0.6508444  3
    623    622    626    627     1  0.0000000  1.2552000  3
    623    622    626    628     1  0.0000000  1.2552000  3
    624    623    622    626     1  0.0000000  1.2552000  3
    624    623    632    636     1  0.0000000  0.6508444  3
    624    623    632    633     1  0.0000000  0.6508444  3
    624    623    632    634     1  0.0000000  0.6508444  3
    625    623    622    626     1  0.0000000  1.2552000  3
    625    623    632    636     1  0.0000000  0.6508444  3
    625    623    632    633     1  0.0000000  0.6508444  3
    625    623    632    634     1  0.0000000  0.6508444  3
    627    626    629    635     1  0.0000000  0.6508444  3
    627    626    629    630     1  0.0000000  0.6508444  3
    627    626    629    631     1  0.0000000  0.6508444  3
    628    626    629    635     1  0.0000000  0.6508444  3
    628    626    629    630     1  0.0000000  0.6508444  3
    628    626    629    631     1  0.0000000  0.6508444  3
    629    635    992    993     1  180.0000771  10.4600000  2
    630    629    635    992     1  180.0000771  0.0000000  2
    630    629    635    637     1  0.0000000  3.3472000  1
    630    629    635    637     1  0.0000000  0.0000000  2
    630    629    635    637     1  180.0000771  0.3347200  3
    631    629    635    992     1  180.0000771  0.0000000  2
    631    629    635    637     1  0.0000000  3.3472000  1
    631    629    635    637     1  0.0000000  0.0000000  2
    631    629    635    637     1  180.0000771  0.3347200  3
    632    636   1003   1004     1  180.0000771  10.4600000  2
    633    632    636    638     1  0.0000000  3.3472000  1
    633    632    636    638     1  0.0000000  0.0000000  2
    633    632    636    638     1  180.0000771  0.3347200  3
    633    632    636   1003     1  180.0000771  0.0000000  2
    634    632    636    638     1  0.0000000  3.3472000  1
    634    632    636    638     1  0.0000000  0.0000000  2
    634    632    636    638     1  180.0000771  0.3347200  3
    634    632    636   1003     1  180.0000771  0.0000000  2
    635    992    983    984     1  0.0000000  0.0000000  2
    635    992    983    985     1  0.0000000  0.0000000  2
    636   1003    994    995     1  0.0000000  0.0000000  2
    636   1003    994    996     1  0.0000000  0.0000000  2
    637    635    992    993     1  0.0000000  8.3680000  1
    637    635    992    993     1  180.0000771  10.4600000  2
    638    636   1003   1004     1  0.0000000  8.3680000  1
    638    636   1003   1004     1  180.0000771  10.4600000  2
    641    644    664    665     1  0.0000000  0.0000000  2
    641    647    648    649     1  0.0000000  1.2552000  3
    641    647    648    650     1  0.0000000  1.2552000  3
    641    647    651    652     1  0.0000000  1.2552000  3
    641    647    651    653     1  0.0000000  1.2552000  3
    642    641    644    664     1  0.0000000  0.6508444  3
    642    641    644    645     1  0.0000000  0.6508444  3
    642    641    644    646     1  0.0000000  0.6508444  3
    642    641    647    648     1  0.0000000  1.2552000  3
    642    641    647    651     1  0.0000000  1.2552000  3
    643    641    644    664     1  0.0000000  0.6508444  3
    643    641    644    645     1  0.0000000  0.6508444  3
    643    641    644    646     1  0.0000000  0.6508444  3
    643    641    647    648     1  0.0000000  1.2552000  3
    643    641    647    651     1  0.0000000  1.2552000  3
    645    644    641    647     1  0.0000000  0.6508444  3
    645    644    664    665     1  0.0000000  0.0000000  2
    646    644    641    647     1  0.0000000  0.6508444  3
    646    644    664    665     1  0.0000000  0.0000000  2
    647    648    657    658     1  0.0000000  0.6508444  3
    647    648    657    659     1  0.0000000  0.6508444  3
    647    651    654    655     1  0.0000000  0.6508444  3
    647    651    654    656     1  0.0000000  0.6508444  3
    648    647    651    652     1  0.0000000  1.2552000  3
    648    647    651    653     1  0.0000000  1.2552000  3
    649    648    647    651     1  0.0000000  1.2552000  3
    649    648    657    661     1  0.0000000  0.6508444  3
    649    648    657    658     1  0.0000000  0.6508444  3
    649    648    657    659     1  0.0000000  0.6508444  3
    650    648    647    651     1  0.0000000  1.2552000  3
    650    648    657    661     1  0.0000000  0.6508444  3
    650    648    657    658     1  0.0000000  0.6508444  3
    650    648    657    659     1  0.0000000  0.6508444  3
    652    651    654    660     1  0.0000000  0.6508444  3
    652    651    654    655     1  0.0000000  0.6508444  3
    652    651    654    656     1  0.0000000  0.6508444  3
    653    651    654    660     1  0.0000000  0.6508444  3
    653    651    654    655     1  0.0000000  0.6508444  3
    653    651    654    656     1  0.0000000  0.6508444  3
    654    660   1014   1015     1  180.0000771  10.4600000  2
    655    654    660   1014     1  180.0000771  0.0000000  2
    655    654    660    662     1  0.0000000  3.3472000  1
    655    654    660    662     1  0.0000000  0.0000000  2
    655    654    660    662     1  180.0000771  0.3347200  3
    656    654    660   1014     1  180.0000771  0.0000000  2
    656    654    660    662     1  0.0000000  3.3472000  1
    656    654    660    662     1  0.0000000  0.0000000  2
    656    654    660    662     1  180.0000771  0.3347200  3
    657    661   1025   1026     1  180.0000771  10.4600000  2
    658    657    661    663     1  0.0000000  3.3472000  1
    658    657    661    663     1  0.0000000  0.0000000  2
    658    657    661    663     1  180.0000771  0.3347200  3
    658    657    661   1025     1  180.0000771  0.0000000  2
    659    657    661    663     1  0.0000000  3.3472000  1
    659    657    661    663     1  0.0000000  0.0000000  2
    659    657    661    663     1  180.0000771  0.3347200  3
    659    657    661   1025     1  180.0000771  0.0000000  2
    660   1014   1005   1006     1  0.0000000  0.0000000  2
    660   1014   1005   1007     1  0.0000000  0.0000000  2
    661   1025   1016   1017     1  0.0000000  0.0000000  2
    661   1025   1016   1018     1  0.0000000  0.0000000  2
    662    660   1014   1015     1  0.0000000  8.3680000  1
    662    660   1014   1015     1  180.0000771  10.4600000  2
    663    661   1025   1026     1  0.0000000  8.3680000  1
    663    661   1025   1026     1  180.0000771  10.4600000  2
    666    669    689    690     1  0.0000000  0.0000000  2
    666    672    673    674     1  0.0000000  1.2552000  3
    666    672    673    675     1  0.0000000  1.2552000  3
    666    672    676    677     1  0.0000000  1.2552000  3
    666    672    676    678     1  0.0000000  1.2552000  3
    667    666    669    689     1  0.0000000  0.6508444  3
    667    666    669    670     1  0.0000000  0.6508444  3
    667    666    669    671     1  0.0000000  0.6508444  3
    667    666    672    673     1  0.0000000  1.2552000  3
    667    666    672    676     1  0.0000000  1.2552000  3
    668    666    669    689     1  0.0000000  0.6508444  3
    668    666    669    670     1  0.0000000  0.6508444  3
    668    666    669    671     1  0.0000000  0.6508444  3
    668    666    672    673     1  0.0000000  1.2552000  3
    668    666    672    676     1  0.0000000  1.2552000  3
    670    669    666    672     1  0.0000000  0.6508444  3
    670    669    689    690     1  0.0000000  0.0000000  2
    671    669    666    672     1  0.0000000  0.6508444  3
    671    669    689    690     1  0.0000000  0.0000000  2
    672    673    682    683     1  0.0000000  0.6508444  3
    672    673    682    684     1  0.0000000  0.6508444  3
    672    676    679    680     1  0.0000000  0.6508444  3
    672    676    679    681     1  0.0000000  0.6508444  3
    673    672    676    677     1  0.0000000  1.2552000  3
    673    672    676    678     1  0.0000000  1.2552000  3
    674    673    672    676     1  0.0000000  1.2552000  3
    674    673    682    686     1  0.0000000  0.6508444  3
    674    673    682    683     1  0.0000000  0.6508444  3
    674    673    682    684     1  0.0000000  0.6508444  3
    675    673    672    676     1  0.0000000  1.2552000  3
    675    673    682    686     1  0.0000000  0.6508444  3
    675    673    682    683     1  0.0000000  0.6508444  3
    675    673    682    684     1  0.0000000  0.6508444  3
    677    676    679    685     1  0.0000000  0.6508444  3
    677    676    679    680     1  0.0000000  0.6508444  3
    677    676    679    681     1  0.0000000  0.6508444  3
    678    676    679    685     1  0.0000000  0.6508444  3
    678    676    679    680     1  0.0000000  0.6508444  3
    678    676    679    681     1  0.0000000  0.6508444  3
    679    685   1036   1037     1  180.0000771  10.4600000  2
    680    679    685   1036     1  180.0000771  0.0000000  2
    680    679    685    687     1  0.0000000  3.3472000  1
    680    679    685    687     1  0.0000000  0.0000000  2
    680    679    685    687     1  180.0000771  0.3347200  3
    681    679    685   1036     1  180.0000771  0.0000000  2
    681    679    685    687     1  0.0000000  3.3472000  1
    681    679    685    687     1  0.0000000  0.0000000  2
    681    679    685    687     1  180.0000771  0.3347200  3
    682    686   1047   1048     1  180.0000771  10.4600000  2
    683    682    686    688     1  0.0000000  3.3472000  1
    683    682    686    688     1  0.0000000  0.0000000  2
    683    682    686    688     1  180.0000771  0.3347200  3
    683    682    686   1047     1  180.0000771  0.0000000  2
    684    682    686    688     1  0.0000000  3.3472000  1
    684    682    686    688     1  0.0000000  0.0000000  2
    684    682    686    688     1  180.0000771  0.3347200  3
    684    682    686   1047     1  180.0000771  0.0000000  2
    685   1036   1027   1028     1  0.0000000  0.0000000  2
    685   1036   1027   1029     1  0.0000000  0.0000000  2
    686   1047   1038   1039     1  0.0000000  0.0000000  2
    686   1047   1038   1040     1  0.0000000  0.0000000  2
    687    685   1036   1037     1  0.0000000  8.3680000  1
    687    685   1036   1037     1  180.0000771  10.4600000  2
    688    686   1047   1048     1  0.0000000  8.3680000  1
    688    686   1047   1048     1  180.0000771  10.4600000  2
    691    694    714    715     1  0.0000000  0.0000000  2
    691    697    698    699     1  0.0000000  1.2552000  3
    691    697    698    700     1  0.0000000  1.2552000  3
    691    697    701    702     1  0.0000000  1.2552000  3
    691    697    701    703     1  0.0000000  1.2552000  3
    692    691    694    714     1  0.0000000  0.6508444  3
    692    691    694    695     1  0.0000000  0.6508444  3
    692    691    694    696     1  0.0000000  0.6508444  3
    692    691    697    698     1  0.0000000  1.2552000  3
    692    691    697    701     1  0.0000000  1.2552000  3
    693    691    694    714     1  0.0000000  0.6508444  3
    693    691    694    695     1  0.0000000  0.6508444  3
    693    691    694    696     1  0.0000000  0.6508444  3
    693    691    697    698     1  0.0000000  1.2552000  3
    693    691    697    701     1  0.0000000  1.2552000  3
    695    694    691    697     1  0.0000000  0.6508444  3
    695    694    714    715     1  0.0000000  0.0000000  2
    696    694    691    697     1  0.0000000  0.6508444  3
    696    694    714    715     1  0.0000000  0.0000000  2
    697    698    707    708     1  0.0000000  0.6508444  3
    697    698    707    709     1  0.0000000  0.6508444  3
    697    701    704    705     1  0.0000000  0.6508444  3
    697    701    704    706     1  0.0000000  0.6508444  3
    698    697    701    702     1  0.0000000  1.2552000  3
    698    697    701    703     1  0.0000000  1.2552000  3
    699    698    697    701     1  0.0000000  1.2552000  3
    699    698    707    711     1  0.0000000  0.6508444  3
    699    698    707    708     1  0.0000000  0.6508444  3
    699    698    707    709     1  0.0000000  0.6508444  3
    700    698    697    701     1  0.0000000  1.2552000  3
    700    698    707    711     1  0.0000000  0.6508444  3
    700    698    707    708     1  0.0000000  0.6508444  3
    700    698    707    709     1  0.0000000  0.6508444  3
    702    701    704    710     1  0.0000000  0.6508444  3
    702    701    704    705     1  0.0000000  0.6508444  3
    702    701    704    706     1  0.0000000  0.6508444  3
    703    701    704    710     1  0.0000000  0.6508444  3
    703    701    704    705     1  0.0000000  0.6508444  3
    703    701    704    706     1  0.0000000  0.6508444  3
    704    710   1058   1059     1  180.0000771  10.4600000  2
    705    704    710   1058     1  180.0000771  0.0000000  2
    705    704    710    712     1  0.0000000  3.3472000  1
    705    704    710    712     1  0.0000000  0.0000000  2
    705    704    710    712     1  180.0000771  0.3347200  3
    706    704    710   1058     1  180.0000771  0.0000000  2
    706    704    710    712     1  0.0000000  3.3472000  1
    706    704    710    712     1  0.0000000  0.0000000  2
    706    704    710    712     1  180.0000771  0.3347200  3
    707    711   1069   1070     1  180.0000771  10.4600000  2
    708    707    711    713     1  0.0000000  3.3472000  1
    708    707    711    713     1  0.0000000  0.0000000  2
    708    707    711    713     1  180.0000771  0.3347200  3
    708    707    711   1069     1  180.0000771  0.0000000  2
    709    707    711    713     1  0.0000000  3.3472000  1
    709    707    711    713     1  0.0000000  0.0000000  2
    709    707    711    713     1  180.0000771  0.3347200  3
    709    707    711   1069     1  180.0000771  0.0000000  2
    710   1058   1049   1050     1  0.0000000  0.0000000  2
    710   1058   1049   1051     1  0.0000000  0.0000000  2
    711   1069   1060   1061     1  0.0000000  0.0000000  2
    711   1069   1060   1062     1  0.0000000  0.0000000  2
    712    710   1058   1059     1  0.0000000  8.3680000  1
    712    710   1058   1059     1  180.0000771  10.4600000  2
    713    711   1069   1070     1  0.0000000  8.3680000  1
    713    711   1069   1070     1  180.0000771  10.4600000  2
    716    719    739    740     1  0.0000000  0.0000000  2
    716    722    723    724     1  0.0000000  1.2552000  3
    716    722    723    725     1  0.0000000  1.2552000  3
    716    722    726    727     1  0.0000000  1.2552000  3
    716    722    726    728     1  0.0000000  1.2552000  3
    717    716    719    739     1  0.0000000  0.6508444  3
    717    716    719    720     1  0.0000000  0.6508444  3
    717    716    719    721     1  0.0000000  0.6508444  3
    717    716    722    723     1  0.0000000  1.2552000  3
    717    716    722    726     1  0.0000000  1.2552000  3
    718    716    719    739     1  0.0000000  0.6508444  3
    718    716    719    720     1  0.0000000  0.6508444  3
    718    716    719    721     1  0.0000000  0.6508444  3
    718    716    722    723     1  0.0000000  1.2552000  3
    718    716    722    726     1  0.0000000  1.2552000  3
    720    719    716    722     1  0.0000000  0.6508444  3
    720    719    739    740     1  0.0000000  0.0000000  2
    721    719    716    722     1  0.0000000  0.6508444  3
    721    719    739    740     1  0.0000000  0.0000000  2
    722    723    732    733     1  0.0000000  0.6508444  3
    722    723    732    734     1  0.0000000  0.6508444  3
    722    726    729    730     1  0.0000000  0.6508444  3
    722    726    729    731     1  0.0000000  0.6508444  3
    723    722    726    727     1  0.0000000  1.2552000  3
    723    722    726    728     1  0.0000000  1.2552000  3
    724    723    722    726     1  0.0000000  1.2552000  3
    724    723    732    736     1  0.0000000  0.6508444  3
    724    723    732    733     1  0.0000000  0.6508444  3
    724    723    732    734     1  0.0000000  0.6508444  3
    725    723    722    726     1  0.0000000  1.2552000  3
    725    723    732    736     1  0.0000000  0.6508444  3
    725    723    732    733     1  0.0000000  0.6508444  3
    725    723    732    734     1  0.0000000  0.6508444  3
    727    726    729    735     1  0.0000000  0.6508444  3
    727    726    729    730     1  0.0000000  0.6508444  3
    727    726    729    731     1  0.0000000  0.6508444  3
    728    726    729    735     1  0.0000000  0.6508444  3
    728    726    729    730     1  0.0000000  0.6508444  3
    728    726    729    731     1  0.0000000  0.6508444  3
    729    735   1080   1081     1  180.0000771  10.4600000  2
    730    729    735   1080     1  180.0000771  0.0000000  2
    730    729    735    737     1  0.0000000  3.3472000  1
    730    729    735    737     1  0.0000000  0.0000000  2
    730    729    735    737     1  180.0000771  0.3347200  3
    731    729    735   1080     1  180.0000771  0.0000000  2
    731    729    735    737     1  0.0000000  3.3472000  1
    731    729    735    737     1  0.0000000  0.0000000  2
    731    729    735    737     1  180.0000771  0.3347200  3
    732    736   1091   1092     1  180.0000771  10.4600000  2
    733    732    736   1091     1  180.0000771  0.0000000  2
    733    732    736    738     1  0.0000000  3.3472000  1
    733    732    736    738     1  0.0000000  0.0000000  2
    733    732    736    738     1  180.0000771  0.3347200  3
    734    732    736   1091     1  180.0000771  0.0000000  2
    734    732    736    738     1  0.0000000  3.3472000  1
    734    732    736    738     1  0.0000000  0.0000000  2
    734    732    736    738     1  180.0000771  0.3347200  3
    735   1080   1071   1072     1  0.0000000  0.0000000  2
    735   1080   1071   1073     1  0.0000000  0.0000000  2
    736   1091   1082   1083     1  0.0000000  0.0000000  2
    736   1091   1082   1084     1  0.0000000  0.0000000  2
    737    735   1080   1081     1  0.0000000  8.3680000  1
    737    735   1080   1081     1  180.0000771  10.4600000  2
    738    736   1091   1092     1  0.0000000  8.3680000  1
    738    736   1091   1092     1  180.0000771  10.4600000  2
    741    744    747    748     1  0.0000000  1.2552000  3
    741    744    747    749     1  0.0000000  1.2552000  3
    742    741    744    747     1  0.0000000  0.6508444  3
    742    741    744    745     1  0.0000000  0.6508444  3
    742    741    744    746     1  0.0000000  0.6508444  3
    742    741    750    751     1  0.0000000  0.0000000  2
    743    741    744    747     1  0.0000000  0.6508444  3
    743    741    744    745     1  0.0000000  0.6508444  3
    743    741    744    746     1  0.0000000  0.6508444  3
    743    741    750    751     1  0.0000000  0.0000000  2
    744    741    750    751     1  0.0000000  0.0000000  2
    745    744    741    750     1  0.0000000  0.6508444  3
    745    744    747    748     1  0.0000000  1.2552000  3
    745    744    747    749     1  0.0000000  1.2552000  3
    746    744    741    750     1  0.0000000  0.6508444  3
    746    744    747    748     1  0.0000000  1.2552000  3
    746    744    747    749     1  0.0000000  1.2552000  3
    752    755    758    759     1  0.0000000  1.2552000  3
    752    755    758    760     1  0.0000000  1.2552000  3
    753    752    755    758     1  0.0000000  0.6508444  3
    753    752    755    756     1  0.0000000  0.6508444  3
    753    752    755    757     1  0.0000000  0.6508444  3
    753    752    761    762     1  0.0000000  0.0000000  2
    754    752    755    758     1  0.0000000  0.6508444  3
    754    752    755    756     1  0.0000000  0.6508444  3
    754    752    755    757     1  0.0000000  0.6508444  3
    754    752    761    762     1  0.0000000  0.0000000  2
    755    752    761    762     1  0.0000000  0.0000000  2
    756    755    758    759     1  0.0000000  1.2552000  3
    756    755    758    760     1  0.0000000  1.2552000  3
    756    755    752    761     1  0.0000000  0.6508444  3
    757    755    758    759     1  0.0000000  1.2552000  3
    757    755    758    760     1  0.0000000  1.2552000  3
    757    755    752    761     1  0.0000000  0.6508444  3
    763    766    769    770     1  0.0000000  1.2552000  3
    763    766    769    771     1  0.0000000  1.2552000  3
    764    763    766    769     1  0.0000000  0.6508444  3
    764    763    766    767     1  0.0000000  0.6508444  3
    764    763    766    768     1  0.0000000  0.6508444  3
    764    763    772    773     1  0.0000000  0.0000000  2
    765    763    766    769     1  0.0000000  0.6508444  3
    765    763    766    767     1  0.0000000  0.6508444  3
    765    763    766    768     1  0.0000000  0.6508444  3
    765    763    772    773     1  0.0000000  0.0000000  2
    766    763    772    773     1  0.0000000  0.0000000  2
    767    766    763    772     1  0.0000000  0.6508444  3
    767    766    769    770     1  0.0000000  1.2552000  3
    767    766    769    771     1  0.0000000  1.2552000  3
    768    766    763    772     1  0.0000000  0.6508444  3
    768    766    769    770     1  0.0000000  1.2552000  3
    768    766    769    771     1  0.0000000  1.2552000  3
    774    777    780    781     1  0.0000000  1.2552000  3
    774    777    780    782     1  0.0000000  1.2552000  3
    775    774    777    780     1  0.0000000  0.6508444  3
    775    774    777    778     1  0.0000000  0.6508444  3
    775    774    777    779     1  0.0000000  0.6508444  3
    775    774    783    784     1  0.0000000  0.0000000  2
    776    774    777    780     1  0.0000000  0.6508444  3
    776    774    777    778     1  0.0000000  0.6508444  3
    776    774    777    779     1  0.0000000  0.6508444  3
    776    774    783    784     1  0.0000000  0.0000000  2
    777    774    783    784     1  0.0000000  0.0000000  2
    778    777    780    781     1  0.0000000  1.2552000  3
    778    777    780    782     1  0.0000000  1.2552000  3
    778    777    774    783     1  0.0000000  0.6508444  3
    779    777    780    781     1  0.0000000  1.2552000  3
    779    777    780    782     1  0.0000000  1.2552000  3
    779    777    774    783     1  0.0000000  0.6508444  3
    785    788    791    792     1  0.0000000  1.2552000  3
    785    788    791    793     1  0.0000000  1.2552000  3
    786    785    788    791     1  0.0000000  0.6508444  3
    786    785    788    789     1  0.0000000  0.6508444  3
    786    785    788    790     1  0.0000000  0.6508444  3
    786    785    794    795     1  0.0000000  0.0000000  2
    787    785    788    791     1  0.0000000  0.6508444  3
    787    785    788    789     1  0.0000000  0.6508444  3
    787    785    788    790     1  0.0000000  0.6508444  3
    787    785    794    795     1  0.0000000  0.0000000  2
    788    785    794    795     1  0.0000000  0.0000000  2
    789    788    785    794     1  0.0000000  0.6508444  3
    789    788    791    792     1  0.0000000  1.2552000  3
    789    788    791    793     1  0.0000000  1.2552000  3
    790    788    785    794     1  0.0000000  0.6508444  3
    790    788    791    792     1  0.0000000  1.2552000  3
    790    788    791    793     1  0.0000000  1.2552000  3
    796    799    802    803     1  0.0000000  1.2552000  3
    796    799    802    804     1  0.0000000  1.2552000  3
    797    796    799    802     1  0.0000000  0.6508444  3
    797    796    799    800     1  0.0000000  0.6508444  3
    797    796    799    801     1  0.0000000  0.6508444  3
    797    796    805    806     1  0.0000000  0.0000000  2
    798    796    799    802     1  0.0000000  0.6508444  3
    798    796    799    800     1  0.0000000  0.6508444  3
    798    796    799    801     1  0.0000000  0.6508444  3
    798    796    805    806     1  0.0000000  0.0000000  2
    799    796    805    806     1  0.0000000  0.0000000  2
    800    799    802    803     1  0.0000000  1.2552000  3
    800    799    802    804     1  0.0000000  1.2552000  3
    800    799    796    805     1  0.0000000  0.6508444  3
    801    799    802    803     1  0.0000000  1.2552000  3
    801    799    802    804     1  0.0000000  1.2552000  3
    801    799    796    805     1  0.0000000  0.6508444  3
    807    810    813    814     1  0.0000000  1.2552000  3
    807    810    813    815     1  0.0000000  1.2552000  3
    808    807    810    813     1  0.0000000  0.6508444  3
    808    807    810    811     1  0.0000000  0.6508444  3
    808    807    810    812     1  0.0000000  0.6508444  3
    808    807    816    817     1  0.0000000  0.0000000  2
    809    807    810    813     1  0.0000000  0.6508444  3
    809    807    810    811     1  0.0000000  0.6508444  3
    809    807    810    812     1  0.0000000  0.6508444  3
    809    807    816    817     1  0.0000000  0.0000000  2
    810    807    816    817     1  0.0000000  0.0000000  2
    811    810    807    816     1  0.0000000  0.6508444  3
    811    810    813    814     1  0.0000000  1.2552000  3
    811    810    813    815     1  0.0000000  1.2552000  3
    812    810    807    816     1  0.0000000  0.6508444  3
    812    810    813    814     1  0.0000000  1.2552000  3
    812    810    813    815     1  0.0000000  1.2552000  3
    818    821    824    825     1  0.0000000  1.2552000  3
    818    821    824    826     1  0.0000000  1.2552000  3
    819    818    821    824     1  0.0000000  0.6508444  3
    819    818    821    822     1  0.0000000  0.6508444  3
    819    818    821    823     1  0.0000000  0.6508444  3
    819    818    827    828     1  0.0000000  0.0000000  2
    820    818    821    824     1  0.0000000  0.6508444  3
    820    818    821    822     1  0.0000000  0.6508444  3
    820    818    821    823     1  0.0000000  0.6508444  3
    820    818    827    828     1  0.0000000  0.0000000  2
    821    818    827    828     1  0.0000000  0.0000000  2
    822    821    824    825     1  0.0000000  1.2552000  3
    822    821    824    826     1  0.0000000  1.2552000  3
    822    821    818    827     1  0.0000000  0.6508444  3
    823    821    824    825     1  0.0000000  1.2552000  3
    823    821    824    826     1  0.0000000  1.2552000  3
    823    821    818    827     1  0.0000000  0.6508444  3
    829    832    835    836     1  0.0000000  1.2552000  3
    829    832    835    837     1  0.0000000  1.2552000  3
    830    829    832    835     1  0.0000000  0.6508444  3
    830    829    832    833     1  0.0000000  0.6508444  3
    830    829    832    834     1  0.0000000  0.6508444  3
    830    829    838    839     1  0.0000000  0.0000000  2
    831    829    832    835     1  0.0000000  0.6508444  3
    831    829    832    833     1  0.0000000  0.6508444  3
    831    829    832    834     1  0.0000000  0.6508444  3
    831    829    838    839     1  0.0000000  0.0000000  2
    832    829    838    839     1  0.0000000  0.0000000  2
    833    832    829    838     1  0.0000000  0.6508444  3
    833    832    835    836     1  0.0000000  1.2552000  3
    833    832    835    837     1  0.0000000  1.2552000  3
    834    832    829    838     1  0.0000000  0.6508444  3
    834    832    835    836     1  0.0000000  1.2552000  3
    834    832    835    837     1  0.0000000  1.2552000  3
    840    843    846    847     1  0.0000000  1.2552000  3
    840    843    846    848     1  0.0000000  1.2552000  3
    841    840    843    846     1  0.0000000  0.6508444  3
    841    840    843    844     1  0.0000000  0.6508444  3
    841    840    843    845     1  0.0000000  0.6508444  3
    841    840    849    850     1  0.0000000  0.0000000  2
    842    840    843    846     1  0.0000000  0.6508444  3
    842    840    843    844     1  0.0000000  0.6508444  3
    842    840    843    845     1  0.0000000  0.6508444  3
    842    840    849    850     1  0.0000000  0.0000000  2
    843    840    849    850     1  0.0000000  0.0000000  2
    844    843    846    847     1  0.0000000  1.2552000  3
    844    843    846    848     1  0.0000000  1.2552000  3
    844    843    840    849     1  0.0000000  0.6508444  3
    845    843    846    847     1  0.0000000  1.2552000  3
    845    843    846    848     1  0.0000000  1.2552000  3
    845    843    840    849     1  0.0000000  0.6508444  3
    851    854    857    858     1  0.0000000  1.2552000  3
    851    854    857    859     1  0.0000000  1.2552000  3
    852    851    854    857     1  0.0000000  0.6508444  3
    852    851    854    855     1  0.0000000  0.6508444  3
    852    851    854    856     1  0.0000000  0.6508444  3
    852    851    860    861     1  0.0000000  0.0000000  2
    853    851    854    857     1  0.0000000  0.6508444  3
    853    851    854    855     1  0.0000000  0.6508444  3
    853    851    854    856     1  0.0000000  0.6508444  3
    853    851    860    861     1  0.0000000  0.0000000  2
    854    851    860    861     1  0.0000000  0.0000000  2
    855    854    851    860     1  0.0000000  0.6508444  3
    855    854    857    858     1  0.0000000  1.2552000  3
    855    854    857    859     1  0.0000000  1.2552000  3
    856    854    851    860     1  0.0000000  0.6508444  3
    856    854    857    858     1  0.0000000  1.2552000  3
    856    854    857    859     1  0.0000000  1.2552000  3
    862    865    868    869     1  0.0000000  1.2552000  3
    862    865    868    870     1  0.0000000  1.2552000  3
    863    862    865    868     1  0.0000000  0.6508444  3
    863    862    865    866     1  0.0000000  0.6508444  3
    863    862    865    867     1  0.0000000  0.6508444  3
    863    862    871    872     1  0.0000000  0.0000000  2
    864    862    865    868     1  0.0000000  0.6508444  3
    864    862    865    866     1  0.0000000  0.6508444  3
    864    862    865    867     1  0.0000000  0.6508444  3
    864    862    871    872     1  0.0000000  0.0000000  2
    865    862    871    872     1  0.0000000  0.0000000  2
    866    865    868    869     1  0.0000000  1.2552000  3
    866    865    868    870     1  0.0000000  1.2552000  3
    866    865    862    871     1  0.0000000  0.6508444  3
    867    865    868    869     1  0.0000000  1.2552000  3
    867    865    868    870     1  0.0000000  1.2552000  3
    867    865    862    871     1  0.0000000  0.6508444  3
    873    876    879    880     1  0.0000000  1.2552000  3
    873    876    879    881     1  0.0000000  1.2552000  3
    874    873    876    879     1  0.0000000  0.6508444  3
    874    873    876    877     1  0.0000000  0.6508444  3
    874    873    876    878     1  0.0000000  0.6508444  3
    874    873    882    883     1  0.0000000  0.0000000  2
    875    873    876    879     1  0.0000000  0.6508444  3
    875    873    876    877     1  0.0000000  0.6508444  3
    875    873    876    878     1  0.0000000  0.6508444  3
    875    873    882    883     1  0.0000000  0.0000000  2
    876    873    882    883     1  0.0000000  0.0000000  2
    877    876    873    882     1  0.0000000  0.6508444  3
    877    876    879    880     1  0.0000000  1.2552000  3
    877    876    879    881     1  0.0000000  1.2552000  3
    878    876    873    882     1  0.0000000  0.6508444  3
    878    876    879    880     1  0.0000000  1.2552000  3
    878    876    879    881     1  0.0000000  1.2552000  3
    884    887    890    891     1  0.0000000  1.2552000  3
    884    887    890    892     1  0.0000000  1.2552000  3
    885    884    887    890     1  0.0000000  0.6508444  3
    885    884    887    888     1  0.0000000  0.6508444  3
    885    884    887    889     1  0.0000000  0.6508444  3
    885    884    893    894     1  0.0000000  0.0000000  2
    886    884    887    890     1  0.0000000  0.6508444  3
    886    884    887    888     1  0.0000000  0.6508444  3
    886    884    887    889     1  0.0000000  0.6508444  3
    886    884    893    894     1  0.0000000  0.0000000  2
    887    884    893    894     1  0.0000000  0.0000000  2
    888    887    890    891     1  0.0000000  1.2552000  3
    888    887    890    892     1  0.0000000  1.2552000  3
    888    887    884    893     1  0.0000000  0.6508444  3
    889    887    890    891     1  0.0000000  1.2552000  3
    889    887    890    892     1  0.0000000  1.2552000  3
    889    887    884    893     1  0.0000000  0.6508444  3
    895    898    901    902     1  0.0000000  1.2552000  3
    895    898    901    903     1  0.0000000  1.2552000  3
    896    895    898    901     1  0.0000000  0.6508444  3
    896    895    898    899     1  0.0000000  0.6508444  3
    896    895    898    900     1  0.0000000  0.6508444  3
    896    895    904    905     1  0.0000000  0.0000000  2
    897    895    898    901     1  0.0000000  0.6508444  3
    897    895    898    899     1  0.0000000  0.6508444  3
    897    895    898    900     1  0.0000000  0.6508444  3
    897    895    904    905     1  0.0000000  0.0000000  2
    898    895    904    905     1  0.0000000  0.0000000  2
    899    898    895    904     1  0.0000000  0.6508444  3
    899    898    901    902     1  0.0000000  1.2552000  3
    899    898    901    903     1  0.0000000  1.2552000  3
    900    898    895    904     1  0.0000000  0.6508444  3
    900    898    901    902     1  0.0000000  1.2552000  3
    900    898    901    903     1  0.0000000  1.2552000  3
    906    909    912    913     1  0.0000000  1.2552000  3
    906    909    912    914     1  0.0000000  1.2552000  3
    907    906    909    912     1  0.0000000  0.6508444  3
    907    906    909    910     1  0.0000000  0.6508444  3
    907    906    909    911     1  0.0000000  0.6508444  3
    907    906    915    916     1  0.0000000  0.0000000  2
    908    906    909    912     1  0.0000000  0.6508444  3
    908    906    909    910     1  0.0000000  0.6508444  3
    908    906    909    911     1  0.0000000  0.6508444  3
    908    906    915    916     1  0.0000000  0.0000000  2
    909    906    915    916     1  0.0000000  0.0000000  2
    910    909    912    913     1  0.0000000  1.2552000  3
    910    909    912    914     1  0.0000000  1.2552000  3
    910    909    906    915     1  0.0000000  0.6508444  3
    911    909    912    913     1  0.0000000  1.2552000  3
    911    909    912    914     1  0.0000000  1.2552000  3
    911    909    906    915     1  0.0000000  0.6508444  3
    917    920    923    924     1  0.0000000  1.2552000  3
    917    920    923    925     1  0.0000000  1.2552000  3
    918    917    920    923     1  0.0000000  0.6508444  3
    918    917    920    921     1  0.0000000  0.6508444  3
    918    917    920    922     1  0.0000000  0.6508444  3
    918    917    926    927     1  0.0000000  0.0000000  2
    919    917    920    923     1  0.0000000  0.6508444  3
    919    917    920    921     1  0.0000000  0.6508444  3
    919    917    920    922     1  0.0000000  0.6508444  3
    919    917    926    927     1  0.0000000  0.0000000  2
    920    917    926    927     1  0.0000000  0.0000000  2
    921    920    917    926     1  0.0000000  0.6508444  3
    921    920    923    924     1  0.0000000  1.2552000  3
    921    920    923    925     1  0.0000000  1.2552000  3
    922    920    917    926     1  0.0000000  0.6508444  3
    922    920    923    924     1  0.0000000  1.2552000  3
    922    920    923    925     1  0.0000000  1.2552000  3
    928    931    934    935     1  0.0000000  1.2552000  3
    928    931    934    936     1  0.0000000  1.2552000  3
    929    928    931    934     1  0.0000000  0.6508444  3
    929    928    931    932     1  0.0000000  0.6508444  3
    929    928    931    933     1  0.0000000  0.6508444  3
    929    928    937    938     1  0.0000000  0.0000000  2
    930    928    931    934     1  0.0000000  0.6508444  3
    930    928    931    932     1  0.0000000  0.6508444  3
    930    928    931    933     1  0.0000000  0.6508444  3
    930    928    937    938     1  0.0000000  0.0000000  2
    931    928    937    938     1  0.0000000  0.0000000  2
    932    931    934    935     1  0.0000000  1.2552000  3
    932    931    934    936     1  0.0000000  1.2552000  3
    932    931    928    937     1  0.0000000  0.6508444  3
    933    931    934    935     1  0.0000000  1.2552000  3
    933    931    934    936     1  0.0000000  1.2552000  3
    933    931    928    937     1  0.0000000  0.6508444  3
    939    942    945    946     1  0.0000000  1.2552000  3
    939    942    945    947     1  0.0000000  1.2552000  3
    940    939    942    945     1  0.0000000  0.6508444  3
    940    939    942    943     1  0.0000000  0.6508444  3
    940    939    942    944     1  0.0000000  0.6508444  3
    940    939    948    949     1  0.0000000  0.0000000  2
    941    939    942    945     1  0.0000000  0.6508444  3
    941    939    942    943     1  0.0000000  0.6508444  3
    941    939    942    944     1  0.0000000  0.6508444  3
    941    939    948    949     1  0.0000000  0.0000000  2
    942    939    948    949     1  0.0000000  0.0000000  2
    943    942    939    948     1  0.0000000  0.6508444  3
    943    942    945    946     1  0.0000000  1.2552000  3
    943    942    945    947     1  0.0000000  1.2552000  3
    944    942    939    948     1  0.0000000  0.6508444  3
    944    942    945    946     1  0.0000000  1.2552000  3
    944    942    945    947     1  0.0000000  1.2552000  3
    950    953    956    957     1  0.0000000  1.2552000  3
    950    953    956    958     1  0.0000000  1.2552000  3
    951    950    953    956     1  0.0000000  0.6508444  3
    951    950    953    954     1  0.0000000  0.6508444  3
    951    950    953    955     1  0.0000000  0.6508444  3
    951    950    959    960     1  0.0000000  0.0000000  2
    952    950    953    956     1  0.0000000  0.6508444  3
    952    950    953    954     1  0.0000000  0.6508444  3
    952    950    953    955     1  0.0000000  0.6508444  3
    952    950    959    960     1  0.0000000  0.0000000  2
    953    950    959    960     1  0.0000000  0.0000000  2
    954    953    956    957     1  0.0000000  1.2552000  3
    954    953    956    958     1  0.0000000  1.2552000  3
    954    953    950    959     1  0.0000000  0.6508444  3
    955    953    956    957     1  0.0000000  1.2552000  3
    955    953    956    958     1  0.0000000  1.2552000  3
    955    953    950    959     1  0.0000000  0.6508444  3
    961    964    967    968     1  0.0000000  1.2552000  3
    961    964    967    969     1  0.0000000  1.2552000  3
    962    961    964    967     1  0.0000000  0.6508444  3
    962    961    964    965     1  0.0000000  0.6508444  3
    962    961    964    966     1  0.0000000  0.6508444  3
    962    961    970    971     1  0.0000000  0.0000000  2
    963    961    964    967     1  0.0000000  0.6508444  3
    963    961    964    965     1  0.0000000  0.6508444  3
    963    961    964    966     1  0.0000000  0.6508444  3
    963    961    970    971     1  0.0000000  0.0000000  2
    964    961    970    971     1  0.0000000  0.0000000  2
    965    964    961    970     1  0.0000000  0.6508444  3
    965    964    967    968     1  0.0000000  1.2552000  3
    965    964    967    969     1  0.0000000  1.2552000  3
    966    964    961    970     1  0.0000000  0.6508444  3
    966    964    967    968     1  0.0000000  1.2552000  3
    966    964    967    969     1  0.0000000  1.2552000  3
    972    975    978    979     1  0.0000000  1.2552000  3
    972    975    978    980     1  0.0000000  1.2552000  3
    973    972    975    978     1  0.0000000  0.6508444  3
    973    972    975    976     1  0.0000000  0.6508444  3
    973    972    975    977     1  0.0000000  0.6508444  3
    973    972    981    982     1  0.0000000  0.0000000  2
    974    972    975    978     1  0.0000000  0.6508444  3
    974    972    975    976     1  0.0000000  0.6508444  3
    974    972    975    977     1  0.0000000  0.6508444  3
    974    972    981    982     1  0.0000000  0.0000000  2
    975    972    981    982     1  0.0000000  0.0000000  2
    976    975    978    979     1  0.0000000  1.2552000  3
    976    975    978    980     1  0.0000000  1.2552000  3
    976    975    972    981     1  0.0000000  0.6508444  3
    977    975    978    979     1  0.0000000  1.2552000  3
    977    975    978    980     1  0.0000000  1.2552000  3
    977    975    972    981     1  0.0000000  0.6508444  3
    983    986    989    990     1  0.0000000  1.2552000  3
    983    986    989    991     1  0.0000000  1.2552000  3
    984    983    986    989     1  0.0000000  0.6508444  3
    984    983    986    987     1  0.0000000  0.6508444  3
    984    983    986    988     1  0.0000000  0.6508444  3
    984    983    992    993     1  0.0000000  0.0000000  2
    985    983    986    989     1  0.0000000  0.6508444  3
    985    983    986    987     1  0.0000000  0.6508444  3
    985    983    986    988     1  0.0000000  0.6508444  3
    985    983    992    993     1  0.0000000  0.0000000  2
    986    983    992    993     1  0.0000000  0.0000000  2
    987    986    983    992     1  0.0000000  0.6508444  3
    987    986    989    990     1  0.0000000  1.2552000  3
    987    986    989    991     1  0.0000000  1.2552000  3
    988    986    983    992     1  0.0000000  0.6508444  3
    988    986    989    990     1  0.0000000  1.2552000  3
    988    986    989    991     1  0.0000000  1.2552000  3
    994    997   1000   1001     1  0.0000000  1.2552000  3
    994    997   1000   1002     1  0.0000000  1.2552000  3
    995    994    997   1000     1  0.0000000  0.6508444  3
    995    994    997    998     1  0.0000000  0.6508444  3
    995    994    997    999     1  0.0000000  0.6508444  3
    995    994   1003   1004     1  0.0000000  0.0000000  2
    996    994    997   1000     1  0.0000000  0.6508444  3
    996    994    997    998     1  0.0000000  0.6508444  3
    996    994    997    999     1  0.0000000  0.6508444  3
    996    994   1003   1004     1  0.0000000  0.0000000  2
    997    994   1003   1004     1  0.0000000  0.0000000  2
    998    997   1000   1001     1  0.0000000  1.2552000  3
    998    997   1000   1002     1  0.0000000  1.2552000  3
    998    997    994   1003     1  0.0000000  0.6508444  3
    999    997   1000   1001     1  0.0000000  1.2552000  3
    999    997   1000   1002     1  0.0000000  1.2552000  3
    999    997    994   1003     1  0.0000000  0.6508444  3
   1005   1008   1011   1012     1  0.0000000  1.2552000  3
   1005   1008   1011   1013     1  0.0000000  1.2552000  3
   1006   1005   1008   1011     1  0.0000000  0.6508444  3
   1006   1005   1008   1009     1  0.0000000  0.6508444  3
   1006   1005   1008   1010     1  0.0000000  0.6508444  3
   1006   1005   1014   1015     1  0.0000000  0.0000000  2
   1007   1005   1008   1011     1  0.0000000  0.6508444  3
   1007   1005   1008   1009     1  0.0000000  0.6508444  3
   1007   1005   1008   1010     1  0.0000000  0.6508444  3
   1007   1005   1014   1015     1  0.0000000  0.0000000  2
   1008   1005   1014   1015     1  0.0000000  0.0000000  2
   1009   1008   1005   1014     1  0.0000000  0.6508444  3
   1009   1008   1011   1012     1  0.0000000  1.2552000  3
   1009   1008   1011   1013     1  0.0000000  1.2552000  3
   1010   1008   1005   1014     1  0.0000000  0.6508444  3
   1010   1008   1011   1012     1  0.0000000  1.2552000  3
   1010   1008   1011   1013     1  0.0000000  1.2552000  3
   1016   1019   1022   1023     1  0.0000000  1.2552000  3
   1016   1019   1022   1024     1  0.0000000  1.2552000  3
   1017   1016   1019   1022     1  0.0000000  0.6508444  3
   1017   1016   1019   1020     1  0.0000000  0.6508444  3
   1017   1016   1019   1021     1  0.0000000  0.6508444  3
   1017   1016   1025   1026     1  0.0000000  0.0000000  2
   1018   1016   1019   1022     1  0.0000000  0.6508444  3
   1018   1016   1019   1020     1  0.0000000  0.6508444  3
   1018   1016   1019   1021     1  0.0000000  0.6508444  3
   1018   1016   1025   1026     1  0.0000000  0.0000000  2
   1019   1016   1025   1026     1  0.0000000  0.0000000  2
   1020   1019   1022   1023     1  0.0000000  1.2552000  3
   1020   1019   1022   1024     1  0.0000000  1.2552000  3
   1020   1019   1016   1025     1  0.0000000  0.6508444  3
   1021   1019   1022   1023     1  0.0000000  1.2552000  3
   1021   1019   1022   1024     1  0.0000000  1.2552000  3
   1021   1019   1016   1025     1  0.0000000  0.6508444  3
   1027   1030   1033   1034     1  0.0000000  1.2552000  3
   1027   1030   1033   1035     1  0.0000000  1.2552000  3
   1028   1027   1030   1033     1  0.0000000  0.6508444  3
   1028   1027   1030   1031     1  0.0000000  0.6508444  3
   1028   1027   1030   1032     1  0.0000000  0.6508444  3
   1028   1027   1036   1037     1  0.0000000  0.0000000  2
   1029   1027   1030   1033     1  0.0000000  0.6508444  3
   1029   1027   1030   1031     1  0.0000000  0.6508444  3
   1029   1027   1030   1032     1  0.0000000  0.6508444  3
   1029   1027   1036   1037     1  0.0000000  0.0000000  2
   1030   1027   1036   1037     1  0.0000000  0.0000000  2
   1031   1030   1027   1036     1  0.0000000  0.6508444  3
   1031   1030   1033   1034     1  0.0000000  1.2552000  3
   1031   1030   1033   1035     1  0.0000000  1.2552000  3
   1032   1030   1027   1036     1  0.0000000  0.6508444  3
   1032   1030   1033   1034     1  0.0000000  1.2552000  3
   1032   1030   1033   1035     1  0.0000000  1.2552000  3
   1038   1041   1044   1045     1  0.0000000  1.2552000  3
   1038   1041   1044   1046     1  0.0000000  1.2552000  3
   1039   1038   1041   1044     1  0.0000000  0.6508444  3
   1039   1038   1041   1042     1  0.0000000  0.6508444  3
   1039   1038   1041   1043     1  0.0000000  0.6508444  3
   1039   1038   1047   1048     1  0.0000000  0.0000000  2
   1040   1038   1041   1044     1  0.0000000  0.6508444  3
   1040   1038   1041   1042     1  0.0000000  0.6508444  3
   1040   1038   1041   1043     1  0.0000000  0.6508444  3
   1040   1038   1047   1048     1  0.0000000  0.0000000  2
   1041   1038   1047   1048     1  0.0000000  0.0000000  2
   1042   1041   1044   1045     1  0.0000000  1.2552000  3
   1042   1041   1044   1046     1  0.0000000  1.2552000  3
   1042   1041   1038   1047     1  0.0000000  0.6508444  3
   1043   1041   1044   1045     1  0.0000000  1.2552000  3
   1043   1041   1044   1046     1  0.0000000  1.2552000  3
   1043   1041   1038   1047     1  0.0000000  0.6508444  3
   1049   1052   1055   1056     1  0.0000000  1.2552000  3
   1049   1052   1055   1057     1  0.0000000  1.2552000  3
   1050   1049   1052   1055     1  0.0000000  0.6508444  3
   1050   1049   1052   1053     1  0.0000000  0.6508444  3
   1050   1049   1052   1054     1  0.0000000  0.6508444  3
   1050   1049   1058   1059     1  0.0000000  0.0000000  2
   1051   1049   1052   1055     1  0.0000000  0.6508444  3
   1051   1049   1052   1053     1  0.0000000  0.6508444  3
   1051   1049   1052   1054     1  0.0000000  0.6508444  3
   1051   1049   1058   1059     1  0.0000000  0.0000000  2
   1052   1049   1058   1059     1  0.0000000  0.0000000  2
   1053   1052   1049   1058     1  0.0000000  0.6508444  3
   1053   1052   1055   1056     1  0.0000000  1.2552000  3
   1053   1052   1055   1057     1  0.0000000  1.2552000  3
   1054   1052   1049   1058     1  0.0000000  0.6508444  3
   1054   1052   1055   1056     1  0.0000000  1.2552000  3
   1054   1052   1055   1057     1  0.0000000  1.2552000  3
   1060   1063   1066   1067     1  0.0000000  1.2552000  3
   1060   1063   1066   1068     1  0.0000000  1.2552000  3
   1061   1060   1063   1066     1  0.0000000  0.6508444  3
   1061   1060   1063   1064     1  0.0000000  0.6508444  3
   1061   1060   1063   1065     1  0.0000000  0.6508444  3
   1061   1060   1069   1070     1  0.0000000  0.0000000  2
   1062   1060   1063   1066     1  0.0000000  0.6508444  3
   1062   1060   1063   1064     1  0.0000000  0.6508444  3
   1062   1060   1063   1065     1  0.0000000  0.6508444  3
   1062   1060   1069   1070     1  0.0000000  0.0000000  2
   1063   1060   1069   1070     1  0.0000000  0.0000000  2
   1064   1063   1066   1067     1  0.0000000  1.2552000  3
   1064   1063   1066   1068     1  0.0000000  1.2552000  3
   1064   1063   1060   1069     1  0.0000000  0.6508444  3
   1065   1063   1066   1067     1  0.0000000  1.2552000  3
   1065   1063   1066   1068     1  0.0000000  1.2552000  3
   1065   1063   1060   1069     1  0.0000000  0.6508444  3
   1071   1074   1077   1078     1  0.0000000  1.2552000  3
   1071   1074   1077   1079     1  0.0000000  1.2552000  3
   1072   1071   1074   1077     1  0.0000000  0.6508444  3
   1072   1071   1074   1075     1  0.0000000  0.6508444  3
   1072   1071   1074   1076     1  0.0000000  0.6508444  3
   1072   1071   1080   1081     1  0.0000000  0.0000000  2
   1073   1071   1074   1077     1  0.0000000  0.6508444  3
   1073   1071   1074   1075     1  0.0000000  0.6508444  3
   1073   1071   1074   1076     1  0.0000000  0.6508444  3
   1073   1071   1080   1081     1  0.0000000  0.0000000  2
   1074   1071   1080   1081     1  0.0000000  0.0000000  2
   1075   1074   1071   1080     1  0.0000000  0.6508444  3
   1075   1074   1077   1078     1  0.0000000  1.2552000  3
   1075   1074   1077   1079     1  0.0000000  1.2552000  3
   1076   1074   1071   1080     1  0.0000000  0.6508444  3
   1076   1074   1077   1078     1  0.0000000  1.2552000  3
   1076   1074   1077   1079     1  0.0000000  1.2552000  3
   1082   1085   1088   1089     1  0.0000000  1.2552000  3
   1082   1085   1088   1090     1  0.0000000  1.2552000  3
   1083   1082   1085   1088     1  0.0000000  0.6508444  3
   1083   1082   1085   1086     1  0.0000000  0.6508444  3
   1083   1082   1085   1087     1  0.0000000  0.6508444  3
   1083   1082   1091   1092     1  0.0000000  0.0000000  2
   1084   1082   1085   1088     1  0.0000000  0.6508444  3
   1084   1082   1085   1086     1  0.0000000  0.6508444  3
   1084   1082   1085   1087     1  0.0000000  0.6508444  3
   1084   1082   1091   1092     1  0.0000000  0.0000000  2
   1085   1082   1091   1092     1  0.0000000  0.0000000  2
   1086   1085   1088   1089     1  0.0000000  1.2552000  3
   1086   1085   1088   1090     1  0.0000000  1.2552000  3
   1086   1085   1082   1091     1  0.0000000  0.6508444  3
   1087   1085   1088   1089     1  0.0000000  1.2552000  3
   1087   1085   1088   1090     1  0.0000000  1.2552000  3
   1087   1085   1082   1091     1  0.0000000  0.6508444  3
     33     44     64     65     4  180.0000771  4.6024000  2
     34     69     89     90     4  180.0000771  4.6024000  2
     35     94    114    115     4  180.0000771  4.6024000  2
     36    119    139    140     4  180.0000771  4.6024000  2
     60    144    164    165     4  180.0000771  4.6024000  2
     61    169    189    190     4  180.0000771  4.6024000  2
     85    194    214    215     4  180.0000771  4.6024000  2
     86    219    239    240     4  180.0000771  4.6024000  2
    110    244    264    265     4  180.0000771  4.6024000  2
    111    269    289    290     4  180.0000771  4.6024000  2
    135    294    314    315     4  180.0000771  4.6024000  2
    136    319    339    340     4  180.0000771  4.6024000  2
    160    344    364    365     4  180.0000771  4.6024000  2
    161    369    389    390     4  180.0000771  4.6024000  2
    185    394    414    415     4  180.0000771  4.6024000  2
    186    419    439    440     4  180.0000771  4.6024000  2
    210    444    464    465     4  180.0000771  4.6024000  2
    211    469    489    490     4  180.0000771  4.6024000  2
    235    494    514    515     4  180.0000771  4.6024000  2
    236    519    539    540     4  180.0000771  4.6024000  2
    260    544    564    565     4  180.0000771  4.6024000  2
    261    569    589    590     4  180.0000771  4.6024000  2
    285    594    614    615     4  180.0000771  4.6024000  2
    286    619    639    640     4  180.0000771  4.6024000  2
    310    644    664    665     4  180.0000771  4.6024000  2
    311    669    689    690     4  180.0000771  4.6024000  2
    335    694    714    715     4  180.0000771  4.6024000  2
    336    719    739    740     4  180.0000771  4.6024000  2
    360    741    750    751     4  180.0000771  4.6024000  2
    361    752    761    762     4  180.0000771  4.6024000  2
    385    763    772    773     4  180.0000771  4.6024000  2
    386    774    783    784     4  180.0000771  4.6024000  2
    410    785    794    795     4  180.0000771  4.6024000  2
    411    796    805    806     4  180.0000771  4.6024000  2
    435    807    816    817     4  180.0000771  4.6024000  2
    436    818    827    828     4  180.0000771  4.6024000  2
    460    829    838    839     4  180.0000771  4.6024000  2
    461    840    849    850     4  180.0000771  4.6024000  2
    485    851    860    861     4  180.0000771  4.6024000  2
    486    862    871    872     4  180.0000771  4.6024000  2
    510    873    882    883     4  180.0000771  4.6024000  2
    511    884    893    894     4  180.0000771  4.6024000  2
    535    895    904    905     4  180.0000771  4.6024000  2
    536    906    915    916     4  180.0000771  4.6024000  2
    560    917    926    927     4  180.0000771  4.6024000  2
    561    928    937    938     4  180.0000771  4.6024000  2
    585    939    948    949     4  180.0000771  4.6024000  2
    586    950    959    960     4  180.0000771  4.6024000  2
    610    961    970    971     4  180.0000771  4.6024000  2
    611    972    981    982     4  180.0000771  4.6024000  2
    635    983    992    993     4  180.0000771  4.6024000  2
    636    994   1003   1004     4  180.0000771  4.6024000  2
    660   1005   1014   1015     4  180.0000771  4.6024000  2
    661   1016   1025   1026     4  180.0000771  4.6024000  2
    685   1027   1036   1037     4  180.0000771  4.6024000  2
    686   1038   1047   1048     4  180.0000771  4.6024000  2
    710   1049   1058   1059     4  180.0000771  4.6024000  2
    711   1060   1069   1070     4  180.0000771  4.6024000  2
    735   1071   1080   1081     4  180.0000771  4.6024000  2
    736   1082   1091   1092     4  180.0000771  4.6024000  2

;[ system ]
;; Name
;Generic title
;
;[ molecules ]
;; Compound       #mols
;system1              1
