G3NP-PAMAM in water
46155
    1aaa     C1    1   1.952   3.125   0.881 -0.4993  0.4146  0.4178
    1aaa     H1    2   1.851   3.158   0.855  0.4811  2.7291 -0.7414
    1aaa     H2    3   2.006   3.203   0.826 -1.2307 -0.5933 -1.8145
    1aaa     C2    4   1.981   2.985   0.817  0.3023 -0.9168 -0.3709
    1aaa     H3    5   2.085   2.965   0.847  0.3205 -1.8210 -1.0091
    1aaa     H4    6   1.907   2.917   0.860 -2.5736  2.2165  0.0189
    1aaa     N1    7   1.971   2.990   0.669 -0.2184 -0.5129  0.1647
    1aaa     N2    8   1.973   3.137   1.028  0.2242  0.3403  0.1052
    1aaa     C3    9   2.012   3.275   1.072 -0.2636  0.6718 -0.7846
    1aaa     H5   10   1.925   3.338   1.093  0.2513  0.9286  0.6868
    1aaa     H6   11   2.069   3.328   0.995  2.3304 -0.8037 -0.0175
    1aaa     C4   12   1.889   3.059   1.123 -0.1166 -0.5302 -0.0160
    1aaa     H7   13   1.870   3.127   1.206  2.6124 -0.8644  0.9959
    1aaa     H8   14   1.789   3.033   1.085 -0.9018  2.2885 -0.0669
    1aaa     C5   15   1.826   2.995   0.632  0.5260  0.1330 -0.2307
    1aaa     H9   16   1.797   2.892   0.609  0.9783  0.1451 -0.8531
    1aaa    H10   17   1.768   3.038   0.716 -0.3146  3.1787 -2.1998
    1aaa     C6   18   2.052   2.879   0.610 -0.1659  0.0442  0.0403
    1aaa    H11   19   2.010   2.778   0.623  0.6376 -0.9695 -3.8793
    1aaa    H12   20   2.149   2.873   0.660 -0.7496  2.1828  1.5767
    1aaa     C7   21   1.802   3.082   0.511  0.0137 -0.2758 -0.5161
    1aaa    H13   22   1.829   3.186   0.533  1.7498 -0.6359 -0.7814
    1aaa    H14   23   1.869   3.053   0.429  2.2278 -0.1960  1.1659
    1aaa     C8   24   2.085   2.886   0.460  0.0046  0.2221 -0.1926
    1aaa    H15   25   1.999   2.865   0.396  0.6806 -0.0369 -1.0442
    1aaa    H16   26   2.118   2.987   0.432  0.6227 -0.1704 -0.9202
    1aaa     C9   27   1.968   2.934   1.169  0.5782  0.3526  0.4369
    1aaa    H17   28   1.985   2.858   1.092  0.3060  0.6965  0.0302
    1aaa    H18   29   2.069   2.970   1.195  1.1419  1.1530 -2.5079
    1aaa    C10   30   2.113   3.266   1.187 -0.4335 -0.3368  0.4492
    1aaa    H19   31   2.110   3.363   1.239 -1.1628 -0.8310  1.3621
    1aaa    H20   32   2.076   3.191   1.258 -1.1708 -1.6103 -1.2131
    1aaa    C11   33   1.906   2.883   1.292 -0.0656 -0.3173 -0.2092
    1aaa    C12   34   2.250   3.230   1.144  0.1582  0.4117 -0.1438
    1aaa    C13   35   1.658   3.062   0.452 -0.7963 -0.3197  0.1271
    1aaa    C14   36   2.200   2.799   0.420  0.1649  0.6328 -0.7572
    1aaa     O1   37   1.909   2.950   1.395 -0.2534  0.0872 -0.3257
    1aaa     O2   38   1.565   3.032   0.519  0.3200 -0.1099 -0.0574
    1aaa     O3   39   2.212   2.685   0.462 -0.0315  0.3619 -0.4530
    1aaa     O4   40   2.343   3.306   1.166  0.0088  0.2076 -0.3916
    2bbb     C1   41   1.664   2.588   1.353  0.4216 -0.0264 -0.3870
    2bbb     H1   42   1.634   2.524   1.436  0.0635  0.6825  0.0400
    2bbb     H2   43   1.701   2.516   1.279 -0.0805 -1.1036  0.3809
    2bbb     C2   44   1.779   2.685   1.394  0.1521  0.5039 -0.3444
    2bbb     H3   45   1.739   2.760   1.464  0.6811  1.0043 -0.5698
    2bbb     H4   46   1.855   2.627   1.447  0.0728 -1.1538 -1.9427
    2bbb     N1   47   1.551   2.665   1.305 -0.3407 -0.3520  0.2057
    2bbb     C3   48   1.431   2.586   1.319  0.5523  0.4213 -0.2253
    2bbb     H5   49   1.450   2.485   1.280 -1.6283 -0.1898  0.1303
    2bbb     H6   50   1.351   2.626   1.255  1.0335 -1.8419 -2.4010
    2bbb     C4   51   1.567   2.702   1.166 -0.5801  0.3445 -0.3633
    2bbb     H7   52   1.671   2.710   1.133 -0.7438 -0.8573 -1.2241
    2bbb     H8   53   1.513   2.639   1.094 -3.2194 -2.4060  3.5965
    2bbb     C5   54   1.504   2.837   1.159  0.0526  0.4886 -0.1527
    2bbb     H9   55   1.396   2.839   1.177  0.0289 -0.9030 -0.0777
    2bbb    H10   56   1.563   2.903   1.224 -0.0393 -0.1481  0.5958
    2bbb     C6   57   1.381   2.573   1.461 -0.2015  0.0904 -0.0147
    2bbb    H11   58   1.430   2.496   1.522 -1.2986  0.4140  1.3293
    2bbb    H12   59   1.383   2.670   1.512  0.0483 -0.1784  0.4898
    2bbb     C7   60   1.536   2.897   1.027  0.3450 -0.7041  0.1889
    2bbb     C8   61   1.232   2.535   1.458  0.0235  0.7411 -0.0856
    2bbb     O1   62   1.586   2.836   0.936 -0.4067  0.4112 -0.3489
    2bbb     O2   63   1.148   2.620   1.469 -0.5363  0.0328 -0.7204
    2bbb     N4   64   1.855   2.752   1.283  0.3099  0.0794  0.2078
    2bbb    H21   65   1.870   2.707   1.194  0.6493 -1.9562  1.2334
    3bbb     C1   66   2.370   2.894   0.989 -0.2898  0.1733  0.4026
    3bbb     H1   67   2.470   2.856   0.964 -0.0771  0.8050  0.2758
    3bbb     H2   68   2.307   2.915   0.902 -1.8018  2.5716  1.9718
    3bbb     C2   69   2.388   3.033   1.055  0.4074  0.1855  0.1253
    3bbb     H3   70   2.449   3.024   1.146  1.0886 -0.4726 -0.3836
    3bbb     H4   71   2.435   3.097   0.980 -1.7002  1.9378  0.2016
    3bbb     N1   72   2.299   2.807   1.094 -0.5147  0.0427 -0.1157
    3bbb     C3   73   2.361   2.796   1.226 -0.7590  0.5951  0.3467
    3bbb     H5   74   2.408   2.887   1.265  0.1780  0.0721  0.4520
    3bbb     H6   75   2.435   2.716   1.217  0.0027  1.4865 -1.9761
    3bbb     C4   76   2.287   2.671   1.033  0.0441 -0.6417 -0.7653
    3bbb     H7   77   2.383   2.626   1.006  0.1726 -0.8231 -0.0241
    3bbb     H8   78   2.224   2.611   1.099 -0.0428 -0.2256 -0.4694
    3bbb     C5   79   2.220   2.677   0.892 -0.4990  0.2402  0.8276
    3bbb     H9   80   2.145   2.756   0.888  1.2579  1.9725  0.5876
    3bbb    H10   81   2.292   2.701   0.814 -0.0218 -2.5585  0.2950
    3bbb     C6   82   2.252   2.746   1.319  0.6361 -0.0470  0.0086
    3bbb    H11   83   2.245   2.813   1.406  1.2709 -0.2229  0.1992
    3bbb    H12   84   2.155   2.753   1.268  0.9107 -1.0324 -0.6681
    3bbb     C7   85   2.150   2.545   0.860 -0.3162  0.2697 -0.3127
    3bbb     C8   86   2.272   2.606   1.372 -0.2115  0.1297 -0.0047
    3bbb     O1   87   2.129   2.465   0.949 -0.2526 -0.2475 -0.2412
    3bbb     O2   88   2.360   2.581   1.449  0.1511  0.1132 -0.4479
    3bbb     N4   89   2.263   3.108   1.086 -0.3217  0.2840 -0.2272
    3bbb    H21   90   2.172   3.070   1.061  0.1985 -0.5319 -0.9156
    4bbb     C1   91   1.503   2.965   0.161 -0.4229 -0.2903  1.0616
    4bbb     H1   92   1.526   2.876   0.221 -1.0367 -1.6711 -0.6410
    4bbb     H2   93   1.564   2.977   0.071 -0.7034  0.6256  0.9849
    4bbb     C2   94   1.531   3.097   0.235  0.6980  0.1774 -0.1579
    4bbb     H3   95   1.544   3.184   0.168 -0.5547  0.2302 -0.3618
    4bbb     H4   96   1.440   3.113   0.294 -0.6844 -2.1076 -1.5161
    4bbb     N1   97   1.366   2.960   0.122  0.9912 -0.6047 -0.3939
    4bbb     C3   98   1.329   3.069   0.025  0.6538  0.0756 -0.9626
    4bbb     H5   99   1.371   3.043  -0.073  2.3770 -0.5661 -0.0948
    4bbb     H6  100   1.372   3.162   0.063  1.6163 -0.3123 -1.0794
    4bbb     C4  101   1.321   2.829   0.071 -0.2962 -0.4382  0.0971
    4bbb     H7  102   1.230   2.851   0.015  0.2431  4.0332  0.5790
    4bbb     H8  103   1.400   2.782   0.010  1.8184 -0.8827  2.9684
    4bbb     C5  104   1.275   2.744   0.189 -0.2595 -0.5494  0.3968
    4bbb     H9  105   1.335   2.774   0.276  1.4518 -0.9459 -0.6107
    4bbb    H10  106   1.171   2.766   0.216  0.0934 -0.4760  1.7873
    4bbb     C6  107   1.176   3.089  -0.007  0.5455  0.3632 -0.2328
    4bbb    H11  108   1.125   3.002  -0.050 -1.1048  0.7081  0.9200
    4bbb    H12  109   1.131   3.104   0.092  2.2233  0.4782  0.5471
    4bbb     C7  110   1.284   2.600   0.156 -0.7620 -0.1989  0.5179
    4bbb     C8  111   1.168   3.214  -0.098 -0.3222 -0.4679  0.2436
    4bbb     O1  112   1.257   2.561   0.043  0.1896  0.1624  0.3955
    4bbb     O2  113   1.200   3.328  -0.052 -0.0290  0.5606 -0.0075
    4bbb     N4  114   1.651   3.095   0.326  0.6247 -0.1820  0.2320
    4bbb    H21  115   1.736   3.133   0.286  0.8001 -1.3817 -0.5875
    5bbb     C1  116   2.519   2.887   0.388 -0.3048 -0.0042  0.7711
    5bbb     H1  117   2.608   2.889   0.324 -0.7686  0.7379  0.1326
    5bbb     H2  118   2.538   2.823   0.475 -0.8432  1.0019  1.6391
    5bbb     C2  119   2.412   2.821   0.294 -0.2721 -0.8522  0.1901
    5bbb     H3  120   2.429   2.861   0.193 -1.3252 -2.2976 -0.5927
    5bbb     H4  121   2.428   2.715   0.272  1.1472 -0.3001 -1.7522
    5bbb     N1  122   2.483   3.025   0.427 -0.4655  0.0620 -0.0808
    5bbb     C3  123   2.496   3.116   0.312 -0.2396 -1.0009  0.0121
    5bbb     H5  124   2.447   3.071   0.225 -0.6639  3.2334 -2.1943
    5bbb     H6  125   2.595   3.153   0.284 -0.7837  0.8660  0.4242
    5bbb     C4  126   2.572   3.080   0.536  0.9548  0.0288  0.3681
    5bbb     H7  127   2.678   3.059   0.518  1.0831 -0.1916  1.3394
    5bbb     H8  128   2.560   3.189   0.543 -1.4356 -0.1958  0.7813
    5bbb     C5  129   2.528   3.011   0.658  0.1790 -0.6243  0.3981
    5bbb     H9  130   2.424   3.034   0.686  0.2721  1.4996 -0.8171
    5bbb    H10  131   2.539   2.902   0.656 -0.5299 -0.7242  1.3253
    5bbb     C6  132   2.399   3.233   0.339  0.0381  0.0787 -0.5059
    5bbb    H11  133   2.293   3.207   0.347  0.3234 -1.4048 -1.2003
    5bbb    H12  134   2.429   3.290   0.428  0.3119  0.3711 -0.7822
    5bbb     C7  135   2.608   3.077   0.762 -0.5464 -0.4342 -0.4463
    5bbb     C8  136   2.421   3.327   0.222 -0.0125  0.0953 -0.3672
    5bbb     O1  137   2.581   3.193   0.793 -0.1546 -0.5571 -0.2190
    5bbb     O2  138   2.376   3.307   0.110 -0.1417  0.5512  0.6965
    5bbb     N4  139   2.269   2.854   0.321  1.0230 -0.2572 -0.0614
    5bbb    H21  140   2.230   2.946   0.300 -0.4338 -0.7875  0.1909
    6bbb     C1  141   1.558   3.242   0.884  0.3416  0.7555 -0.0332
    6bbb     H1  142   1.511   3.297   0.801 -3.2175 -0.5908  0.9099
    6bbb     H2  143   1.663   3.212   0.870  0.0399 -0.8197  0.8638
    6bbb     C2  144   1.480   3.108   0.892  0.2013  0.4918  0.4215
    6bbb     H3  145   1.372   3.126   0.889  0.3702  1.4518 -0.3769
    6bbb     H4  146   1.503   3.037   0.812 -0.9206 -0.0130  0.5334
    6bbb     N1  147   1.545   3.321   1.001 -0.3258  0.1920  0.9577
    6bbb     C3  148   1.659   3.416   1.013 -0.5141  0.1517  0.9770
    6bbb     H5  149   1.746   3.352   0.995 -1.5284 -0.7932 -0.7402
    6bbb     H6  150   1.680   3.455   1.114 -2.1437  1.0319  1.0025
    6bbb     C4  151   1.412   3.368   1.041 -0.1325  1.1781 -0.1933
    6bbb     H7  152   1.379   3.439   0.964  0.0022  0.3820 -1.0088
    6bbb     H8  153   1.340   3.289   1.063  1.9101 -0.5341  0.7470
    6bbb     C5  154   1.419   3.430   1.175 -0.5810 -0.2753  0.4636
    6bbb     H9  155   1.487   3.375   1.241  1.5090 -0.1337 -1.4229
    6bbb    H10  156   1.453   3.533   1.166  1.8035 -1.1034 -1.0069
    6bbb     C6  157   1.644   3.536   0.925 -0.6669  0.1450 -0.1007
    6bbb    H11  158   1.589   3.512   0.833  0.9612 -0.3272 -1.0043
    6bbb    H12  159   1.601   3.616   0.985  0.8122  1.5481 -0.8151
    6bbb     C7  160   1.283   3.444   1.233 -0.3612 -0.6731 -0.5784
    6bbb     C8  161   1.786   3.580   0.883  0.6246 -1.2071  0.8434
    6bbb     O1  162   1.180   3.435   1.171 -0.2446  0.6211 -0.1739
    6bbb     O2  163   1.886   3.568   0.945  0.2152  0.4800 -0.0240
    6bbb     N4  164   1.504   3.034   1.014 -0.1380 -0.2631 -0.7462
    6bbb    H21  165   1.484   3.082   1.101  3.2088 -0.4888  0.2756
    7bbb     C1  166   1.033   2.310   1.269  0.2663  0.0471 -0.4874
    7bbb     H1  167   0.931   2.271   1.260  0.5511 -1.0199  0.6498
    7bbb     H2  168   1.109   2.240   1.232 -0.0981 -0.8894  0.4797
    7bbb     C2  169   1.068   2.341   1.420 -0.0515 -0.1446  0.2581
    7bbb     H3  170   0.988   2.404   1.462  0.3253 -0.1479  1.0072
    7bbb     H4  171   1.055   2.251   1.481  0.1769  0.3428  1.0422
    7bbb     N1  172   1.038   2.424   1.186  0.2725 -0.1654  0.4703
    7bbb     C3  173   0.944   2.531   1.232 -0.0137 -0.5815 -0.5406
    7bbb     H5  174   0.951   2.551   1.340  0.8586  0.3216 -0.7549
    7bbb     H6  175   0.839   2.512   1.206 -1.4359  3.9789  0.8923
    7bbb     C4  176   1.002   2.379   1.049  0.0871  0.0100  0.4266
    7bbb     H7  177   0.934   2.293   1.050  0.2885 -0.2819 -2.4635
    7bbb     H8  178   0.945   2.454   0.993  0.6074  0.7783  0.9043
    7bbb     C5  179   1.128   2.318   0.974  0.2457  0.1203 -0.4918
    7bbb     H9  180   1.203   2.397   0.973  0.2736  0.1052  0.3110
    7bbb    H10  181   1.164   2.236   1.037 -0.2580 -0.3166 -0.7582
    7bbb     C6  182   0.986   2.665   1.162  0.0628 -0.2864 -0.3114
    7bbb    H11  183   1.095   2.679   1.165 -0.1378  2.4803 -2.0751
    7bbb    H12  184   0.951   2.665   1.058  2.5657 -0.5611 -1.2362
    7bbb     C7  185   1.088   2.267   0.843 -0.9990  0.2874 -0.4587
    7bbb     C8  186   0.930   2.787   1.234 -0.3880 -0.5761  0.2058
    7bbb     O1  187   1.089   2.150   0.819 -0.1771  0.9152  0.2211
    7bbb     O2  188   0.863   2.868   1.172  0.0438 -0.2239  0.1737
    7bbb     N4  189   1.202   2.400   1.445 -0.1146  0.1112  0.2274
    7bbb    H21  190   1.287   2.346   1.437  0.1218  0.6315 -1.1125
    8bbb     C1  191   1.916   2.357   0.716 -0.6228  0.1778  0.3544
    8bbb     H1  192   1.846   2.441   0.714  0.6710  1.2885  0.3524
    8bbb     H2  193   1.925   2.329   0.821  0.6155  0.8744  0.4491
    8bbb     C2  194   2.061   2.395   0.670 -0.8295  0.3509  0.2021
    8bbb     H3  195   2.133   2.326   0.715  1.1529 -0.2596 -3.5049
    8bbb     H4  196   2.074   2.392   0.561  1.6387 -1.5312  0.4611
    8bbb     N1  197   1.856   2.245   0.639 -0.2406 -0.3747 -0.3042
    8bbb     C3  198   1.832   2.265   0.489 -0.1850 -0.2609  0.4626
    8bbb     H5  199   1.778   2.179   0.449  0.2749 -0.8642  1.1132
    8bbb     H6  200   1.922   2.281   0.428 -0.4662 -3.6972 -1.0339
    8bbb     C4  201   1.914   2.113   0.669  0.3336  0.6448  0.6237
    8bbb     H7  202   2.006   2.095   0.611 -0.1662 -1.6993  0.4502
    8bbb     H8  203   1.929   2.116   0.778 -1.1096  1.0735  0.8268
    8bbb     C5  204   1.809   1.997   0.657 -0.0451 -0.0236 -0.0365
    8bbb     H9  205   1.709   2.016   0.699 -0.9130  0.3569 -2.1449
    8bbb    H10  206   1.798   1.990   0.548  1.0045  5.1703 -0.7429
    8bbb     C6  207   1.743   2.385   0.474  0.2016  0.2392  0.2460
    8bbb    H11  208   1.675   2.401   0.559  2.8457 -0.9746  2.7442
    8bbb    H12  209   1.801   2.477   0.487  0.2766  0.3898 -1.0108
    8bbb     C7  210   1.865   1.879   0.714 -0.3366  0.8801  0.5819
    8bbb     C8  211   1.684   2.386   0.345 -0.2502 -0.1783  0.4285
    8bbb     O1  212   1.953   1.879   0.801  0.2043 -0.2720  0.1474
    8bbb     O2  213   1.673   2.287   0.276  0.1679 -1.0530  0.0925
    8bbb     N4  214   2.111   2.525   0.728  0.0339  0.2958  0.5378
    8bbb    H21  215   2.162   2.590   0.669  3.6505  0.0188  2.9953
    9bbb     C1  216   2.060   2.290   1.349 -0.5236  0.9781  0.2093
    9bbb     H1  217   2.088   2.185   1.365  0.1419  0.7365 -2.1772
    9bbb     H2  218   2.068   2.310   1.241 -1.4307  3.0005  0.4786
    9bbb     C2  219   2.168   2.378   1.405 -0.3218  0.1300  0.4946
    9bbb     H3  220   2.154   2.387   1.513 -1.1725 -1.3542  0.5369
    9bbb     H4  221   2.257   2.317   1.389  1.8865  2.7473  2.0171
    9bbb     N1  222   1.931   2.320   1.397  0.5466 -0.2178 -0.0777
    9bbb     C3  223   1.911   2.285   1.545 -0.0102  0.1210  0.7945
    9bbb     H5  224   1.987   2.324   1.614  0.8130 -1.8323  1.0514
    9bbb     H6  225   1.909   2.176   1.549 -0.9738  0.1448  1.4450
    9bbb     C4  226   1.834   2.246   1.309  0.1535  0.5199  0.2883
    9bbb     H7  227   1.855   2.138   1.314 -2.4744 -0.0715  0.2930
    9bbb     H8  228   1.731   2.261   1.343 -0.5584 -3.2749  0.2884
    9bbb     C5  229   1.835   2.298   1.170  0.1942  0.7183  0.5803
    9bbb     H9  230   1.865   2.403   1.174 -2.3195  1.5699 -0.4359
    9bbb    H10  231   1.907   2.240   1.111  1.0659  1.3374  1.0192
    9bbb     C6  232   1.778   2.346   1.597  0.1386 -0.3780 -0.1144
    9bbb    H11  233   1.765   2.454   1.581 -5.0014 -0.3787  2.1174
    9bbb    H12  234   1.696   2.294   1.547 -0.6114 -2.3758  2.9031
    9bbb     C7  235   1.704   2.272   1.097  0.9498  0.2412  0.4505
    9bbb     C8  236   1.758   2.320   1.743 -0.0393  0.0560  0.9031
    9bbb     O1  237   1.643   2.165   1.104  0.3919 -0.0271 -0.0553
    9bbb     O2  238   1.850   2.285   1.814 -0.3883  0.5304  0.2543
    9bbb     N4  239   2.183   2.511   1.335  0.4654  0.5601 -0.2710
    9bbb    H21  240   2.100   2.541   1.285 -0.3120 -0.1197  0.5651
   10bbb     C1  241   1.219   2.263   0.246  0.4242  0.6402 -0.9052
   10bbb     H1  242   1.206   2.241   0.140  0.3524 -0.5236 -0.6614
   10bbb     H2  243   1.138   2.313   0.301  1.3026 -1.3380  2.5206
   10bbb     C2  244   1.338   2.362   0.248 -0.0750  0.4677  0.6015
   10bbb     H3  245   1.396   2.333   0.336  0.2527 -0.2427  0.1553
   10bbb     H4  246   1.399   2.345   0.159 -2.0786  0.0538 -0.7785
   10bbb     N1  247   1.249   2.143   0.320 -0.7536 -0.1762  0.2872
   10bbb     C3  248   1.349   2.062   0.252  0.1383 -0.0449  0.2278
   10bbb     H5  249   1.402   2.125   0.180 -2.5663  1.5798 -0.4842
   10bbb     H6  250   1.308   1.981   0.190 -0.3511 -0.3358  0.9166
   10bbb     C4  251   1.125   2.069   0.342 -0.1948 -0.6681  0.4469
   10bbb     H7  252   1.046   2.143   0.358  0.4453  0.2463 -0.4339
   10bbb     H8  253   1.099   2.004   0.258 -0.2947 -1.9051  1.4084
   10bbb     C5  254   1.123   1.996   0.475 -0.3705 -0.5890  0.3979
   10bbb     H9  255   1.193   1.913   0.485 -1.6973 -1.8274 -0.2370
   10bbb    H10  256   1.136   2.071   0.555  1.1972  0.3969 -0.7091
   10bbb     C6  257   1.449   1.996   0.341  0.2214  0.3862 -0.0353
   10bbb    H11  258   1.493   2.072   0.406  2.4202 -0.7120 -0.1621
   10bbb    H12  259   1.400   1.930   0.415 -0.7648  1.3210  0.1689
   10bbb     C7  260   0.988   1.937   0.488  0.0701 -0.4305 -0.0444
   10bbb     C8  261   1.557   1.918   0.272 -0.3301 -0.3470  1.1826
   10bbb     O1  262   0.933   1.880   0.392 -0.2765  0.2555  0.0732
   10bbb     O2  263   1.543   1.801   0.245 -0.2220 -0.4755  0.1140
   10bbb     N4  264   1.323   2.513   0.259  0.2366  0.5518 -0.3778
   10bbb    H21  265   1.350   2.563   0.342 -1.0672  0.2555  0.2476
   11bbb     C1  266   0.917   3.385  -0.229 -0.6370  0.0483  0.0281
   11bbb     H1  267   0.853   3.451  -0.289  1.3200  3.7048  1.6236
   11bbb     H2  268   0.954   3.450  -0.149 -0.2596 -0.3442  0.1774
   11bbb     C2  269   1.036   3.311  -0.295 -0.4569 -0.6873  0.6410
   11bbb     H3  270   1.003   3.278  -0.395 -2.3125  2.8891 -0.1103
   11bbb     H4  271   1.121   3.379  -0.307 -2.2279  1.4047 -0.9368
   11bbb     N1  272   0.829   3.284  -0.166 -0.3006 -0.5553 -0.0876
   11bbb     C3  273   0.728   3.330  -0.067 -0.1583  0.1600 -0.7148
   11bbb     H5  274   0.664   3.244  -0.045 -0.3783  0.4238 -0.3247
   11bbb     H6  275   0.670   3.413  -0.108 -0.1848  0.0908 -0.8183
   11bbb     C4  276   0.761   3.213  -0.275 -0.3367 -0.0322  0.0429
   11bbb     H7  277   0.680   3.271  -0.322 -0.7347 -0.3870  0.2900
   11bbb     H8  278   0.835   3.193  -0.354  0.9041  0.4473  1.0483
   11bbb     C5  279   0.718   3.077  -0.229  1.2456 -0.6735  0.2566
   11bbb     H9  280   0.804   3.030  -0.179  0.9446  1.0375  2.5571
   11bbb    H10  281   0.629   3.079  -0.165  1.5619 -0.7218  0.7017
   11bbb     C6  282   0.800   3.367   0.060  0.3460 -0.1536 -0.4307
   11bbb    H11  283   0.870   3.289   0.092  1.6920  1.0008 -0.4384
   11bbb    H12  284   0.857   3.458   0.038  2.0241 -0.7134  1.3207
   11bbb     C7  285   0.663   3.005  -0.348 -0.3749  0.5509 -0.0187
   11bbb     C8  286   0.702   3.400   0.169 -0.3820 -0.2617 -0.1589
   11bbb     O1  287   0.544   3.021  -0.381  0.2429  0.2671  0.1233
   11bbb     O2  288   0.602   3.337   0.176  0.2002 -0.1966  0.0289
   11bbb     N4  289   1.096   3.202  -0.215 -0.2357  0.5315  0.2208
   11bbb    H21  290   1.088   3.105  -0.245  2.3187  0.0941  0.7226
   12bbb     C1  291   2.883   2.938   1.000  0.4193  0.4242 -0.4588
   12bbb     H1  292   2.936   2.977   1.088 -0.3562  0.8957 -0.1854
   12bbb     H2  293   2.954   2.911   0.921  0.4426 -1.8337  0.2664
   12bbb     C2  294   2.778   3.043   0.952  0.0308  0.0345  0.0700
   12bbb     H3  295   2.702   3.063   1.029  1.3458  2.6482  0.8026
   12bbb     H4  296   2.838   3.134   0.938  1.1926 -0.4381  1.7317
   12bbb     N1  297   2.819   2.805   1.031  0.0964 -0.2235 -0.2786
   12bbb     C3  298   2.911   2.688   1.021  0.1165  0.6067 -0.1590
   12bbb     H5  299   2.855   2.598   1.052 -1.1776  1.8743  1.3253
   12bbb     H6  300   2.993   2.697   1.094 -0.3315 -0.5241  0.5206
   12bbb     C4  301   2.727   2.805   1.142  0.5379 -0.4940  0.3341
   12bbb     H7  302   2.647   2.878   1.132  0.3535 -0.6754  0.4822
   12bbb     H8  303   2.694   2.701   1.154  0.6142 -0.3585  1.8151
   12bbb     C5  304   2.794   2.856   1.261  0.6957 -0.7249 -0.0033
   12bbb     H9  305   2.896   2.817   1.261  1.1494  0.3259  1.7636
   12bbb    H10  306   2.799   2.965   1.274  0.9233 -0.7208 -0.1207
   12bbb     C6  307   2.968   2.663   0.881  0.2560  0.5207  0.0459
   12bbb    H11  308   2.894   2.676   0.802  1.6997  0.4241 -1.3642
   12bbb    H12  309   3.053   2.728   0.861  0.5583  0.4398  1.0034
   12bbb     C7  310   2.731   2.790   1.379 -0.0101 -0.5236  0.3565
   12bbb     C8  311   3.023   2.521   0.869  0.7281  0.1227 -0.4922
   12bbb     O1  312   2.765   2.683   1.417 -0.1195  0.4002 -0.2245
   12bbb     O2  313   3.141   2.503   0.893  0.0318  0.5428  0.0652
   12bbb     N4  314   2.706   3.003   0.827  0.3094 -0.1835  0.2340
   12bbb    H21  315   2.710   2.907   0.793 -0.8737 -0.1573 -0.0198
   13bbb     C1  316   2.680   3.574   0.117  0.1314  0.1059  0.1500
   13bbb     H1  317   2.700   3.630   0.025  0.5164  0.9232  0.7172
   13bbb     H2  318   2.717   3.474   0.093 -1.4368 -0.5985  0.5273
   13bbb     C2  319   2.531   3.552   0.148  0.4730 -0.2942  0.5247
   13bbb     H3  320   2.497   3.646   0.192 -1.4086 -0.6036 -0.1515
   13bbb     H4  321   2.483   3.528   0.052  1.8481  0.7080 -0.4444
   13bbb     N1  322   2.758   3.629   0.224  0.0442 -0.4046  0.4953
   13bbb     C3  323   2.745   3.776   0.214  0.4942 -0.0243  0.0072
   13bbb     H5  324   2.639   3.801   0.199 -0.2914 -2.4410  1.0013
   13bbb     H6  325   2.807   3.814   0.132  0.6363  2.1596  1.0674
   13bbb     C4  326   2.891   3.580   0.228  0.1522 -0.5453 -0.3612
   13bbb     H7  327   2.913   3.491   0.167  0.8941 -1.6750  1.4513
   13bbb     H8  328   2.965   3.656   0.201 -0.2184  2.1297  4.8348
   13bbb     C5  329   2.919   3.531   0.374 -0.2158 -0.6237  0.4019
   13bbb     H9  330   2.942   3.621   0.432  3.4617 -1.4620  0.5236
   13bbb    H10  331   2.832   3.474   0.408 -0.4111  1.0455  2.9577
   13bbb     C6  332   2.796   3.852   0.337 -0.6029  0.2572  0.4722
   13bbb    H11  333   2.785   3.800   0.432 -0.4425  1.5613  1.2312
   13bbb    H12  334   2.904   3.867   0.323 -0.1788 -1.9603  1.0182
   13bbb     C7  335   3.042   3.447   0.372 -0.1240 -0.9121  0.5595
   13bbb     C8  336   2.731   3.986   0.333 -0.0582 -0.7711  0.8897
   13bbb     O1  337   3.153   3.503   0.367  0.0745  0.3118 -0.3877
   13bbb     O2  338   2.696   4.044   0.232  0.0854  0.4684 -0.3036
   13bbb     N4  339   2.500   3.439   0.245 -0.1507 -0.1239  0.0952
   13bbb    H21  340   2.536   3.445   0.339  1.0610  2.4724 -0.4323
   14bbb     C1  341   1.174   3.539   1.587  0.1526  0.0471  0.0689
   14bbb     H1  342   1.238   3.628   1.590  0.1176  0.0565  1.5234
   14bbb     H2  343   1.232   3.460   1.637  0.4754  0.5852  0.5606
   14bbb     C2  344   1.147   3.500   1.445 -0.7416 -0.3742  0.7534
   14bbb     H3  345   1.075   3.418   1.446 -1.0716 -0.0917  0.5379
   14bbb     H4  346   1.098   3.584   1.393 -0.9949 -1.0723 -0.1654
   14bbb     N1  347   1.042   3.567   1.652  0.1076 -0.1366  0.0139
   14bbb     C3  348   1.006   3.700   1.681  0.0066 -0.3112  0.2975
   14bbb     H5  349   1.077   3.748   1.750 -0.5768 -1.3722  1.6705
   14bbb     H6  350   0.916   3.697   1.743  0.7802 -0.4668  1.4617
   14bbb     C4  351   1.016   3.476   1.762  0.2016  0.1495 -0.4008
   14bbb     H7  352   1.087   3.511   1.838 -0.6573  2.4414 -0.5741
   14bbb     H8  353   0.917   3.494   1.805  1.0356  3.0974  0.5039
   14bbb     C5  354   1.030   3.328   1.734  0.1565 -0.2051 -0.1140
   14bbb     H9  355   0.974   3.311   1.642  0.1175  0.4888 -0.2246
   14bbb    H10  356   1.134   3.297   1.715  0.8075  1.8786 -0.2415
   14bbb     C6  357   0.984   3.787   1.558  0.2945 -0.0840  0.5586
   14bbb    H11  358   1.087   3.801   1.523  0.2264 -1.4241 -0.2497
   14bbb    H12  359   0.918   3.729   1.492 -1.0667 -1.7027  3.1477
   14bbb     C7  360   0.984   3.250   1.853  0.1407 -0.2450 -0.7329
   14bbb     C8  361   0.932   3.922   1.596 -0.3616  0.3473  0.1145
   14bbb     O1  362   1.061   3.235   1.950 -0.4551 -0.1151 -0.1193
   14bbb     O2  363   0.985   3.983   1.687 -0.2241 -0.3013 -0.0394
   14bbb     N4  364   1.275   3.459   1.369  0.3169 -0.7701 -0.3448
   14bbb    H21  365   1.367   3.454   1.412  0.0819  2.2153  0.7247
   15bbb     C1  366   1.969   3.809   0.705  0.4325 -0.4768 -0.3040
   15bbb     H1  367   1.963   3.830   0.812  0.6723  3.4956 -0.8960
   15bbb     H2  368   1.910   3.884   0.651  1.4259  0.4466 -0.1600
   15bbb     C2  369   1.905   3.670   0.684 -0.0182  0.0536  0.2981
   15bbb     H3  370   1.895   3.651   0.577  0.1641 -1.9494  0.5952
   15bbb     H4  371   1.985   3.601   0.713 -0.6692  0.1596  2.5249
   15bbb     N1  372   2.107   3.809   0.659 -0.6700 -0.5161 -0.9163
   15bbb     C3  373   2.122   3.816   0.514  0.0152  0.8246  0.5469
   15bbb     H5  374   2.104   3.912   0.463  0.6860  1.3832  1.3384
   15bbb     H6  375   2.050   3.745   0.472 -1.2895  2.8661 -0.8475
   15bbb     C4  376   2.177   3.911   0.733 -0.0980 -0.2398 -0.2188
   15bbb     H7  377   2.282   3.903   0.701  0.0176 -1.4313  0.4181
   15bbb     H8  378   2.151   4.016   0.712  1.4491 -0.3375 -3.1851
   15bbb     C5  379   2.186   3.892   0.892 -0.1737  0.3852 -0.6244
   15bbb     H9  380   2.090   3.889   0.944 -0.7881  1.9580 -1.6202
   15bbb    H10  381   2.239   3.800   0.920  0.1509  1.4361  2.5936
   15bbb     C6  382   2.251   3.749   0.471 -0.3855  0.3273 -0.4856
   15bbb    H11  383   2.347   3.791   0.503 -0.0560 -0.3385 -0.5889
   15bbb    H12  384   2.254   3.647   0.510  0.7392 -0.0064 -1.4026
   15bbb     C7  385   2.269   3.987   0.961  0.2846 -0.2855  0.1155
   15bbb     C8  386   2.259   3.744   0.324  0.4515  0.0794  0.0797
   15bbb     O1  387   2.346   4.066   0.911 -0.2372 -0.0984  0.4114
   15bbb     O2  388   2.318   3.823   0.261  0.3189 -0.1069 -0.4350
   15bbb     N4  389   1.785   3.639   0.759 -0.9606  0.0422  0.4559
   15bbb    H21  390   1.692   3.641   0.719 -1.3976  0.2642  1.4503
   16bbb     C1  391   0.953   2.445   0.540 -0.1621  0.2536 -0.4523
   16bbb     H1  392   1.019   2.533   0.550  0.1309  0.3061 -2.5047
   16bbb     H2  393   0.859   2.474   0.589 -1.3862 -2.4592 -1.0572
   16bbb     C2  394   1.009   2.321   0.609  0.5194 -0.4901  0.4222
   16bbb     H3  395   0.927   2.248   0.612 -1.8937  1.9323 -1.2928
   16bbb     H4  396   1.095   2.296   0.546  1.2103  0.9544  0.7493
   16bbb     N1  397   0.921   2.415   0.402 -0.1356 -0.7507 -0.0700
   16bbb     C3  398   0.899   2.542   0.324  0.0439  0.8686 -0.2896
   16bbb     H5  399   0.967   2.621   0.359 -2.4305  1.9926  2.4048
   16bbb     H6  400   0.804   2.593   0.345 -0.9980 -1.2561  0.4684
   16bbb     C4  401   0.829   2.312   0.365 -0.5883  0.3448 -0.2040
   16bbb     H7  402   0.849   2.280   0.263 -2.0560  1.9349 -1.0498
   16bbb     H8  403   0.841   2.216   0.417  0.3161 -1.1638 -3.0421
   16bbb     C5  404   0.692   2.352   0.400  0.0913 -0.8960  0.0921
   16bbb     H9  405   0.679   2.388   0.503  1.1471 -1.9926  0.6386
   16bbb    H10  406   0.657   2.433   0.335  2.0504 -0.0919 -0.0452
   16bbb     C6  407   0.900   2.522   0.175  0.2809 -0.1876  0.0111
   16bbb    H11  408   0.996   2.491   0.133  0.8627  1.0402  0.3634
   16bbb    H12  409   0.829   2.443   0.151 -0.6330  0.9691 -1.2466
   16bbb     C7  410   0.590   2.245   0.386  0.6568  0.3677  0.9592
   16bbb     C8  411   0.860   2.643   0.102 -0.8662 -0.0001 -0.2070
   16bbb     O1  412   0.617   2.123   0.385  0.3105 -0.1420 -0.1078
   16bbb     O2  413   0.917   2.754   0.100 -0.3854  0.6884 -0.4065
   16bbb     N4  414   1.059   2.359   0.746  0.0102  0.7266 -0.8772
   16bbb    H21  415   1.037   2.450   0.783  1.2541  0.9773 -0.6961
   17bbb     C1  416   1.016   2.992   1.542  0.2440 -0.3287  0.2494
   17bbb     H1  417   0.943   2.943   1.608  2.2920 -2.0264  1.3789
   17bbb     H2  418   0.998   3.097   1.568 -2.2735 -1.1274  2.1687
   17bbb     C2  419   0.967   2.962   1.401 -0.6031 -0.9248 -0.3480
   17bbb     H3  420   0.872   3.016   1.396  0.4609  0.9826 -1.4866
   17bbb     H4  421   1.011   3.032   1.329 -0.3489 -0.1809  0.5041
   17bbb     N1  422   1.145   2.944   1.585 -0.3150  0.1316 -0.6663
   17bbb     C3  423   1.183   2.966   1.722  0.8106 -0.2041 -0.0633
   17bbb     H5  424   1.179   3.072   1.750  0.5386 -1.1438  4.1096
   17bbb     H6  425   1.285   2.930   1.743  0.1521 -1.0145  2.0245
   17bbb     C4  426   1.254   2.980   1.483 -0.3369  0.5635  0.3203
   17bbb     H7  427   1.348   2.928   1.505 -1.4407 -1.7663 -0.2247
   17bbb     H8  428   1.225   2.936   1.387  2.1552  2.0780 -1.2462
   17bbb     C5  429   1.288   3.126   1.473 -0.4598  0.5197 -0.1262
   17bbb     H9  430   1.205   3.179   1.423  0.6206  2.6674  0.2438
   17bbb    H10  431   1.302   3.179   1.568 -0.9359  2.5158 -1.1033
   17bbb     C6  432   1.100   2.874   1.812 -0.0389  0.7947  0.0187
   17bbb    H11  433   0.991   2.891   1.812 -0.6038 -2.1168  1.0311
   17bbb    H12  434   1.108   2.774   1.768 -1.0413 -0.4112  2.3475
   17bbb     C7  435   1.412   3.142   1.384 -0.0051 -1.0036  0.5246
   17bbb     C8  436   1.143   2.872   1.956 -0.4689 -0.3704 -0.3239
   17bbb     O1  437   1.399   3.150   1.265 -0.1870  0.1606 -0.4865
   17bbb     O2  438   1.238   2.921   2.002  0.5198 -0.0675 -0.0963
   17bbb     N4  439   0.971   2.817   1.362 -0.1526 -0.1726  0.2414
   17bbb    H21  440   1.037   2.757   1.409 -0.9579  1.6084  4.0320
   18bbb     C1  441   1.716   1.524   0.655  0.2526  0.0960 -0.6390
   18bbb     H1  442   1.624   1.513   0.713 -0.1698 -0.2332 -1.3619
   18bbb     H2  443   1.764   1.425   0.659  0.6689  0.2668  3.2555
   18bbb     C2  444   1.814   1.629   0.711  0.2510  0.0384  0.1732
   18bbb     H3  445   1.805   1.630   0.820 -0.3120 -0.4866  0.1355
   18bbb     H4  446   1.916   1.598   0.685 -0.6853 -2.5016 -0.7189
   18bbb     N1  447   1.703   1.566   0.512  0.2086  0.8179  0.7820
   18bbb     C3  448   1.568   1.525   0.476 -0.3879  0.0331  0.2369
   18bbb     H5  449   1.548   1.423   0.509  1.4942 -0.7422 -0.9017
   18bbb     H6  450   1.564   1.519   0.367  0.9505  1.6113  0.0652
   18bbb     C4  451   1.812   1.512   0.430  0.0821 -0.3060  0.3689
   18bbb     H7  452   1.911   1.526   0.476  1.2463 -1.5107 -1.6193
   18bbb     H8  453   1.791   1.406   0.413 -2.2598  0.3083 -1.1110
   18bbb     C5  454   1.811   1.593   0.300 -0.6480  0.0075 -0.0391
   18bbb     H9  455   1.711   1.605   0.257 -1.8132  0.0625  2.4942
   18bbb    H10  456   1.851   1.691   0.330 -0.0263  0.0992 -1.1306
   18bbb     C6  457   1.475   1.629   0.522  0.2366  0.0348 -0.6118
   18bbb    H11  458   1.468   1.623   0.631 -1.6865 -1.3956 -0.7586
   18bbb    H12  459   1.500   1.732   0.494 -1.1722  0.3631 -0.7273
   18bbb     C7  460   1.914   1.529   0.204 -0.5487 -0.4951  0.2563
   18bbb     C8  461   1.333   1.604   0.471 -0.3998  1.1522  0.4090
   18bbb     O1  462   2.028   1.501   0.241  0.6303 -0.0103 -0.5854
   18bbb     O2  463   1.246   1.544   0.531 -0.6253  0.4541 -0.4359
   18bbb     N4  464   1.806   1.767   0.660 -0.2702  0.2986  0.0243
   18bbb    H21  465   1.736   1.776   0.588 -1.3780  0.0551  1.0198
   19bbb     C1  466   1.772   2.509   0.095  0.1335  0.0651  0.4676
   19bbb     H1  467   1.780   2.563  -0.000  0.6707  0.1486  0.5542
   19bbb     H2  468   1.763   2.403   0.070  1.3955  0.3718 -1.4815
   19bbb     C2  469   1.653   2.564   0.170  0.7164  0.4422  0.4631
   19bbb     H3  470   1.649   2.673   0.175 -1.3059  0.5046 -1.0107
   19bbb     H4  471   1.562   2.536   0.116  0.9616  0.4164  0.0602
   19bbb     N1  472   1.905   2.531   0.166 -0.0525  0.3028  0.0837
   19bbb     C3  473   1.945   2.668   0.190  0.2806  0.0390 -0.0549
   19bbb     H5  474   2.038   2.675   0.248  0.7438 -0.2845 -0.7576
   19bbb     H6  475   1.870   2.719   0.253  0.1308  1.2566 -1.1867
   19bbb     C4  476   2.019   2.461   0.108  0.3165 -0.3305  0.0401
   19bbb     H7  477   2.012   2.477  -0.000  0.7100  3.4715  0.4198
   19bbb     H8  478   2.114   2.504   0.141  0.5406 -0.3796 -0.5394
   19bbb     C5  479   2.022   2.311   0.138 -0.0084  0.3325 -0.3894
   19bbb     H9  480   2.007   2.294   0.245  1.4771 -0.9293 -0.3508
   19bbb    H10  481   1.935   2.264   0.091  0.0445 -0.1792  0.0249
   19bbb     C6  482   1.961   2.747   0.063 -0.2190  0.0336  0.0890
   19bbb    H11  483   2.012   2.690  -0.015  0.9070 -1.5024  1.8855
   19bbb    H12  484   1.859   2.758   0.024  0.5764  0.0370 -2.1144
   19bbb     C7  485   2.145   2.252   0.087  0.1534 -0.5265 -0.3487
   19bbb     C8  486   2.029   2.880   0.083  0.3437  0.5110 -0.3613
   19bbb     O1  487   2.227   2.194   0.164  0.4486 -0.1870  0.6725
   19bbb     O2  488   1.980   2.958   0.164  0.3295  0.8717 -0.1636
   19bbb     N4  489   1.638   2.512   0.308 -0.1879  0.1887 -0.2886
   19bbb    H21  490   1.650   2.578   0.384 -1.2345 -0.4834  0.4933
   20bbb     C1  491   1.555   2.355   0.811 -0.1300 -0.1241 -0.4792
   20bbb     H1  492   1.623   2.270   0.800  0.0787  0.0216 -0.3094
   20bbb     H2  493   1.607   2.441   0.767 -0.4776 -0.7341 -2.1860
   20bbb     C2  494   1.533   2.384   0.962  0.7344  0.3206  0.2333
   20bbb     H3  495   1.476   2.477   0.978  0.1103  0.3255 -1.7295
   20bbb     H4  496   1.460   2.309   0.994  0.9726  0.4961  1.2111
   20bbb     N1  497   1.427   2.331   0.750 -0.5214  0.2040 -0.1269
   20bbb     C3  498   1.409   2.200   0.691  0.0439  0.5892 -0.3777
   20bbb     H5  499   1.491   2.180   0.622  0.4065  0.4394  0.0864
   20bbb     H6  500   1.308   2.189   0.648 -0.2574  0.3613  0.3646
   20bbb     C4  501   1.383   2.430   0.653  0.4757  0.3090 -0.7817
   20bbb     H7  502   1.457   2.439   0.572 -2.8994 -0.1507 -4.1883
   20bbb     H8  503   1.284   2.402   0.615 -0.9025  1.7901  1.5090
   20bbb     C5  504   1.364   2.562   0.711 -0.8324 -0.8219 -0.0686
   20bbb     H9  505   1.296   2.563   0.797  1.8110 -0.4543  2.1512
   20bbb    H10  506   1.453   2.614   0.749 -2.4917  1.3039  1.1499
   20bbb     C6  507   1.403   2.099   0.805 -0.5195 -0.6218 -0.3634
   20bbb    H11  508   1.496   2.093   0.863  0.1116  1.6150 -1.0562
   20bbb    H12  509   1.330   2.137   0.877  0.6198  1.7640 -0.3550
   20bbb     C7  510   1.312   2.660   0.602 -0.2592  0.3781  0.4163
   20bbb     C8  511   1.376   1.963   0.756  0.1355 -0.1327  0.3625
   20bbb     O1  512   1.371   2.668   0.496 -1.0846 -0.4315  0.3323
   20bbb     O2  513   1.467   1.900   0.700 -0.3937 -0.6461  0.4718
   20bbb     N4  514   1.653   2.381   1.045 -0.2325 -0.7612  0.3445
   20bbb    H21  515   1.711   2.464   1.050  1.5782 -1.7776 -2.0587
   21bbb     C1  516   1.564   2.485   1.970  0.0170  0.4085  0.1624
   21bbb     H1  517   1.663   2.530   1.978 -0.1625  0.7334  0.5928
   21bbb     H2  518   1.514   2.479   2.068  0.8993 -1.2046  0.5577
   21bbb     C2  519   1.587   2.341   1.921  0.2874  0.6095  0.5800
   21bbb     H3  520   1.667   2.296   1.981  0.2776  1.1554  1.0164
   21bbb     H4  521   1.496   2.280   1.925  0.9357 -0.4542 -0.3614
   21bbb     N1  522   1.469   2.551   1.888 -0.3315  0.1307  0.1807
   21bbb     C3  523   1.479   2.692   1.888  0.0803 -1.1914 -0.3555
   21bbb     H5  524   1.477   2.727   1.992  1.0239 -1.8624 -0.0995
   21bbb     H6  525   1.397   2.745   1.837  0.6145 -0.8824 -0.9020
   21bbb     C4  526   1.327   2.509   1.926 -0.4730  0.4133  0.1365
   21bbb     H7  527   1.329   2.407   1.966  2.4520  0.0901 -0.5731
   21bbb     H8  528   1.286   2.575   2.004 -0.0778 -0.2239  0.8905
   21bbb     C5  529   1.238   2.514   1.803 -0.2501 -0.8015 -0.3341
   21bbb     H9  530   1.252   2.606   1.745 -1.5336 -0.2139  0.2405
   21bbb    H10  531   1.269   2.427   1.743 -0.5436 -1.0393 -0.1427
   21bbb     C6  532   1.605   2.734   1.814 -0.6108 -0.6247 -0.7148
   21bbb    H11  533   1.702   2.697   1.851  1.2200  2.2112 -2.2622
   21bbb    H12  534   1.592   2.705   1.710 -2.1327 -0.9760 -0.4470
   21bbb     C7  535   1.093   2.505   1.840  0.1061 -0.0395 -0.3786
   21bbb     C8  536   1.614   2.881   1.810  0.4620 -0.9760 -0.1899
   21bbb     O1  537   1.047   2.495   1.955 -0.6841 -0.2086  0.0550
   21bbb     O2  538   1.566   2.957   1.730 -0.1634 -0.6300  0.3439
   21bbb     N4  539   1.624   2.336   1.780 -0.1407 -0.1475 -0.4845
   21bbb    H21  540   1.565   2.379   1.709  0.6475  2.6448  0.3969
   22bbb     C1  541   0.789   1.898   0.821 -0.4697  1.1979 -0.1849
   22bbb     H1  542   0.868   1.828   0.851 -1.4698  0.3842  0.6248
   22bbb     H2  543   0.694   1.848   0.843  0.1124  0.6071  1.0832
   22bbb     C2  544   0.806   1.897   0.656  0.1803 -0.5874 -0.8552
   22bbb     H3  545   0.783   1.796   0.621 -1.1062  0.1262 -2.1725
   22bbb     H4  546   0.731   1.965   0.615  0.1487 -0.3210 -0.3638
   22bbb     N1  547   0.808   2.024   0.895 -0.1068 -0.2478 -0.9058
   22bbb     C3  548   0.808   2.005   1.037  0.0006  0.4792 -0.1442
   22bbb     H5  549   0.717   1.947   1.059 -0.5909  1.6167  0.4693
   22bbb     H6  550   0.816   2.101   1.088  1.2370  0.1205  0.3695
   22bbb     C4  551   0.722   2.135   0.852  0.3373  0.1271  0.4450
   22bbb     H7  552   0.757   2.232   0.891 -0.4384  0.6602 -0.1726
   22bbb     H8  553   0.737   2.132   0.744 -1.9804 -0.7401  0.0948
   22bbb     C5  554   0.572   2.117   0.866 -0.0885 -0.2221  0.3951
   22bbb     H9  555   0.534   2.047   0.791  3.0333 -0.7120 -0.8731
   22bbb    H10  556   0.551   2.078   0.966 -0.3903 -2.3372 -0.4349
   22bbb     C6  557   0.930   1.914   1.078  0.3590 -0.3467  0.2672
   22bbb    H11  558   0.921   1.810   1.046  0.2035  0.4286 -2.4511
   22bbb    H12  559   1.017   1.957   1.027 -0.8502  0.6558 -1.0113
   22bbb     C7  560   0.513   2.253   0.840  0.2074  0.3591  0.5469
   22bbb     C8  561   0.955   1.915   1.228 -0.1747 -0.7664  0.0204
   22bbb     O1  562   0.546   2.318   0.743  0.2812  0.9708 -0.3850
   22bbb     O2  563   0.864   1.913   1.309 -0.0751  0.3178 -0.6498
   22bbb     N4  564   0.942   1.949   0.617  0.2508 -0.1350  0.9022
   22bbb    H21  565   0.992   2.000   0.689 -0.6334 -1.6977  2.7374
   23bbb     C1  566   1.921   1.963   0.266 -0.6209  0.5025 -0.8075
   23bbb     H1  567   1.893   1.926   0.365 -0.7672  2.0385 -0.2393
   23bbb     H2  568   1.952   2.068   0.273  1.7466 -0.2041  0.5217
   23bbb     C2  569   1.796   1.956   0.177 -0.0153  0.0528  0.0716
   23bbb     H3  570   1.813   2.014   0.086  0.1540  0.2580  0.2337
   23bbb     H4  571   1.779   1.851   0.151  1.3356 -1.1097  3.2968
   23bbb     N1  572   2.037   1.882   0.211  1.1462  0.4166 -0.4703
   23bbb     C3  573   2.153   1.869   0.302  0.1042 -0.0983  0.6557
   23bbb     H5  574   2.191   1.970   0.324 -1.5393  0.2525  2.0994
   23bbb     H6  575   2.240   1.821   0.255 -0.5387 -0.5821 -0.0763
   23bbb     C4  576   2.091   1.921   0.074 -0.1508  0.0504 -0.8193
   23bbb     H7  577   2.066   2.024   0.046  2.5368  0.4236 -2.1435
   23bbb     H8  578   2.200   1.916   0.063 -0.1165  0.8414 -0.9226
   23bbb     C5  579   2.030   1.826  -0.029 -0.1202  0.1915  0.3203
   23bbb     H9  580   2.071   1.726  -0.017  0.4665  0.4140  0.2111
   23bbb    H10  581   1.921   1.829  -0.012 -0.2917 -0.6419 -0.5470
   23bbb     C6  582   2.111   1.795   0.428  0.0738  0.0145  0.0078
   23bbb    H11  583   2.060   1.853   0.506 -2.1992 -0.6669 -0.8640
   23bbb    H12  584   2.051   1.707   0.400  0.6242 -0.3920  0.0822
   23bbb     C7  585   2.044   1.869  -0.168  0.8998  0.1096  0.4977
   23bbb     C8  586   2.224   1.734   0.504  0.4077 -0.3235  0.3423
   23bbb     O1  587   2.149   1.905  -0.206 -0.4862 -0.5290 -0.2656
   23bbb     O2  588   2.272   1.793   0.596 -0.1511 -0.3215  0.3969
   23bbb     N4  589   1.668   1.990   0.256  0.5027 -0.5762 -0.0313
   23bbb    H21  590   1.652   2.089   0.272  6.2693  0.7510 -0.2993
   24bbb     C1  591   0.798   2.879  -0.669  0.0156  0.1604 -0.7191
   24bbb     H1  592   0.769   2.982  -0.694 -1.9756  0.2744  1.6629
   24bbb     H2  593   0.760   2.818  -0.752 -0.2866 -0.7514  0.0730
   24bbb     C2  594   0.713   2.834  -0.540  0.7866 -0.4232  0.3152
   24bbb     H3  595   0.609   2.851  -0.571  0.8392  0.1217  0.4314
   24bbb     H4  596   0.726   2.725  -0.534 -2.4053 -1.0793 -2.0992
   24bbb     N1  597   0.947   2.875  -0.649 -0.5144  0.1297 -0.1908
   24bbb     C3  598   1.003   3.006  -0.605 -0.4526  0.1711  0.7917
   24bbb     H5  599   0.923   3.062  -0.556 -0.2179  0.8690  0.3848
   24bbb     H6  600   1.031   3.074  -0.686  1.5226 -2.1600 -0.6402
   24bbb     C4  601   1.026   2.823  -0.759  0.0324  0.3810 -0.1040
   24bbb     H7  602   0.999   2.880  -0.848 -0.1797  1.7408  0.8034
   24bbb     H8  603   1.133   2.826  -0.731 -0.0260  1.7064  0.0159
   24bbb     C5  604   0.985   2.681  -0.788  0.1950  0.3330  0.1282
   24bbb     H9  605   0.883   2.678  -0.829 -0.7046  0.6111  2.2156
   24bbb    H10  606   1.046   2.638  -0.868 -1.7553 -1.6279 -0.4056
   24bbb     C6  607   1.114   2.984  -0.503 -0.3279  0.4521  0.0892
   24bbb    H11  608   1.194   2.934  -0.559  0.2939 -0.1355  1.4566
   24bbb    H12  609   1.146   3.084  -0.471  2.7213 -0.3561 -0.0812
   24bbb     C7  610   0.999   2.590  -0.674  0.2945  0.3993 -1.3081
   24bbb     C8  611   1.076   2.903  -0.381 -1.1731 -0.0698  0.2786
   24bbb     O1  612   1.086   2.599  -0.588  0.2821  0.1451 -0.2061
   24bbb     O2  613   0.994   2.931  -0.298 -0.2824  0.2119  0.7589
   24bbb     N4  614   0.740   2.913  -0.413 -0.0186  0.3295  0.1010
   24bbb    H21  615   0.837   2.900  -0.387 -0.2728 -2.7661 -0.2034
   25bbb     C1  616   0.708   3.661   0.456  0.1326  0.0318  0.0138
   25bbb     H1  617   0.701   3.750   0.392  2.8804  0.2944 -0.0179
   25bbb     H2  618   0.814   3.641   0.470  0.6175  1.4095 -1.3859
   25bbb     C2  619   0.641   3.543   0.374  0.0503  0.5282  0.1064
   25bbb     H3  620   0.633   3.454   0.439  0.8951  0.7927  0.5950
   25bbb     H4  621   0.544   3.574   0.332  0.7312 -0.9861 -2.8242
   25bbb     N1  622   0.643   3.681   0.589  0.0667  0.1840 -0.2691
   25bbb     C3  623   0.566   3.803   0.603 -0.9222 -0.0924 -0.3080
   25bbb     H5  624   0.534   3.841   0.506 -2.7705  1.2948  0.7809
   25bbb     H6  625   0.623   3.886   0.646 -3.3943 -0.0560  3.3827
   25bbb     C4  626   0.731   3.664   0.706 -0.2297 -0.0655  0.3688
   25bbb     H7  627   0.825   3.720   0.695 -0.9273  0.6966 -2.2628
   25bbb     H8  628   0.692   3.714   0.795  0.5499 -0.0845  0.7365
   25bbb     C5  629   0.759   3.516   0.725  0.1996 -0.3385 -0.7609
   25bbb     H9  630   0.664   3.473   0.761  0.0717  1.3389  1.1023
   25bbb    H10  631   0.790   3.465   0.634  0.3004  0.0187 -0.9282
   25bbb     C6  632   0.443   3.785   0.694  0.1595  0.1345  0.3676
   25bbb    H11  633   0.367   3.719   0.652 -0.5138  1.1701 -0.0686
   25bbb    H12  634   0.469   3.740   0.791  1.2232  0.2193  0.1389
   25bbb     C7  635   0.872   3.510   0.821 -0.6620  0.0697  0.7879
   25bbb     C8  636   0.381   3.923   0.714 -0.0798 -0.3539 -0.2986
   25bbb     O1  637   0.858   3.531   0.938  0.0513  0.4602 -0.5409
   25bbb     O2  638   0.326   3.990   0.625  0.2256  0.3808  0.4650
   25bbb     N4  639   0.732   3.501   0.261  0.8619  0.3685  0.7968
   25bbb    H21  640   0.814   3.557   0.241 -0.1330  1.3850 -0.5942
   26bbb     C1  641   2.464   2.927   1.632 -0.2425 -0.1161  0.7671
   26bbb     H1  642   2.427   2.886   1.727 -0.1141 -1.5496  0.2177
   26bbb     H2  643   2.394   2.918   1.548  2.2830  2.4535 -1.8679
   26bbb     C2  644   2.587   2.834   1.594  0.1178 -0.3978  0.5165
   26bbb     H3  645   2.668   2.848   1.667 -1.9000  1.1852  2.5827
   26bbb     H4  646   2.557   2.729   1.592 -2.0195  0.1723 -0.8240
   26bbb     N1  647   2.504   3.072   1.651 -0.1279  0.4247  0.6142
   26bbb     C3  648   2.621   3.097   1.741  0.1708 -0.6382  0.2143
   26bbb     H5  649   2.687   3.010   1.748 -0.1838 -0.9162  0.1497
   26bbb     H6  650   2.594   3.128   1.843  0.3873 -1.9419  0.6849
   26bbb     C4  651   2.394   3.160   1.691 -0.0201 -0.0508  0.0271
   26bbb     H7  652   2.344   3.115   1.778 -0.2490 -0.5886 -0.3692
   26bbb     H8  653   2.433   3.260   1.711  2.0159 -0.9170  0.6744
   26bbb     C5  654   2.301   3.170   1.574  0.4211 -0.5626  0.1879
   26bbb     H9  655   2.358   3.173   1.480 -2.5236 -0.4772 -1.7359
   26bbb    H10  656   2.246   3.075   1.566  0.8659 -1.0511  2.3781
   26bbb     C6  657   2.702   3.212   1.677 -0.0093 -0.5817  0.4821
   26bbb    H11  658   2.736   3.185   1.576 -1.1204 -0.4219  0.0519
   26bbb    H12  659   2.644   3.305   1.686 -2.4657 -2.0326  0.4911
   26bbb     C7  660   2.206   3.286   1.574  0.0518 -0.2892 -0.2303
   26bbb     C8  661   2.817   3.226   1.767  0.2690 -0.3162  0.2121
   26bbb     O1  662   2.088   3.283   1.608 -0.0739  0.5440 -0.2051
   26bbb     O2  663   2.809   3.232   1.885 -0.3850 -0.1451 -0.0396
   26bbb     N4  664   2.645   2.866   1.455 -0.6162  0.3945 -1.0361
   26bbb    H21  665   2.633   2.961   1.421  0.0379  0.1982 -1.8527
   27bbb     C1  666   3.024   2.269   0.638 -0.5063  0.2580  0.4352
   27bbb     H1  667   3.017   2.162   0.616  1.8951  0.2262 -0.4869
   27bbb     H2  668   3.131   2.293   0.637 -0.3964 -0.1996  0.7770
   27bbb     C2  669   2.974   2.291   0.786 -0.4952  0.0655  0.4451
   27bbb     H3  670   2.891   2.219   0.796 -1.2323  0.2813 -2.8868
   27bbb     H4  671   3.063   2.259   0.842  1.6561  1.1660 -2.1128
   27bbb     N1  672   2.952   2.352   0.542  0.1947 -0.1842 -0.0176
   27bbb     C3  673   2.861   2.268   0.460 -0.0747  0.2020 -0.2989
   27bbb     H5  674   2.904   2.172   0.430 -1.4172 -0.4193 -0.3296
   27bbb     H6  675   2.829   2.319   0.367 -0.4727 -0.6979 -0.6635
   27bbb     C4  676   3.038   2.423   0.455 -0.1949 -0.1252  0.0224
   27bbb     H7  677   3.109   2.348   0.418  0.8766  1.7055 -1.8444
   27bbb     H8  678   2.983   2.471   0.373  0.5650 -1.0234 -1.0442
   27bbb     C5  679   3.113   2.531   0.532 -0.3726  0.6812  0.4127
   27bbb     H9  680   3.045   2.607   0.572  0.1826  2.0565 -1.1747
   27bbb    H10  681   3.167   2.481   0.613  0.8061 -0.3499 -0.9571
   27bbb     C6  682   2.728   2.244   0.535 -0.1941 -0.1490  0.1282
   27bbb    H11  683   2.735   2.211   0.640 -0.0639  0.7757  0.4153
   27bbb    H12  684   2.659   2.329   0.532 -0.1817 -0.0783  1.3423
   27bbb     C7  685   3.214   2.605   0.453 -0.1076 -0.6505  0.3656
   27bbb     C8  686   2.651   2.128   0.462 -0.9753 -0.4742 -0.2807
   27bbb     O1  687   3.189   2.683   0.368 -0.2232  0.3509 -0.9000
   27bbb     O2  688   2.586   2.145   0.359  0.0564 -0.0872 -0.0380
   27bbb     N4  689   2.936   2.427   0.825  0.0885  0.6934 -0.7862
   27bbb    H21  690   2.844   2.461   0.799  0.2452  1.8971  0.1860
   28bbb     C1  691   3.185   3.154   0.493 -0.2496 -0.1458  0.0855
   28bbb     H1  692   3.242   3.237   0.536 -3.4652  1.3086  1.8469
   28bbb     H2  693   3.243   3.065   0.465 -1.6520 -0.8186 -0.8218
   28bbb     C2  694   3.113   3.198   0.366 -0.4509 -0.3827 -0.3960
   28bbb     H3  695   3.188   3.220   0.290 -1.0655 -0.3248 -0.9965
   28bbb     H4  696   3.054   3.115   0.325 -0.6631  0.9061 -2.8736
   28bbb     N1  697   3.098   3.120   0.602  0.0179 -0.3430 -0.9466
   28bbb     C3  698   2.978   3.036   0.572 -0.7904 -0.6488 -0.2926
   28bbb     H5  699   2.916   3.078   0.492 -1.0957 -3.1388 -1.4594
   28bbb     H6  700   2.914   3.027   0.661  0.7957 -0.2891  0.9314
   28bbb     C4  701   3.065   3.232   0.697  0.2168  0.5255  0.7802
   28bbb     H7  702   3.099   3.327   0.654  0.6986 -0.9546 -2.3776
   28bbb     H8  703   2.957   3.240   0.719  0.1668 -0.1076  0.7855
   28bbb     C5  704   3.117   3.194   0.831  0.0975  0.0581 -0.4139
   28bbb     H9  705   3.062   3.117   0.887 -0.0976  0.1481 -0.4808
   28bbb    H10  706   3.221   3.158   0.826 -0.4935 -2.3108  1.8665
   28bbb     C6  707   3.018   2.897   0.526 -0.5669 -0.6281 -0.6800
   28bbb    H11  708   3.091   2.903   0.444 -0.1158  1.1142 -0.2080
   28bbb    H12  709   3.047   2.840   0.615 -1.6193  1.0490  0.8113
   28bbb     C7  710   3.110   3.311   0.921  0.0268 -0.7943  0.2284
   28bbb     C8  711   2.896   2.831   0.478  0.0711  0.0049 -0.1573
   28bbb     O1  712   3.010   3.370   0.962 -0.4143  0.5008 -0.2532
   28bbb     O2  713   2.806   2.799   0.552 -0.0817 -0.3342 -0.2450
   28bbb     N4  714   3.018   3.312   0.373 -0.4368 -0.0142  0.0438
   28bbb    H21  715   2.922   3.294   0.345 -0.1941 -0.9031 -0.2783
   29bbb     C1  716   2.503   4.146   0.537  0.1158  0.3644 -0.1345
   29bbb     H1  717   2.486   4.140   0.646  4.2842 -0.9608  0.6058
   29bbb     H2  718   2.463   4.053   0.497  1.4269 -0.1440 -0.3124
   29bbb     C2  719   2.652   4.155   0.512 -0.1386 -0.0667 -0.2607
   29bbb     H3  720   2.673   4.236   0.440 -2.6458  0.0231 -1.0082
   29bbb     H4  721   2.696   4.183   0.608  0.6130 -0.0376 -0.6005
   29bbb     N1  722   2.420   4.253   0.476  0.3742 -0.1577  0.2400
   29bbb     C3  723   2.283   4.232   0.534 -0.8574  0.2111 -0.4892
   29bbb     H5  724   2.294   4.228   0.643  0.8638  0.7392 -0.6186
   29bbb     H6  725   2.242   4.137   0.497  1.1006 -1.2437  0.8865
   29bbb     C4  726   2.419   4.263   0.329  0.1931  0.2993 -0.0535
   29bbb     H7  727   2.363   4.354   0.303  0.6043 -0.0799 -2.5608
   29bbb     H8  728   2.523   4.263   0.295  1.3390 -0.5044  3.1275
   29bbb     C5  729   2.351   4.152   0.253  0.3277  0.6150 -0.0165
   29bbb     H9  730   2.393   4.059   0.294  0.7495  0.7977 -0.0302
   29bbb    H10  731   2.241   4.153   0.255  0.3372  1.1828  0.4358
   29bbb     C6  732   2.193   4.349   0.511  0.4992 -0.1666 -0.1370
   29bbb    H11  733   2.246   4.437   0.547 -1.5534  1.1321 -0.1402
   29bbb    H12  734   2.171   4.368   0.405 -0.8269 -2.0304 -0.2590
   29bbb     C7  735   2.374   4.160   0.105 -0.0839  0.1968  0.7474
   29bbb     C8  736   2.059   4.338   0.567  0.0279 -0.2345 -0.3244
   29bbb     O1  737   2.394   4.267   0.046  0.1599 -0.2913  0.8383
   29bbb     O2  738   2.003   4.237   0.606  0.1420  0.3461 -0.2711
   29bbb     N4  739   2.718   4.029   0.461  0.5681 -0.3404  0.6149
   29bbb    H21  740   2.755   3.968   0.533 -1.5852  0.3773  2.4520
   30ccc     C1  741   0.800   3.129   1.974 -0.0971  0.7493  0.8856
   30ccc     H1  742   0.871   3.061   2.022  0.7716  0.9950 -0.0098
   30ccc     H2  743   0.774   3.213   2.039 -2.8455  1.5523 -1.0408
   30ccc     C2  744   0.667   3.060   1.936  0.5713  0.6713 -0.1550
   30ccc     H3  745   0.617   3.019   2.025 -1.0953  0.3390 -1.1863
   30ccc     H4  746   0.594   3.117   1.878  0.7587  1.9082  0.7829
   30ccc     N1  747   0.699   2.946   1.846  0.2236 -0.3308  0.3465
   30ccc     H5  748   0.609   2.928   1.801  0.0693  0.7663  0.2000
   30ccc     H6  749   0.752   2.984   1.768 -0.5837  1.2616  0.5424
   30ccc     N2  750   0.863   3.182   1.849  0.0860 -0.9335  0.5783
   30ccc     H7  751   0.816   3.209   1.763  1.7153  0.6117  0.1186
   31ccc     C1  752   0.743   4.092   1.554  0.7113  0.1173 -0.2496
   31ccc     H1  753   0.784   4.143   1.642 -0.5536  0.1965  0.3018
   31ccc     H2  754   0.768   4.162   1.473  1.6070 -0.3891 -0.4259
   31ccc     C2  755   0.592   4.075   1.577  0.0348 -0.8078 -0.5289
   31ccc     H3  756   0.573   4.005   1.660  0.6827  0.1371  0.4515
   31ccc     H4  757   0.568   4.173   1.621  0.6350 -0.7612 -0.2852
   31ccc     N1  758   0.528   4.044   1.449 -0.3145  0.1808 -0.1209
   31ccc     H5  759   0.433   4.037   1.487 -0.4042 -0.8028 -0.5086
   31ccc     H6  760   0.562   3.950   1.429  1.5594  0.0826  2.9536
   31ccc     N2  761   0.820   3.963   1.528 -0.1175  0.0775 -0.4763
   31ccc     H7  762   0.790   3.898   1.457 -1.1833  0.0371 -0.0060
   32ccc     C1  763   2.329   4.046   1.197  0.2054 -0.7004 -0.0206
   32ccc     H1  764   2.341   4.153   1.174  0.5578 -0.4978  1.0633
   32ccc     H2  765   2.270   4.045   1.289 -0.8823  1.0064 -0.6297
   32ccc     C2  766   2.466   3.981   1.223  0.6809  0.1728  0.2635
   32ccc     H3  767   2.523   3.983   1.129  0.1640  0.6677 -0.0483
   32ccc     H4  768   2.516   4.045   1.296  0.8022 -0.7774  1.0381
   32ccc     N1  769   2.458   3.838   1.259  0.2209  0.3866  0.3735
   32ccc     H5  770   2.371   3.821   1.209  0.1130  0.3016  0.5875
   32ccc     H6  771   2.517   3.785   1.196 -0.6142  0.4736 -0.5073
   32ccc     N2  772   2.253   3.980   1.095 -0.3886 -0.1883 -0.3744
   32ccc     H7  773   2.184   3.910   1.120  0.4451 -0.4978  1.1912
   33ccc     C1  774   2.180   3.649   0.110 -0.1439 -0.4364 -0.6134
   33ccc     H1  775   2.125   3.741   0.085  0.4856  0.2328  0.4204
   33ccc     H2  776   2.275   3.651   0.055 -0.5408 -1.0478 -1.3447
   33ccc     C2  777   2.085   3.539   0.043  0.4088  0.3433  0.4459
   33ccc     H3  778   1.981   3.572   0.056 -0.3668 -2.2109  1.1684
   33ccc     H4  779   2.103   3.546  -0.065 -1.2248  0.1156  0.1319
   33ccc     N1  780   2.112   3.402   0.084 -0.4351 -0.2996  0.3201
   33ccc     H5  781   2.212   3.383   0.084 -0.7938 -3.4178 -3.4380
   33ccc     H6  782   2.095   3.397   0.184  0.9810  1.2511  0.6793
   33ccc     N2  783   2.197   3.642   0.254 -0.2148  0.3476  0.4352
   33ccc     H7  784   2.139   3.573   0.300 -0.7381  1.0441  0.8531
   34ccc     C1  785   0.336   2.213   0.368  0.1048 -0.0056  0.5320
   34ccc     H1  786   0.255   2.271   0.322  0.6304  1.5354  1.4620
   34ccc     H2  787   0.354   2.120   0.312 -0.6056  0.3248 -0.2693
   34ccc     C2  788   0.284   2.176   0.506  0.1132 -0.2066  0.3675
   34ccc     H3  789   0.190   2.120   0.507 -0.8589  1.3623  0.0466
   34ccc     H4  790   0.355   2.121   0.569 -0.1891 -0.2710  0.6543
   34ccc     N1  791   0.271   2.296   0.589 -0.3807 -0.1396 -0.5944
   34ccc     H5  792   0.368   2.328   0.591 -0.0978 -0.8989  1.4994
   34ccc     H6  793   0.237   2.368   0.526  0.3874  1.0565  0.3192
   34ccc     N2  794   0.460   2.294   0.367 -0.1549 -0.2851 -0.1828
   34ccc     H7  795   0.445   2.393   0.377  0.7094  0.0730 -2.0261
   35ccc     C1  796   0.706   2.725  -0.076  0.7372 -0.8732  0.5921
   35ccc     H1  797   0.696   2.821  -0.023  0.2675  0.3492 -1.5626
   35ccc     H2  798   0.781   2.756  -0.150  0.3944 -0.7781  0.2794
   35ccc     C2  799   0.571   2.690  -0.155  0.3789  0.3566  0.0725
   35ccc     H3  800   0.497   2.652  -0.083 -1.8349  1.6901 -1.3698
   35ccc     H4  801   0.529   2.776  -0.209 -0.7216 -0.0321  0.2886
   35ccc     N1  802   0.606   2.580  -0.245 -0.2334  0.4953  0.1356
   35ccc     H5  803   0.600   2.500  -0.183  0.3627  0.9274  0.7604
   35ccc     H6  804   0.517   2.575  -0.295  0.4941  2.9527 -1.5951
   35ccc     N2  805   0.748   2.629   0.019 -0.1823 -0.1768  0.4792
   35ccc     H7  806   0.713   2.534   0.009  1.2937 -0.6182 -0.9160
   36ccc     C1  807   1.657   3.196   1.406  0.0864  0.5626  0.4031
   36ccc     H1  808   1.694   3.123   1.334  0.6112  0.8545  0.3720
   36ccc     H2  809   1.652   3.295   1.358  0.2873 -0.4320 -1.7795
   36ccc     C2  810   1.768   3.199   1.512 -0.5897 -0.1303 -0.0907
   36ccc     H3  811   1.786   3.100   1.557  1.6225 -1.4951 -3.5525
   36ccc     H4  812   1.864   3.229   1.467  0.2600  0.1623  1.8278
   36ccc     N1  813   1.723   3.287   1.623  0.1148 -0.3153  0.3349
   36ccc     H5  814   1.690   3.368   1.572 -1.0810 -2.0298 -1.7928
   36ccc     H6  815   1.645   3.236   1.665  2.8671 -5.2790  0.2119
   36ccc     N2  816   1.525   3.151   1.459  0.4501 -1.0141  0.1415
   36ccc     H7  817   1.518   3.136   1.559  1.6738 -1.2231  0.2046
   37ccc     C1  818   1.045   2.826   2.186 -0.6679 -0.1768  0.1911
   37ccc     H1  819   1.068   2.723   2.218  0.1187 -0.7360 -1.9660
   37ccc     H2  820   1.127   2.890   2.220 -0.2163 -0.7090  0.1346
   37ccc     C2  821   0.918   2.870   2.262 -0.0992  0.0512  0.5107
   37ccc     H3  822   0.917   2.832   2.365  0.0711  0.7713  0.7871
   37ccc     H4  823   0.927   2.979   2.270  2.4878  0.0310 -1.0087
   37ccc     N1  824   0.795   2.822   2.196  0.0588 -0.4706  0.2272
   37ccc     H5  825   0.795   2.721   2.192  0.0084 -0.5631  1.8428
   37ccc     H6  826   0.730   2.845   2.271  1.3808  1.6919  0.8232
   37ccc     N2  827   1.039   2.824   2.035  0.4907  0.4075 -0.4870
   37ccc     H7  828   0.957   2.788   1.988 -2.0603  2.8598  1.7474
   38ccc     C1  829   1.945   1.430  -0.017 -0.4898 -0.0715 -0.4108
   38ccc     H1  830   1.996   1.505  -0.078  1.4892 -2.9917 -2.5983
   38ccc     H2  831   2.015   1.364   0.035 -1.4331 -0.6489  0.1498
   38ccc     C2  832   1.863   1.353  -0.117 -0.6484 -0.5088 -0.7173
   38ccc     H3  833   1.798   1.425  -0.169  0.0435  1.4431  0.9918
   38ccc     H4  834   1.925   1.297  -0.188  0.0008  1.7417 -2.0279
   38ccc     N1  835   1.770   1.263  -0.054 -0.1779  0.4552 -0.4914
   38ccc     H5  836   1.711   1.326  -0.000 -2.7395 -1.7188 -0.5437
   38ccc     H6  837   1.698   1.227  -0.116 -0.5247 -1.6378  1.0007
   38ccc     N2  838   1.870   1.500   0.082 -0.3924  0.9487  0.1251
   38ccc     H7  839   1.776   1.527   0.056 -1.0312 -1.8993 -0.9072
   39ccc     C1  840   1.173   1.641   0.278  0.2635  0.2112  0.2867
   39ccc     H1  841   1.132   1.539   0.286  1.5081 -0.1992  2.1058
   39ccc     H2  842   1.102   1.697   0.340  0.8424  0.0492  1.1141
   39ccc     C2  843   1.171   1.678   0.126 -0.2408  0.0028 -0.5308
   39ccc     H3  844   1.072   1.681   0.080 -1.2105 -2.2908  1.2140
   39ccc     H4  845   1.204   1.782   0.125  0.8638 -0.3309 -0.7473
   39ccc     N1  846   1.269   1.598   0.042  0.8054  0.1885  0.1499
   39ccc     H5  847   1.255   1.497   0.044  4.1469 -0.4927 -2.1879
   39ccc     H6  848   1.230   1.623  -0.048 -1.5152 -0.2006  0.9603
   39ccc     N2  849   1.311   1.651   0.343  0.7465  0.6493  0.3341
   39ccc     H7  850   1.390   1.682   0.289  0.1780 -1.4646 -1.8688
   40ccc     C1  851   2.299   2.272  -0.120 -0.1906 -0.5584 -0.0326
   40ccc     H1  852   2.358   2.352  -0.075 -2.3342  0.9258  0.3122
   40ccc     H2  853   2.346   2.174  -0.105  0.3322 -0.0182  2.3354
   40ccc     C2  854   2.289   2.309  -0.273 -0.3094 -0.4485 -0.1498
   40ccc     H3  855   2.237   2.404  -0.286 -2.7832 -1.4821  1.4345
   40ccc     H4  856   2.387   2.324  -0.320 -1.3797 -0.7857 -2.6488
   40ccc     N1  857   2.208   2.210  -0.348 -0.4069 -0.3020  0.1828
   40ccc     H5  858   2.112   2.226  -0.316 -0.3041  0.8901 -0.0685
   40ccc     H6  859   2.212   2.262  -0.436  0.4531  3.1516  2.0887
   40ccc     N2  860   2.167   2.270  -0.050  0.9741 -0.4924  0.3791
   40ccc     H7  861   2.086   2.303  -0.101  0.4668 -2.9027 -0.5233
   41ccc     C1  862   2.224   3.037   0.016 -0.0237 -0.4287  0.4995
   41ccc     H1  863   2.194   3.105   0.096 -0.3243 -0.0460  0.0715
   41ccc     H2  864   2.332   3.021   0.025 -0.0952 -0.6248  1.0423
   41ccc     C2  865   2.212   3.111  -0.120 -0.5675 -0.8291  0.0713
   41ccc     H3  866   2.280   3.197  -0.113 -0.7170 -0.8051  1.5000
   41ccc     H4  867   2.253   3.043  -0.196 -1.3032  1.5496 -2.6160
   41ccc     N1  868   2.076   3.139  -0.155  0.0029  0.1686 -0.0487
   41ccc     H5  869   2.079   3.174  -0.251  0.5795 -0.5857 -0.3125
   41ccc     H6  870   2.048   3.043  -0.169  0.1745 -0.3464  2.7170
   41ccc     N2  871   2.146   2.905   0.018 -0.2210 -0.4438 -0.9078
   41ccc     H7  872   2.195   2.826  -0.022 -1.9857 -3.9246  3.0390
   42ccc     C1  873   1.124   2.816   0.544 -0.3415  0.0988  0.3527
   42ccc     H1  874   1.104   2.746   0.462  1.3062 -0.9127  0.7676
   42ccc     H2  875   1.034   2.858   0.592 -0.3109  1.3144 -0.5939
   42ccc     C2  876   1.195   2.944   0.496  0.0524 -0.1200  0.0987
   42ccc     H3  877   1.285   2.920   0.438 -1.1454 -0.0319 -1.8759
   42ccc     H4  878   1.123   2.998   0.434 -0.8560 -2.1925 -0.7448
   42ccc     N1  879   1.246   3.016   0.615  0.1137  0.7245 -0.6306
   42ccc     H5  880   1.166   3.041   0.673  0.2586  1.9366 -0.9324
   42ccc     H6  881   1.279   2.936   0.670  2.7210  2.3925  0.4630
   42ccc     N2  882   1.205   2.729   0.634  0.6156 -0.2280 -0.6841
   42ccc     H7  883   1.170   2.727   0.729  0.2111  2.0083 -0.7343
   43ccc     C1  884   1.224   1.758   0.788 -0.6745 -0.1235 -0.3567
   43ccc     H1  885   1.139   1.730   0.724 -1.1537  0.0421  0.1969
   43ccc     H2  886   1.316   1.717   0.745 -1.6554 -2.4067 -0.4335
   43ccc     C2  887   1.201   1.707   0.937 -0.3238  0.1684 -0.7658
   43ccc     H3  888   1.102   1.747   0.959  0.3563  1.2829  0.3988
   43ccc     H4  889   1.194   1.598   0.948  1.4458  0.0240 -0.7832
   43ccc     N1  890   1.297   1.743   1.037 -0.0615  0.1195 -0.1230
   43ccc     H5  891   1.387   1.727   0.992 -0.8279 -0.6205 -1.4747
   43ccc     H6  892   1.282   1.843   1.027 -1.3113 -0.1574 -1.4622
   43ccc     N2  893   1.252   1.905   0.783  0.2976 -0.0090  0.3950
   43ccc     H7  894   1.188   1.975   0.818 -0.5549 -0.3519 -0.4360
   44ccc     C1  895   0.867   2.511   1.753  0.0092  0.3576  0.0921
   44ccc     H1  896   0.831   2.482   1.653  2.8655  0.8717 -1.1991
   44ccc     H2  897   0.838   2.433   1.825 -1.4541  1.8927  1.2398
   44ccc     C2  898   0.811   2.651   1.799  0.2168 -0.1513  0.4071
   44ccc     H3  899   0.858   2.736   1.748 -0.2764 -0.9063 -1.3870
   44ccc     H4  900   0.706   2.652   1.767 -0.0060 -1.7809  0.9721
   44ccc     N1  901   0.823   2.654   1.943  0.4140 -0.2662 -0.0091
   44ccc     H5  902   0.766   2.575   1.976 -0.3963 -0.2935 -1.3909
   44ccc     H6  903   0.916   2.615   1.960  1.4016  1.6988 -0.6845
   44ccc     N2  904   1.016   2.506   1.737  0.0263 -0.0938 -0.0089
   44ccc     H7  905   1.052   2.511   1.643 -0.9903 -1.4870 -0.5142
   45ccc     C1  906   1.685   3.069   1.967  0.0350 -0.7212  0.6626
   45ccc     H1  907   1.658   3.132   1.881  0.8123 -0.8664  0.3002
   45ccc     H2  908   1.624   3.086   2.057 -2.1578 -1.0620 -0.6973
   45ccc     C2  909   1.821   3.124   1.994  0.3800  0.0759  0.0182
   45ccc     H3  910   1.812   3.229   2.023 -2.0650 -0.7127  2.4871
   45ccc     H4  911   1.869   3.075   2.079 -1.9517  0.6366  1.7331
   45ccc     N1  912   1.913   3.128   1.878  0.7557 -0.3822  1.1283
   45ccc     H5  913   2.010   3.128   1.911  1.4915 -0.1592 -0.9047
   45ccc     H6  914   1.901   3.029   1.858  0.3456 -0.4229  1.5466
   45ccc     N2  915   1.679   2.932   1.927  0.7688  0.3465  0.3326
   45ccc     H7  916   1.684   2.855   1.993  1.4620 -1.4947 -1.7364
   46ccc     C1  917   0.330   2.412   0.895  0.7055 -0.2108 -0.1436
   46ccc     H1  918   0.376   2.508   0.922  1.0722 -0.6805  0.9692
   46ccc     H2  919   0.316   2.422   0.787  2.0065 -1.0615 -0.4211
   46ccc     C2  920   0.183   2.410   0.960 -0.4095  0.0622  0.0295
   46ccc     H3  921   0.189   2.411   1.069 -1.7784  0.9725  0.1222
   46ccc     H4  922   0.125   2.501   0.940 -2.7822 -1.0112  1.5365
   46ccc     N1  923   0.105   2.298   0.921 -0.2766 -0.3118 -0.3136
   46ccc     H5  924   0.119   2.237   1.001  2.3839 -0.6902 -0.9654
   46ccc     H6  925   0.013   2.339   0.936  0.8723  1.4225  2.6686
   46ccc     N2  926   0.408   2.293   0.919 -0.4179 -0.0744 -0.6183
   46ccc     H7  927   0.384   2.223   0.988 -2.3356  0.1963 -0.9482
   47ccc     C1  928   1.126   1.935   1.408  0.1448 -0.1332  0.7687
   47ccc     H1  929   1.114   2.041   1.432 -0.7164 -0.1141  0.2991
   47ccc     H2  930   1.059   1.868   1.464  1.1378 -2.5487 -0.7671
   47ccc     C2  931   1.267   1.884   1.430 -0.0848  0.3959  0.0905
   47ccc     H3  932   1.323   1.944   1.358  2.4491 -1.1282  0.6557
   47ccc     H4  933   1.305   1.919   1.527 -0.9520  2.8700 -0.3969
   47ccc     N1  934   1.292   1.743   1.407  0.6952  0.0616 -0.6005
   47ccc     H5  935   1.260   1.714   1.499 -1.9453  2.3448 -0.6694
   47ccc     H6  936   1.392   1.741   1.427  0.3842 -4.2922  2.0275
   47ccc     N2  937   1.087   1.918   1.265  0.0490 -0.0998 -0.6378
   47ccc     H7  938   1.162   1.912   1.198  0.4005 -0.7765 -0.1961
   48ccc     C1  939   1.921   1.944  -0.386  0.6864 -0.0473 -1.2026
   48ccc     H1  940   1.819   1.983  -0.398  0.8618  1.1563  0.8720
   48ccc     H2  941   1.968   2.042  -0.370  1.3037 -0.4059 -0.7892
   48ccc     C2  942   1.981   1.883  -0.512  0.2679 -0.5031 -1.1192
   48ccc     H3  943   1.950   1.780  -0.534  1.8469 -1.4157  0.6951
   48ccc     H4  944   1.961   1.945  -0.601 -2.2525 -0.9226 -0.9076
   48ccc     N1  945   2.128   1.883  -0.492  0.0827 -0.4045  0.0239
   48ccc     H5  946   2.152   1.796  -0.443 -0.8633 -1.2981 -1.0327
   48ccc     H6  947   2.157   1.868  -0.589  2.9861  3.0238  0.1703
   48ccc     N2  948   1.935   1.866  -0.257  0.0702 -0.5299 -0.3730
   48ccc     H7  949   1.852   1.821  -0.220  1.0136 -1.2016  1.0476
   49ccc     C1  950   2.392   1.547   0.524 -0.0219  0.1157  0.1425
   49ccc     H1  951   2.475   1.619   0.528  1.3693 -1.3788 -0.6261
   49ccc     H2  952   2.378   1.512   0.627 -0.4761 -2.5915 -0.7604
   49ccc     C2  953   2.440   1.419   0.460 -0.0199  0.0033  0.4391
   49ccc     H3  954   2.521   1.378   0.522  0.3274 -0.3280 -0.2255
   49ccc     H4  955   2.361   1.343   0.451  0.2206 -0.2928  0.8081
   49ccc     N1  956   2.481   1.451   0.325 -0.2511 -0.2242  0.1091
   49ccc     H5  957   2.517   1.364   0.285 -0.3041  0.4113 -1.4094
   49ccc     H6  958   2.400   1.462   0.263  1.0058 -0.5284 -1.6749
   49ccc     N2  959   2.278   1.613   0.462 -0.2264  0.0916 -0.0800
   49ccc     H7  960   2.232   1.569   0.384  0.8095 -2.1358  0.4977
   50ccc     C1  961   0.917   2.369  -0.614  0.8395  0.3870  0.0668
   50ccc     H1  962   0.979   2.292  -0.660  1.2534 -0.1895  1.5261
   50ccc     H2  963   0.960   2.386  -0.514  0.6136 -1.0479  0.4188
   50ccc     C2  964   0.777   2.303  -0.578 -0.4999  0.0770  0.5184
   50ccc     H3  965   0.733   2.262  -0.670 -2.0296  3.6866 -0.5642
   50ccc     H4  966   0.781   2.224  -0.503  1.0728 -0.0015  0.3776
   50ccc     N1  967   0.687   2.411  -0.529 -0.4659  0.5926 -0.1938
   50ccc     H5  968   0.683   2.469  -0.612 -1.1240  0.0106 -0.5765
   50ccc     H6  969   0.595   2.367  -0.531  1.1095 -3.1865  1.0058
   50ccc     N2  970   0.904   2.492  -0.683 -0.0944 -0.2321  0.0218
   50ccc     H7  971   0.838   2.491  -0.760  0.9429 -2.2850 -0.9218
   51ccc     C1  972   1.143   2.700  -0.240 -0.1257 -0.2060  0.2391
   51ccc     H1  973   1.241   2.668  -0.204 -0.3156 -0.4756  0.5250
   51ccc     H2  974   1.099   2.760  -0.159 -0.1278  3.1128 -2.0255
   51ccc     C2  975   1.042   2.580  -0.260 -0.2323 -0.1757 -0.9770
   51ccc     H3  976   1.097   2.494  -0.299  2.9498  0.8689  0.8393
   51ccc     H4  977   0.994   2.549  -0.166 -2.4103 -0.8444 -2.2458
   51ccc     N1  978   0.927   2.626  -0.341 -0.5896  0.3132  0.5058
   51ccc     H5  979   0.895   2.718  -0.311 -2.1735 -0.4843  1.4045
   51ccc     H6  980   0.982   2.650  -0.423 -0.8237  0.5597  0.4162
   51ccc     N2  981   1.157   2.792  -0.357 -0.0460  0.1467  0.6717
   51ccc     H7  982   1.228   2.765  -0.423 -0.4422 -4.6146  1.8036
   52ccc     C1  983   1.126   3.466   0.830  0.0739 -0.1095 -0.0769
   52ccc     H1  984   1.137   3.566   0.875  0.2969  0.1611 -0.7197
   52ccc     H2  985   1.131   3.389   0.908  2.4329 -0.3455 -0.3985
   52ccc     C2  986   1.232   3.437   0.728 -0.6077 -0.2166 -0.2624
   52ccc     H3  987   1.232   3.506   0.644  1.1283  0.3209  0.1447
   52ccc     H4  988   1.330   3.441   0.777 -1.1822  0.8894  0.8578
   52ccc     N1  989   1.208   3.307   0.668  0.0169 -0.2876  0.3988
   52ccc     H5  990   1.172   3.250   0.744 -2.2651  1.5190  0.8118
   52ccc     H6  991   1.117   3.320   0.623  0.1258 -0.9243 -0.0094
   52ccc     N2  992   0.991   3.468   0.766  0.3435 -0.1455  0.0879
   52ccc     H7  993   0.982   3.434   0.671  0.6037  0.1131 -0.0334
   53ccc     C1  994   0.333   4.087   0.899  0.0453  0.4636  0.6083
   53ccc     H1  995   0.322   4.163   0.820 -0.7555 -0.4027 -0.1381
   53ccc     H2  996   0.231   4.086   0.940 -0.2727  1.1786 -0.1273
   53ccc     C2  997   0.418   4.144   1.018  0.5992 -0.4251  0.7578
   53ccc     H3  998   0.520   4.164   0.981 -0.0254 -0.2896 -0.9908
   53ccc     H4  999   0.381   4.241   1.053  2.2726  0.2704  0.7087
   53ccc     N1 1000   0.428   4.054   1.132 -0.3332 -0.1854  0.2316
   53ccc     H5 1001   0.333   4.023   1.150 -0.1353 -0.7811  0.2821
   53ccc     H6 1002   0.461   3.965   1.095 -3.1156 -0.2573 -2.5315
   53ccc     N2 1003   0.388   3.957   0.848 -0.6739 -0.4717  0.2200
   53ccc     H7 1004   0.446   3.901   0.908  0.8129 -0.1203 -0.8158
   54ccc     C1 1005   2.172   3.513   1.494 -0.7661 -0.3083  0.3904
   54ccc     H1 1006   2.104   3.481   1.414 -0.0293 -0.1581 -0.3074
   54ccc     H2 1007   2.107   3.531   1.580 -2.1453  1.6706 -0.9788
   54ccc     C2 1008   2.242   3.644   1.455 -0.2218 -0.1955  0.6536
   54ccc     H3 1009   2.297   3.637   1.360 -1.5699  2.0580 -0.3726
   54ccc     H4 1010   2.162   3.719   1.459  0.4920  0.5647  1.1774
   54ccc     N1 1011   2.343   3.684   1.554 -0.0512 -0.5338  0.8222
   54ccc     H5 1012   2.307   3.708   1.646  1.9008 -1.7252  1.9626
   54ccc     H6 1013   2.391   3.597   1.576 -1.3230 -2.3029 -2.5836
   54ccc     N2 1014   2.260   3.397   1.523 -0.2959 -0.5401  0.1396
   54ccc     H7 1015   2.354   3.388   1.485  0.0466  1.8052  0.3133
   55ccc     C1 1016   3.066   3.263   1.787  0.1974  0.0481 -0.2686
   55ccc     H1 1017   3.035   3.334   1.865 -3.1785  0.8332 -2.1325
   55ccc     H2 1018   3.104   3.170   1.832 -2.1536 -0.7951  0.1617
   55ccc     C2 1019   3.180   3.333   1.709 -0.0452  0.3695 -0.6378
   55ccc     H3 1020   3.145   3.433   1.681 -1.0572 -0.3509 -2.0827
   55ccc     H4 1021   3.270   3.344   1.771  0.1873  1.9626 -1.2138
   55ccc     N1 1022   3.219   3.257   1.591  0.0427 -0.3606  0.8719
   55ccc     H5 1023   3.244   3.165   1.627  2.5301 -0.9384 -1.8900
   55ccc     H6 1024   3.130   3.225   1.553 -1.1207 -2.2484  4.7199
   55ccc     N2 1025   2.942   3.237   1.706  0.2591  0.5366 -0.6371
   55ccc     H7 1026   2.945   3.235   1.604 -0.0257 -1.7683 -0.6448
   56ccc     C1 1027   3.463   2.605   0.398  0.4265  0.7382 -1.1687
   56ccc     H1 1028   3.474   2.533   0.317 -2.4986  0.7420 -1.6821
   56ccc     H2 1029   3.433   2.703   0.359 -0.0036  1.4688  0.8433
   56ccc     C2 1030   3.595   2.601   0.476  0.0489  0.0407  0.2323
   56ccc     H3 1031   3.632   2.500   0.492  1.6600  0.3773 -1.0270
   56ccc     H4 1032   3.669   2.654   0.413 -3.2112  3.8979 -0.8189
   56ccc     N1 1033   3.590   2.679   0.600  0.1598  0.5054  0.1220
   56ccc     H5 1034   3.559   2.774   0.578  3.5036  2.0997  1.5501
   56ccc     H6 1035   3.501   2.648   0.638  0.2068  0.5313  0.2539
   56ccc     N2 1036   3.343   2.566   0.483 -0.5458  0.2038 -0.4330
   56ccc     H7 1037   3.359   2.503   0.560  4.6217 -0.2605 -1.5725
   57ccc     C1 1038   2.560   1.902   0.485 -0.1410  0.1457 -0.1770
   57ccc     H1 1039   2.545   1.831   0.568  2.1849  0.3222  0.4744
   57ccc     H2 1040   2.461   1.949   0.472  1.0616  2.2580 -2.5906
   57ccc     C2 1041   2.572   1.818   0.355 -0.1710 -0.9706 -0.3250
   57ccc     H3 1042   2.487   1.749   0.354 -0.8635 -0.1377 -0.5635
   57ccc     H4 1043   2.556   1.890   0.274 -0.6845  1.4742  1.8211
   57ccc     N1 1044   2.696   1.741   0.343  0.4341 -0.4935 -0.3836
   57ccc     H5 1045   2.770   1.807   0.366 -0.4242  0.0012  1.0888
   57ccc     H6 1046   2.707   1.688   0.430 -0.4697  0.9772  0.6676
   57ccc     N2 1047   2.662   2.005   0.518 -0.2849  0.5862 -0.3032
   57ccc     H7 1048   2.704   2.005   0.610 -0.0616 -2.6052 -0.3094
   58ccc     C1 1049   3.260   3.464   1.048 -0.3923  0.0183 -1.1500
   58ccc     H1 1050   3.368   3.487   1.048 -0.7870  2.4196  1.3586
   58ccc     H2 1051   3.208   3.549   1.003 -3.0287 -0.8849  0.0237
   58ccc     C2 1052   3.221   3.458   1.203 -0.3525  0.3357 -0.5602
   58ccc     H3 1053   3.272   3.539   1.257  1.7210 -0.9958 -0.3918
   58ccc     H4 1054   3.112   3.458   1.214 -0.4410 -1.1521 -1.2707
   58ccc     N1 1055   3.291   3.348   1.266  0.1184  0.2692 -0.0452
   58ccc     H5 1056   3.233   3.267   1.244  1.1674 -0.9634  1.4912
   58ccc     H6 1057   3.371   3.331   1.205  0.6417  0.4896  0.5695
   58ccc     N2 1058   3.232   3.347   0.975  0.5924 -0.2053  0.1511
   58ccc     H7 1059   3.313   3.289   0.958  0.2429 -0.5468 -0.3682
   59ccc     C1 1060   2.808   2.682   0.294  0.4198  0.5265 -0.4411
   59ccc     H1 1061   2.823   2.591   0.353  2.2759  0.9792 -0.1627
   59ccc     H2 1062   2.701   2.706   0.298  0.2962 -0.0810 -0.0010
   59ccc     C2 1063   2.834   2.654   0.141 -0.7890  0.9650  0.0233
   59ccc     H3 1064   2.935   2.613   0.134 -1.2532  0.0311 -1.9777
   59ccc     H4 1065   2.771   2.569   0.114  0.8952 -0.9451  1.7708
   59ccc     N1 1066   2.823   2.766   0.045  0.1969 -0.1696 -0.5488
   59ccc     H5 1067   2.896   2.825   0.084 -1.0231  1.1598 -0.1647
   59ccc     H6 1068   2.871   2.740  -0.041  0.7657 -1.8068  0.2248
   59ccc     N2 1069   2.893   2.796   0.345  0.0017 -0.0535 -0.4216
   59ccc     H7 1070   2.978   2.821   0.294  0.1886  2.3767  0.8955
   60ccc     C1 1071   2.406   4.012  -0.093 -0.1089 -0.3182 -0.2698
   60ccc     H1 1072   2.331   3.937  -0.119 -0.7101 -0.0686  0.7081
   60ccc     H2 1073   2.405   4.104  -0.153 -0.6504 -0.6636 -0.8111
   60ccc     C2 1074   2.544   3.945  -0.104  0.1621  0.0428 -0.3210
   60ccc     H3 1075   2.540   3.841  -0.071  0.2064  0.3998  0.8539
   60ccc     H4 1076   2.577   3.946  -0.209  0.8224 -3.2038 -0.2355
   60ccc     N1 1077   2.652   4.012  -0.031 -0.1372 -0.2078 -0.2038
   60ccc     H5 1078   2.648   4.112  -0.053 -1.2350  0.6239  3.2636
   60ccc     H6 1079   2.623   4.008   0.066 -0.9002 -3.2537 -0.4413
   60ccc     N2 1080   2.362   4.038   0.046  0.4974 -0.0778  0.9685
   60ccc     H7 1081   2.326   3.964   0.105 -1.6421  0.8453  0.9113
   61ccc     C1 1082   1.903   4.492   0.687 -0.0189 -0.1056 -0.0721
   61ccc     H1 1083   1.838   4.568   0.642 -0.2595  0.1426  0.6798
   61ccc     H2 1084   1.839   4.407   0.711  0.1743 -0.1573  0.2700
   61ccc     C2 1085   1.951   4.551   0.816 -0.4787 -0.3437 -0.6040
   61ccc     H3 1086   1.869   4.576   0.884  0.5377 -1.1717  1.0015
   61ccc     H4 1087   2.008   4.478   0.875 -1.1632  0.9032  1.7221
   61ccc     N1 1088   2.040   4.665   0.797  0.2122 -0.4042  0.0207
   61ccc     H5 1089   2.051   4.661   0.696  0.1983 -4.3131  0.0193
   61ccc     H6 1090   1.970   4.739   0.794 -1.0454 -1.5183  0.6305
   61ccc     N2 1091   2.006   4.462   0.586 -0.2037 -0.0388 -0.6234
   61ccc     H7 1092   2.063   4.536   0.546 -1.4314  0.5556 -1.3157
   62SOL     OW 1093   7.602   6.860   0.042 -0.3455  0.3768 -0.5491
   62SOL    HW1 1094   7.677   6.916   0.063 -0.9031  0.9316 -0.0122
   62SOL    HW2 1095   7.592   6.804   0.119  0.3824 -0.6713 -1.1967
   63SOL     OW 1096   6.560   7.536   6.360  0.1933 -0.1921  0.3872
   63SOL    HW1 1097   6.619   7.599   6.317 -0.1747  1.2704  1.8954
   63SOL    HW2 1098   6.500   7.508   6.291 -0.0409  1.6499 -0.2251
   64SOL     OW 1099   1.810   4.167   0.271  0.6034 -0.1138 -0.0225
   64SOL    HW1 1100   1.790   4.141   0.361 -2.3596 -0.0814 -0.5720
   64SOL    HW2 1101   1.834   4.086   0.227  3.6277  0.0772  1.0523
   65SOL     OW 1102   0.320   2.344   1.798  0.0046  0.0257  0.1803
   65SOL    HW1 1103   0.286   2.317   1.883 -0.8346 -2.6300 -0.8654
   65SOL    HW2 1104   0.403   2.298   1.790 -0.1073 -0.0703 -0.5496
   66SOL     OW 1105   6.495   3.578   0.715  0.1841  0.1117 -0.1041
   66SOL    HW1 1106   6.405   3.545   0.724  0.4405 -0.6154 -0.1072
   66SOL    HW2 1107   6.501   3.608   0.625  0.1441 -0.4838 -0.3119
   67SOL     OW 1108   0.403   1.509   6.660 -0.2461 -0.5875 -0.1830
   67SOL    HW1 1109   0.400   1.424   6.704  1.1458 -0.9538 -0.7386
   67SOL    HW2 1110   0.311   1.534   6.650 -0.6693 -1.8444  0.3307
   68SOL     OW 1111   1.772   0.377   4.949  0.0033 -0.2745 -0.0926
   68SOL    HW1 1112   1.804   0.331   4.871  0.9834 -0.5555  0.4505
   68SOL    HW2 1113   1.703   0.320   4.983  0.1092 -0.5469 -0.3236
   69SOL     OW 1114   5.320   5.627   6.361  0.2176 -0.4823  0.7305
   69SOL    HW1 1115   5.370   5.582   6.293 -1.3190 -0.0830 -0.7377
   69SOL    HW2 1116   5.296   5.558   6.423  0.2913 -1.1616  0.0141
   70SOL     OW 1117   0.631   1.621   0.153 -0.4659  0.3655 -0.0310
   70SOL    HW1 1118   0.564   1.672   0.198  0.2051  2.3916 -1.1826
   70SOL    HW2 1119   0.712   1.640   0.200  0.0315  1.5479 -1.2888
   71SOL     OW 1120   4.311   5.506   4.151 -0.0094 -0.0789  0.2284
   71SOL    HW1 1121   4.303   5.536   4.061 -0.9608  0.9460  0.6244
   71SOL    HW2 1122   4.383   5.443   4.150  1.1492  1.2036 -0.9221
   72SOL     OW 1123   5.996   1.028   7.251 -0.0958  0.9488 -0.4694
   72SOL    HW1 1124   5.941   1.084   7.196  0.6722  1.9922 -0.2188
   72SOL    HW2 1125   6.043   1.090   7.308 -1.3089 -0.0778  1.8048
   73SOL     OW 1126   2.645   7.534   4.895  0.1453 -0.1826 -0.1893
   73SOL    HW1 1127   2.591   7.612   4.905 -0.9589 -0.7458 -1.3036
   73SOL    HW2 1128   2.586   7.461   4.916  1.4070 -0.7175  1.7546
   74SOL     OW 1129   6.068   5.376   6.854  0.1350  0.5002  0.8786
   74SOL    HW1 1130   6.070   5.440   6.925 -2.9073  2.0358 -0.2388
   74SOL    HW2 1131   6.054   5.429   6.775 -3.1477 -1.4439 -0.0414
   75SOL     OW 1132   1.726   3.446   0.082  0.1373 -0.5565 -0.4773
   75SOL    HW1 1133   1.655   3.503   0.050 -0.6119 -1.0863  0.2006
   75SOL    HW2 1134   1.740   3.384   0.010  0.0430 -0.3326 -0.6926
   76SOL     OW 1135   1.388   0.381   4.487 -0.4546 -0.6478  0.0947
   76SOL    HW1 1136   1.354   0.386   4.398  0.1992 -2.0338 -0.2516
   76SOL    HW2 1137   1.408   0.289   4.501 -1.7543 -0.6845  2.1437
   77SOL     OW 1138   4.447   4.214   3.530 -0.6307  0.0296  0.3816
   77SOL    HW1 1139   4.449   4.268   3.451 -2.2872  0.4091  0.5677
   77SOL    HW2 1140   4.354   4.204   3.550 -0.2751 -1.0596  1.6126
   78SOL     OW 1141   4.386   5.264   6.360 -0.6433 -0.5437  0.3890
   78SOL    HW1 1142   4.428   5.217   6.432  0.7283 -0.9901 -0.6442
   78SOL    HW2 1143   4.337   5.335   6.401  0.2303 -0.6971  1.7313
   79SOL     OW 1144   5.353   4.459   6.876  0.1641  0.3306  0.3628
   79SOL    HW1 1145   5.422   4.431   6.936 -0.8947 -1.6317  0.7334
   79SOL    HW2 1146   5.286   4.391   6.883 -1.3979  1.6878 -0.6876
   80SOL     OW 1147   1.939   1.955   4.166  0.2893  0.1752 -0.3493
   80SOL    HW1 1148   1.930   2.049   4.148 -1.4164  0.1655  0.2710
   80SOL    HW2 1149   1.988   1.922   4.091  0.9014  1.5563 -0.5933
   81SOL     OW 1150   6.375   1.193   2.990  0.0337 -0.1521 -0.3392
   81SOL    HW1 1151   6.302   1.184   2.930  1.5274 -1.4511 -2.1001
   81SOL    HW2 1152   6.430   1.262   2.952  0.1206  0.2907  0.5511
   82SOL     OW 1153   2.552   3.768   0.732  0.1624  0.1762 -0.6021
   82SOL    HW1 1154   2.591   3.845   0.772 -0.0132 -0.1977  0.2975
   82SOL    HW2 1155   2.554   3.701   0.800  1.3204 -0.9745 -1.6996
   83SOL     OW 1156   1.683   0.437   5.241 -0.2399  0.4531  0.2086
   83SOL    HW1 1157   1.632   0.420   5.162 -1.1730  0.2647  0.8286
   83SOL    HW2 1158   1.677   0.356   5.292  0.7071  0.4221  0.2935
   84SOL     OW 1159   2.143   6.265   5.263 -0.2855 -0.1067 -0.3358
   84SOL    HW1 1160   2.173   6.352   5.236 -0.3869 -0.1483 -0.5834
   84SOL    HW2 1161   2.060   6.280   5.308  0.0774  0.0047  0.3113
   85SOL     OW 1162   7.506   5.986   5.966 -0.8228  0.3779 -0.3353
   85SOL    HW1 1163   7.547   5.901   5.948  1.8935  1.5789 -0.2205
   85SOL    HW2 1164   7.413   5.972   5.945 -0.3447 -2.3851 -1.0531
   86SOL     OW 1165   5.742   5.770   0.014 -0.0418  0.7580 -0.4987
   86SOL    HW1 1166   5.749   5.798  -0.077  0.2919  0.9291 -0.4195
   86SOL    HW2 1167   5.824   5.724   0.032  0.3325  1.5984  0.0185
   87SOL     OW 1168   6.999   3.365   3.974 -0.3352  0.0193 -0.3414
   87SOL    HW1 1169   7.021   3.272   3.979  0.6741  0.2954  0.8507
   87SOL    HW2 1170   6.907   3.367   3.949 -0.4827 -1.3034  0.0185
   88SOL     OW 1171   4.416   2.501   3.513 -0.1232 -0.5382 -0.0620
   88SOL    HW1 1172   4.398   2.408   3.503 -1.0643 -0.3527 -0.2870
   88SOL    HW2 1173   4.397   2.520   3.605 -2.8619 -0.0278 -0.6454
   89SOL     OW 1174   7.605   6.852   1.672  0.0752 -0.8375 -0.1924
   89SOL    HW1 1175   7.512   6.877   1.673  0.7779  2.3060  1.9093
   89SOL    HW2 1176   7.638   6.889   1.590 -0.1894 -0.3123 -0.0704
   90SOL     OW 1177   7.538   0.807   0.019 -0.2729  0.2623 -0.0572
   90SOL    HW1 1178   7.461   0.863   0.012 -0.1160  0.5724  0.6869
   90SOL    HW2 1179   7.575   0.805  -0.070  0.0238  1.7723  0.0176
   91SOL     OW 1180   5.622   1.719   2.621 -0.0975  0.2807 -0.2045
   91SOL    HW1 1181   5.603   1.800   2.668  0.0176  0.6879 -0.8453
   91SOL    HW2 1182   5.658   1.660   2.688 -2.0184  0.0464  0.6836
   92SOL     OW 1183   3.914   3.465   6.358  0.7620  0.2746  0.1660
   92SOL    HW1 1184   3.919   3.459   6.262 -0.2886 -0.8149  0.1627
   92SOL    HW2 1185   3.936   3.378   6.389 -2.5602 -0.4901  0.7162
   93SOL     OW 1186   2.806   5.153   1.206  0.5320 -0.3246 -1.0654
   93SOL    HW1 1187   2.865   5.116   1.272 -0.7547  0.5013  0.6087
   93SOL    HW2 1188   2.794   5.244   1.233 -1.5819 -0.4984 -1.2993
   94SOL     OW 1189   3.441   1.500   4.564  0.5200  0.2615  0.6337
   94SOL    HW1 1190   3.401   1.421   4.598 -0.7926  0.4360 -0.4177
   94SOL    HW2 1191   3.368   1.562   4.553  1.0616  0.6529 -1.1744
   95SOL     OW 1192   1.907   6.727   2.681  0.1941  0.0901 -0.0651
   95SOL    HW1 1193   1.980   6.719   2.743  0.1417 -0.1143 -0.0303
   95SOL    HW2 1194   1.949   6.734   2.595  0.2655  0.3163 -0.0128
   96SOL     OW 1195   4.947   0.919   0.478 -0.3909  0.0188 -0.3468
   96SOL    HW1 1196   4.958   1.011   0.452 -3.1144  0.5659  0.0909
   96SOL    HW2 1197   4.921   0.924   0.570  0.6921 -1.3124  0.0554
   97SOL     OW 1198   0.888   3.854   5.710 -0.7897 -0.3084 -0.5705
   97SOL    HW1 1199   0.883   3.932   5.765 -0.3028  0.3210 -1.4051
   97SOL    HW2 1200   0.799   3.819   5.709 -0.4835 -1.4593  2.1817
   98SOL     OW 1201   0.618   4.741   2.950 -0.0850 -0.2633  0.5831
   98SOL    HW1 1202   0.600   4.667   2.893 -0.3207  0.9696 -1.0258
   98SOL    HW2 1203   0.612   4.818   2.893  1.0097  0.9444  1.9822
   99SOL     OW 1204   5.415   4.642   0.114  0.1899 -0.2222 -0.0088
   99SOL    HW1 1205   5.444   4.552   0.127 -0.3632 -0.3809  0.1930
   99SOL    HW2 1206   5.493   4.695   0.125  0.6895 -0.7338 -0.9367
  100SOL     OW 1207   1.599   7.403   5.777 -0.1298 -0.1773 -0.1308
  100SOL    HW1 1208   1.635   7.491   5.761 -1.2687  0.2639 -0.3644
  100SOL    HW2 1209   1.589   7.365   5.690 -0.2992 -0.2622 -0.0747
  101SOL     OW 1210   0.915   1.439   7.483  0.3190  0.2361  0.1272
  101SOL    HW1 1211   0.861   1.428   7.561  0.1282  0.3071  0.0075
  101SOL    HW2 1212   0.875   1.382   7.418 -0.5765  1.4733 -0.4406
  102SOL     OW 1213   7.506   0.826   2.959  0.0068  0.3089  0.3488
  102SOL    HW1 1214   7.573   0.759   2.947 -1.0403 -0.8332  0.6848
  102SOL    HW2 1215   7.508   0.877   2.878 -1.1570 -1.9439 -1.1712
  103SOL     OW 1216   6.315   7.443   0.429  0.8920  0.1235  0.0910
  103SOL    HW1 1217   6.226   7.478   0.424  0.7971 -0.1811 -0.4405
  103SOL    HW2 1218   6.352   7.460   0.342  0.8875 -0.9578 -0.1434
  104SOL     OW 1219   1.413   6.163   2.733 -1.0200 -0.3781 -0.6591
  104SOL    HW1 1220   1.465   6.186   2.656  0.0149 -0.6371 -0.0510
  104SOL    HW2 1221   1.466   6.192   2.807 -0.5020 -2.9725  0.0774
  105SOL     OW 1222   7.386   1.243   2.091 -0.2643 -0.6622  0.4463
  105SOL    HW1 1223   7.342   1.169   2.135 -1.1790 -0.2970  0.1724
  105SOL    HW2 1224   7.479   1.230   2.110 -0.6041 -0.4792  2.5893
  106SOL     OW 1225   0.499   7.731   1.404  0.2226  0.2394 -0.4993
  106SOL    HW1 1226   0.559   7.768   1.338  1.5804  2.9359  1.9999
  106SOL    HW2 1227   0.506   7.636   1.392  0.8825  0.5874 -3.7506
  107SOL     OW 1228   6.006   7.646   2.483 -0.2555  0.2354  0.1603
  107SOL    HW1 1229   6.015   7.553   2.505 -1.7141 -0.1405 -0.7050
  107SOL    HW2 1230   6.084   7.687   2.520 -1.6712 -0.5731  4.6325
  108SOL     OW 1231   5.352   6.423   0.544 -0.3786  0.2468 -0.2306
  108SOL    HW1 1232   5.329   6.337   0.511 -2.2726 -0.0257  1.6030
  108SOL    HW2 1233   5.287   6.482   0.505 -1.0755  0.3095  0.9837
  109SOL     OW 1234   6.022   2.781   6.494  0.1780 -0.3057 -0.3682
  109SOL    HW1 1235   5.937   2.785   6.449  0.4977 -1.4796 -1.1197
  109SOL    HW2 1236   6.046   2.689   6.491  0.9931 -0.1491  0.7904
  110SOL     OW 1237   2.998   5.093   3.331 -0.1249  0.6578 -0.3374
  110SOL    HW1 1238   3.063   5.028   3.361  0.4534  1.9332  1.3326
  110SOL    HW2 1239   2.922   5.077   3.387 -0.9245 -0.1837 -1.6250
  111SOL     OW 1240   4.231   5.496   3.207  0.4168  0.0734  0.0446
  111SOL    HW1 1241   4.142   5.525   3.188 -0.1063 -0.8644  0.9609
  111SOL    HW2 1242   4.231   5.480   3.302  0.8787 -2.1594 -0.2838
  112SOL     OW 1243   4.256   2.610   5.660  0.1690  0.6678 -0.1312
  112SOL    HW1 1244   4.306   2.663   5.598 -0.7496  0.2480 -1.2910
  112SOL    HW2 1245   4.236   2.670   5.732  2.8390  0.6664  0.7142
  113SOL     OW 1246   2.576   6.880   5.806 -0.3570  0.0145  0.3398
  113SOL    HW1 1247   2.483   6.878   5.784 -0.4655  2.8229  0.1443
  113SOL    HW2 1248   2.615   6.936   5.739  0.9331  1.1819  1.9952
  114SOL     OW 1249   7.627   5.872   1.846 -0.0714  0.3783 -0.2394
  114SOL    HW1 1250   7.629   5.963   1.875 -1.5116  0.1110  0.8129
  114SOL    HW2 1251   7.699   5.831   1.892 -0.6321  0.5800  0.8689
  115SOL     OW 1252   4.508   4.088   1.457 -0.6121  0.1946  0.1099
  115SOL    HW1 1253   4.480   4.131   1.377  0.0953 -1.1192 -0.8869
  115SOL    HW2 1254   4.520   4.159   1.520 -1.7803  1.1886 -0.7572
  116SOL     OW 1255   7.458   1.012   1.944  0.2332 -0.2874  0.2531
  116SOL    HW1 1256   7.544   1.030   1.981 -0.0042 -0.7283  1.0688
  116SOL    HW2 1257   7.473   0.943   1.879  0.2651 -1.8125  1.7893
  117SOL     OW 1258   1.161   1.424   6.769  0.4581 -0.0787  0.1082
  117SOL    HW1 1259   1.242   1.376   6.754 -0.4565 -1.8137  0.4883
  117SOL    HW2 1260   1.138   1.404   6.860  0.7097  2.1758  0.7312
  118SOL     OW 1261   3.505   6.475   6.541 -0.1671  0.8708 -0.3575
  118SOL    HW1 1262   3.489   6.382   6.555  0.7929  0.5472 -1.3068
  118SOL    HW2 1263   3.487   6.489   6.448  2.1380  1.0586 -0.8392
  119SOL     OW 1264   0.975   5.213   3.221 -0.6264  0.1656 -0.4625
  119SOL    HW1 1265   0.993   5.122   3.195 -0.5870  0.4507 -1.4524
  119SOL    HW2 1266   0.951   5.207   3.313 -1.2354 -0.9288 -0.6797
  120SOL     OW 1267   6.253   4.058   5.092 -0.5084  0.0024  0.4531
  120SOL    HW1 1268   6.198   4.089   5.020 -3.5086 -1.3361  1.9942
  120SOL    HW2 1269   6.258   4.132   5.152 -1.0767 -0.0322  0.5457
  121SOL     OW 1270   5.058   3.384   6.917 -0.2300  0.4624  0.0313
  121SOL    HW1 1271   5.038   3.291   6.903 -1.0920  0.8316 -1.2867
  121SOL    HW2 1272   5.128   3.403   6.854  0.7241  0.4692  1.0523
  122SOL     OW 1273   5.352   3.852   7.708  0.3320  0.1759 -0.3832
  122SOL    HW1 1274   5.322   3.927   7.658 -0.8065 -0.1337 -0.1820
  122SOL    HW2 1275   5.284   3.786   7.697  0.9659 -0.5747  0.0370
  123SOL     OW 1276   7.536   3.441   4.414 -0.0226  0.1918 -0.1555
  123SOL    HW1 1277   7.517   3.483   4.330  0.3337  1.8263  0.5251
  123SOL    HW2 1278   7.453   3.443   4.461  0.1184  0.6216  0.0765
  124SOL     OW 1279   4.008   5.513   1.677  0.8077  0.0060  0.0008
  124SOL    HW1 1280   4.022   5.594   1.627  2.0003 -0.4590 -0.4420
  124SOL    HW2 1281   4.061   5.447   1.633 -1.9854 -1.6667 -1.1366
  125SOL     OW 1282   3.160   6.983   5.357  0.0702 -0.5002 -0.2543
  125SOL    HW1 1283   3.133   6.980   5.265  1.5616  0.7224 -0.7645
  125SOL    HW2 1284   3.188   7.073   5.371 -2.0834 -0.0555  2.0246
  126SOL     OW 1285   2.273   1.314   1.530  0.1565 -0.1559  0.3971
  126SOL    HW1 1286   2.363   1.323   1.563  0.0786 -1.1862  0.9242
  126SOL    HW2 1287   2.232   1.399   1.548  0.7955  0.0653  0.8535
  127SOL     OW 1288   5.048   2.048   7.255 -0.1917  0.1912  0.2834
  127SOL    HW1 1289   5.123   2.106   7.269 -0.9808  1.2155  0.3065
  127SOL    HW2 1290   5.088   1.964   7.231  0.9876  0.4702  1.1563
  128SOL     OW 1291   1.341   3.857   1.589 -0.2017  0.0144  0.0530
  128SOL    HW1 1292   1.337   3.785   1.651 -0.6272  0.4084  0.4967
  128SOL    HW2 1293   1.391   3.925   1.634  1.3291 -0.4625 -0.8595
  129SOL     OW 1294   3.903   0.571   4.038  0.9559  0.5434 -0.4014
  129SOL    HW1 1295   3.903   0.627   3.960  0.0230  0.8809 -0.1727
  129SOL    HW2 1296   3.813   0.539   4.045  1.2917 -0.3658 -0.0767
  130SOL     OW 1297   3.668   5.561   5.305 -0.0787  0.2321  0.2318
  130SOL    HW1 1298   3.641   5.558   5.214 -0.6932 -0.3429  0.4276
  130SOL    HW2 1299   3.744   5.504   5.310 -0.4919 -0.3319  0.2178
  131SOL     OW 1300   5.841   5.742   2.261  0.2602 -0.4304  0.0117
  131SOL    HW1 1301   5.838   5.805   2.189  0.3961  0.5864  0.8570
  131SOL    HW2 1302   5.783   5.671   2.234 -0.5776  0.4676 -0.6181
  132SOL     OW 1303   7.351   7.054   2.869  0.0723 -0.0850  0.3966
  132SOL    HW1 1304   7.442   7.078   2.850  0.4959 -2.2156 -0.6186
  132SOL    HW2 1305   7.321   7.008   2.790 -1.9908  0.7576  0.6192
  133SOL     OW 1306   6.025   4.595   7.099  0.6819 -0.0502  0.5201
  133SOL    HW1 1307   6.066   4.627   7.018  0.8311 -1.9779 -0.2038
  133SOL    HW2 1308   6.046   4.662   7.164  0.8723  1.3642 -0.9391
  134SOL     OW 1309   4.856   1.656   0.517 -0.1980  0.2531 -0.3801
  134SOL    HW1 1310   4.788   1.630   0.456  0.1110 -0.9119 -0.2580
  134SOL    HW2 1311   4.871   1.749   0.499  0.6384 -0.2877 -2.8224
  135SOL     OW 1312   2.024   1.340   5.648 -0.5378  0.1731  0.3939
  135SOL    HW1 1313   2.085   1.311   5.716 -0.5233 -1.2337 -0.1890
  135SOL    HW2 1314   2.050   1.431   5.629  1.7463 -0.5428 -0.2057
  136SOL     OW 1315   2.713   7.082   7.641  0.0942 -0.1375 -0.2276
  136SOL    HW1 1316   2.757   7.128   7.569  0.1184  0.1943 -0.0057
  136SOL    HW2 1317   2.621   7.109   7.633  0.5874  2.6570  1.8682
  137SOL     OW 1318   3.123   2.211   5.985  0.0882 -0.1059  0.1828
  137SOL    HW1 1319   3.142   2.304   5.973 -0.3719 -0.0715 -0.3330
  137SOL    HW2 1320   3.027   2.206   5.990 -0.0145 -0.7414 -1.6626
  138SOL     OW 1321   5.156   2.424   4.489  0.0324 -0.4209 -0.4226
  138SOL    HW1 1322   5.081   2.373   4.519  0.3342  0.6552  2.5279
  138SOL    HW2 1323   5.222   2.412   4.558  0.6180  2.7157 -0.2728
  139SOL     OW 1324   0.400   5.249   6.711  0.4408  0.2104  0.0058
  139SOL    HW1 1325   0.438   5.172   6.754  2.4262  0.4112 -1.2268
  139SOL    HW2 1326   0.307   5.230   6.705  0.6166 -1.2847  1.3494
  140SOL     OW 1327   6.856   5.681   5.195 -0.1797  0.1657  0.1879
  140SOL    HW1 1328   6.862   5.769   5.158  0.1144  0.7593  1.5756
  140SOL    HW2 1329   6.945   5.646   5.185  1.3070  2.0779  4.3178
  141SOL     OW 1330   7.499   1.816   2.514  0.4164  0.5628  0.1309
  141SOL    HW1 1331   7.547   1.744   2.472 -0.3583  0.4598 -0.5919
  141SOL    HW2 1332   7.463   1.777   2.594  0.6764  0.3733  0.1582
  142SOL     OW 1333   2.263   7.248   3.673  0.9188  0.3139 -0.2624
  142SOL    HW1 1334   2.193   7.273   3.612  1.2234  0.9065 -0.3756
  142SOL    HW2 1335   2.294   7.164   3.639 -0.5632 -0.6028  0.5111
  143SOL     OW 1336   2.477   6.899   7.197  0.0949  0.8581  0.5804
  143SOL    HW1 1337   2.449   6.962   7.264 -0.6276 -0.0586  1.1716
  143SOL    HW2 1338   2.483   6.950   7.117 -1.2556  1.5525  0.8827
  144SOL     OW 1339   5.353   7.209   3.328  0.0300  0.3471 -0.0790
  144SOL    HW1 1340   5.430   7.228   3.383  1.1177 -2.0760 -0.6432
  144SOL    HW2 1341   5.383   7.227   3.239  0.2757 -1.4098 -0.3818
  145SOL     OW 1342   6.371   6.234   4.261 -0.3571 -0.2869 -0.3747
  145SOL    HW1 1343   6.348   6.289   4.335 -0.2727  2.0258 -1.9690
  145SOL    HW2 1344   6.302   6.168   4.258 -0.5916 -0.1809  1.4616
  146SOL     OW 1345   5.646   3.672   6.505 -0.3921 -0.4603 -0.2314
  146SOL    HW1 1346   5.711   3.739   6.486 -0.2293 -0.0951  1.4910
  146SOL    HW2 1347   5.562   3.718   6.503 -0.4061 -0.4955 -0.4309
  147SOL     OW 1348   2.805   6.499   4.645  0.6795  0.5994 -0.2933
  147SOL    HW1 1349   2.885   6.539   4.678  1.2032  0.2974 -1.1439
  147SOL    HW2 1350   2.735   6.544   4.690  1.3543 -0.6625  2.2107
  148SOL     OW 1351   7.696   1.811   1.792 -0.2623 -0.4810  0.3301
  148SOL    HW1 1352   7.613   1.833   1.835  0.0427  0.9613  0.2296
  148SOL    HW2 1353   7.742   1.756   1.855 -0.7000 -0.1235  0.9770
  149SOL     OW 1354   4.233   4.406   1.390  0.3740 -0.5256 -0.0955
  149SOL    HW1 1355   4.274   4.486   1.355  1.1062 -0.3100  1.1540
  149SOL    HW2 1356   4.284   4.335   1.352  1.5767 -0.2761  0.9365
  150SOL     OW 1357   6.234   6.200   5.410  0.2898 -0.0998  0.1350
  150SOL    HW1 1358   6.225   6.105   5.423  2.7471 -0.2036  1.7607
  150SOL    HW2 1359   6.272   6.231   5.492  1.7518  1.9375 -1.2257
  151SOL     OW 1360   6.375   4.451   7.675  0.0163  0.0772 -0.1070
  151SOL    HW1 1361   6.461   4.412   7.692  0.4500  0.2266 -1.8062
  151SOL    HW2 1362   6.314   4.397   7.726  1.0608 -0.2050  0.9067
  152SOL     OW 1363   4.731   0.024   3.139 -0.5303 -0.3210 -0.6226
  152SOL    HW1 1364   4.808  -0.007   3.092 -0.2962 -2.5951  1.1073
  152SOL    HW2 1365   4.760   0.033   3.230 -2.1105 -0.4489 -0.0763
  153SOL     OW 1366   7.484   2.665   6.356  0.5820 -0.0519 -0.3245
  153SOL    HW1 1367   7.424   2.598   6.322 -1.4865  1.4989  0.0219
  153SOL    HW2 1368   7.559   2.616   6.389 -0.7112 -2.1680 -0.3296
  154SOL     OW 1369   3.184   0.732   4.831 -0.2428  0.4701  0.2166
  154SOL    HW1 1370   3.253   0.714   4.895 -1.1705  2.0030  1.7151
  154SOL    HW2 1371   3.231   0.740   4.748  1.1324 -0.4855  0.8554
  155SOL     OW 1372   7.037   4.669   5.578  0.6201 -0.1467  0.0069
  155SOL    HW1 1373   6.941   4.668   5.573  0.4001 -1.8097  2.5759
  155SOL    HW2 1374   7.066   4.612   5.507 -0.3610 -0.3220 -0.2650
  156SOL     OW 1375   4.693   2.466   4.627 -0.5906  0.2256 -0.0600
  156SOL    HW1 1376   4.615   2.514   4.597 -0.3166  0.9336  0.3443
  156SOL    HW2 1377   4.696   2.480   4.721  1.2094  2.0380 -0.3161
  157SOL     OW 1378   4.339   2.522   4.573 -0.2850 -0.0656  0.1808
  157SOL    HW1 1379   4.385   2.491   4.651 -0.0242  0.6380  0.3213
  157SOL    HW2 1380   4.370   2.612   4.562  0.1384 -0.3422 -1.0719
  158SOL     OW 1381   4.647   5.276   4.743  0.3636 -0.3350 -0.6800
  158SOL    HW1 1382   4.669   5.276   4.650 -1.1639  2.3306 -1.1429
  158SOL    HW2 1383   4.570   5.333   4.750 -1.7409 -3.1353  1.7859
  159SOL     OW 1384   5.157   7.590   5.585 -0.1037 -0.4398  0.4248
  159SOL    HW1 1385   5.191   7.501   5.596  2.0002  0.0234 -1.4705
  159SOL    HW2 1386   5.128   7.593   5.493 -0.2588  0.7918  0.5025
  160SOL     OW 1387   7.303   2.195   1.125 -0.1258 -0.2858  0.4284
  160SOL    HW1 1388   7.248   2.273   1.135  2.2203  1.5224 -0.0589
  160SOL    HW2 1389   7.353   2.191   1.207  0.2037 -0.9531  0.1984
  161SOL     OW 1390   3.237   1.175   0.058  0.6865  0.1093  0.7465
  161SOL    HW1 1391   3.143   1.175   0.040  0.6641 -0.2224  0.8589
  161SOL    HW2 1392   3.247   1.116   0.132  1.0130 -0.0476  0.5791
  162SOL     OW 1393   6.582   0.490   5.645  0.5403 -0.8092  0.7051
  162SOL    HW1 1394   6.577   0.513   5.738  0.4768 -0.8258  0.7060
  162SOL    HW2 1395   6.502   0.527   5.607  0.4325 -1.0381  0.7085
  163SOL     OW 1396   6.139   6.087   5.928 -0.0485 -0.5088  0.1460
  163SOL    HW1 1397   6.086   6.157   5.966  0.4429  1.7712 -2.9967
  163SOL    HW2 1398   6.143   6.020   5.997 -3.3545  1.0413  2.1023
  164SOL     OW 1399   7.153   6.898   0.778  0.4030  0.6067 -0.0956
  164SOL    HW1 1400   7.136   6.816   0.730  3.2069  0.1875 -0.5857
  164SOL    HW2 1401   7.117   6.966   0.722 -0.6034 -0.1960 -0.4548
  165SOL     OW 1402   4.221   2.942   0.065  0.2788 -0.0829 -0.2884
  165SOL    HW1 1403   4.161   2.943  -0.009 -0.1545  0.8646  0.0490
  165SOL    HW2 1404   4.297   2.993   0.034  1.0047 -1.4218 -0.7735
  166SOL     OW 1405   4.709   0.830   2.551  0.5625  0.2878 -0.4639
  166SOL    HW1 1406   4.630   0.794   2.592  0.5267 -0.2135 -0.9705
  166SOL    HW2 1407   4.690   0.923   2.541 -0.1815  0.0753 -1.0694
  167SOL     OW 1408   3.664   6.472   1.474 -0.8352  0.5207 -0.0084
  167SOL    HW1 1409   3.735   6.503   1.530 -0.8970  0.3539  0.1638
  167SOL    HW2 1410   3.709   6.431   1.399 -0.7478  2.1026 -0.8598
  168SOL     OW 1411   6.429   4.983   3.417 -0.0007  0.2686  0.4026
  168SOL    HW1 1412   6.517   5.019   3.405  0.1568  0.4350  1.9340
  168SOL    HW2 1413   6.371   5.048   3.377  0.6335 -1.1065 -3.1952
  169SOL     OW 1414   3.334   0.458   5.991  0.5241 -0.1423  0.4085
  169SOL    HW1 1415   3.285   0.524   5.942  0.8306 -0.4615 -0.3384
  169SOL    HW2 1416   3.293   0.458   6.078 -0.7434 -0.3357 -0.1614
  170SOL     OW 1417   5.729   0.767   6.343 -0.7171  0.2459  0.4116
  170SOL    HW1 1418   5.703   0.827   6.274  0.1169 -1.7507 -1.7664
  170SOL    HW2 1419   5.665   0.782   6.413 -1.1878  2.8072 -0.4529
  171SOL     OW 1420   4.503   0.727   3.439 -0.2969 -0.4716 -0.2467
  171SOL    HW1 1421   4.458   0.729   3.523 -2.3858 -0.3703 -1.3066
  171SOL    HW2 1422   4.466   0.651   3.394 -0.8965  0.7705 -1.9359
  172SOL     OW 1423   1.681   7.723   0.838  0.0132 -0.0909 -0.2782
  172SOL    HW1 1424   1.624   7.652   0.867  0.4448  0.5413  2.3800
  172SOL    HW2 1425   1.640   7.802   0.874  1.7173  0.5221  0.4104
  173SOL     OW 1426   0.678   0.972   2.895  0.1008 -0.1888 -0.1089
  173SOL    HW1 1427   0.680   0.915   2.972 -1.0226 -0.2451 -0.1004
  173SOL    HW2 1428   0.721   1.053   2.923  0.6488 -0.5934  0.2415
  174SOL     OW 1429   0.471   2.424   5.935  0.1300 -0.0828 -0.3112
  174SOL    HW1 1430   0.401   2.379   5.982  0.1198 -0.6910 -0.8817
  174SOL    HW2 1431   0.460   2.516   5.958 -1.6041  0.0059 -1.2998
  175SOL     OW 1432   3.603   1.661   6.525  0.7445 -0.2621 -0.2273
  175SOL    HW1 1433   3.666   1.660   6.597  1.1760 -0.4286 -0.6011
  175SOL    HW2 1434   3.539   1.728   6.550  0.5574 -0.7304  0.5885
  176SOL     OW 1435   5.507   7.254   0.323 -0.0348  0.7273 -0.1055
  176SOL    HW1 1436   5.491   7.315   0.251  0.8521  0.1149 -0.8511
  176SOL    HW2 1437   5.598   7.268   0.347 -0.5556  1.5554  1.5412
  177SOL     OW 1438   2.882   4.325   3.114 -0.3796 -0.1926  0.0752
  177SOL    HW1 1439   2.906   4.232   3.121 -0.9792 -0.3944 -0.4468
  177SOL    HW2 1440   2.860   4.350   3.204  1.4180 -0.0804  0.5264
  178SOL     OW 1441   3.002   4.295   7.653 -0.1837  0.2382  0.4480
  178SOL    HW1 1442   2.909   4.312   7.667 -0.4679 -0.3115 -0.6430
  178SOL    HW2 1443   3.009   4.199   7.652  0.0053  0.2276 -1.6662
  179SOL     OW 1444   0.756   6.429   1.139 -0.3014 -0.7540 -0.7392
  179SOL    HW1 1445   0.830   6.412   1.197 -0.9086 -2.1145 -0.3346
  179SOL    HW2 1446   0.752   6.352   1.083 -2.5588 -1.6388  0.5130
  180SOL     OW 1447   1.038   4.618   2.967 -0.5801  0.3240 -0.0097
  180SOL    HW1 1448   1.002   4.661   2.890 -1.3543  1.6868  1.0586
  180SOL    HW2 1449   1.034   4.684   3.036 -2.0058 -1.5073  1.7950
  181SOL     OW 1450   4.416   5.598   7.588  0.2301  0.3799  0.4444
  181SOL    HW1 1451   4.347   5.573   7.527  0.2468  0.7454  0.2735
  181SOL    HW2 1452   4.406   5.538   7.662  0.8730 -0.7731 -0.3717
  182SOL     OW 1453   4.681   4.083   0.101  0.5846 -0.2316  0.2547
  182SOL    HW1 1454   4.604   4.081   0.158  0.1447 -1.3753 -0.3323
  182SOL    HW2 1455   4.666   4.157   0.043 -0.4309 -0.8368 -0.2918
  183SOL     OW 1456   6.944   3.048   6.469  0.2799  0.3323 -0.1436
  183SOL    HW1 1457   6.895   3.129   6.485 -1.9022 -0.8257 -0.6699
  183SOL    HW2 1458   6.933   3.030   6.376 -1.7323 -2.0271  0.4582
  184SOL     OW 1459   0.329   3.471   1.318  0.1581 -0.2199 -0.4628
  184SOL    HW1 1460   0.379   3.457   1.399 -1.0183  0.4799  0.4196
  184SOL    HW2 1461   0.321   3.566   1.311  1.7280 -0.1595 -2.3839
  185SOL     OW 1462   5.971   7.432   1.359 -0.6513  0.2952 -0.0622
  185SOL    HW1 1463   5.879   7.452   1.379 -0.5442  0.8353 -0.0842
  185SOL    HW2 1464   5.995   7.364   1.421 -1.2210 -0.2249 -0.4051
  186SOL     OW 1465   3.618   2.709   7.062 -0.2071 -0.1066  0.2004
  186SOL    HW1 1466   3.627   2.666   6.977  2.1702 -0.6430  0.6333
  186SOL    HW2 1467   3.703   2.695   7.104 -0.8773  1.2752  2.1397
  187SOL     OW 1468   3.922   7.275   0.858 -0.3752  0.1539  0.4459
  187SOL    HW1 1469   3.843   7.222   0.865  1.0837 -1.9005  4.4132
  187SOL    HW2 1470   3.914   7.339   0.928  1.0192  0.6080  0.2211
  188SOL     OW 1471   3.578   6.429   5.606  0.3180  0.1753 -0.3028
  188SOL    HW1 1472   3.664   6.403   5.571  0.8673 -1.0808  1.7810
  188SOL    HW2 1473   3.523   6.352   5.593 -0.5394  0.9983 -1.6753
  189SOL     OW 1474   1.899   0.628   4.691 -0.1530  0.2495 -0.0334
  189SOL    HW1 1475   1.940   0.550   4.730 -1.7726 -0.6894 -0.1302
  189SOL    HW2 1476   1.967   0.696   4.697  2.1275 -1.6853 -1.9272
  190SOL     OW 1477   6.510   7.237   4.616 -0.5185 -0.3047  0.2471
  190SOL    HW1 1478   6.470   7.289   4.546 -0.5280 -0.4666  0.1322
  190SOL    HW2 1479   6.539   7.302   4.681  1.9084  0.0841 -1.1056
  191SOL     OW 1480   7.588   3.095   1.296 -0.1387  0.2920  0.0112
  191SOL    HW1 1481   7.654   3.055   1.240  0.0096  0.9385 -0.2839
  191SOL    HW2 1482   7.636   3.163   1.345 -0.4726  0.4093  0.1805
  192SOL     OW 1483   4.618   4.061   4.051 -0.1516  0.1065 -0.0584
  192SOL    HW1 1484   4.544   4.109   4.089 -0.4230 -0.2876 -0.0865
  192SOL    HW2 1485   4.621   4.090   3.960 -1.2579 -1.0329 -0.4891
  193SOL     OW 1486   0.883   6.977   0.288 -0.1092  0.3890 -0.3852
  193SOL    HW1 1487   0.942   6.929   0.346 -0.4917 -0.9394 -1.0675
  193SOL    HW2 1488   0.818   7.015   0.348  0.1909  0.0467  0.1698
  194SOL     OW 1489   1.716   4.894   4.009 -0.3320 -0.0942  0.0717
  194SOL    HW1 1490   1.676   4.812   4.035  0.8264 -1.2659 -1.5599
  194SOL    HW2 1491   1.655   4.962   4.037 -1.2915 -1.4980  1.5111
  195SOL     OW 1492   4.450   5.707   4.590 -0.3866  0.4141  0.2749
  195SOL    HW1 1493   4.412   5.764   4.523  1.8548  0.8645 -0.6946
  195SOL    HW2 1494   4.469   5.765   4.664  3.1081  1.3593 -1.1936
  196SOL     OW 1495   2.050   2.877   3.253  0.4957  0.0647 -0.3456
  196SOL    HW1 1496   2.071   2.809   3.190  0.9267 -1.0363  0.9281
  196SOL    HW2 1497   2.122   2.940   3.245  0.3353  0.1424 -1.2205
  197SOL     OW 1498   6.608   3.261   1.290  0.5059  0.0301 -0.2405
  197SOL    HW1 1499   6.584   3.249   1.382  0.5968  0.6377 -0.1389
  197SOL    HW2 1500   6.682   3.201   1.278  0.9306  0.4421  0.2610
  198SOL     OW 1501   4.398   1.995   6.639 -0.1261 -0.3368 -0.1433
  198SOL    HW1 1502   4.325   2.029   6.692  0.1614  0.6933 -0.3756
  198SOL    HW2 1503   4.358   1.930   6.581 -0.4549 -1.4554  1.2860
  199SOL     OW 1504   0.042   1.566   4.969  0.3059 -0.1594  0.7321
  199SOL    HW1 1505  -0.038   1.565   5.022 -0.2939 -0.8477 -0.1343
  199SOL    HW2 1506   0.061   1.473   4.954  0.6087  0.0151 -0.0107
  200SOL     OW 1507   5.976   4.257   6.571  0.3486  0.1199 -0.2692
  200SOL    HW1 1508   5.962   4.165   6.592 -0.7014  0.7636  2.2852
  200SOL    HW2 1509   6.059   4.279   6.615 -1.1094  1.1308  2.2094
  201SOL     OW 1510   0.547   2.078   1.210 -0.2511 -0.0629 -0.0720
  201SOL    HW1 1511   0.533   2.018   1.283 -2.0893  0.1482 -0.2098
  201SOL    HW2 1512   0.462   2.084   1.167  0.1714  1.7688 -0.7391
  202SOL     OW 1513   3.830   7.078   6.443  0.1409  0.6809  0.2320
  202SOL    HW1 1514   3.855   7.154   6.495 -0.1407 -0.1209  1.5926
  202SOL    HW2 1515   3.784   7.021   6.504  0.6170 -0.7356 -0.6732
  203SOL     OW 1516   7.005   4.952   0.327  0.2518  0.1628  0.5401
  203SOL    HW1 1517   7.011   5.044   0.353  0.7190  0.2320  0.1938
  203SOL    HW2 1518   6.981   4.906   0.407  0.2464  0.5571  0.7679
  204SOL     OW 1519   0.319   2.615   1.743 -0.0817 -0.2996 -0.5057
  204SOL    HW1 1520   0.298   2.522   1.739 -1.6559 -0.0988  1.6358
  204SOL    HW2 1521   0.261   2.655   1.678  0.5264 -0.7432 -1.3582
  205SOL     OW 1522   5.830   1.010   4.206  0.0729 -0.1496  0.2121
  205SOL    HW1 1523   5.833   1.091   4.258  0.0542  0.3648 -0.5693
  205SOL    HW2 1524   5.922   0.986   4.197  0.0899 -0.1186  0.2957
  206SOL     OW 1525   1.469   7.292   4.886  0.0086  0.0218 -0.2367
  206SOL    HW1 1526   1.507   7.206   4.904 -0.6092 -0.1012  0.4939
  206SOL    HW2 1527   1.536   7.354   4.914  0.6999 -0.2069 -1.3028
  207SOL     OW 1528   0.406   6.103   6.316 -0.0829 -0.0071  0.2991
  207SOL    HW1 1529   0.367   6.051   6.386  0.8359 -0.4578  0.4826
  207SOL    HW2 1530   0.334   6.117   6.254  0.0025 -2.9150 -0.6026
  208SOL     OW 1531   1.952   3.765   6.102 -0.3436 -0.0683 -0.1182
  208SOL    HW1 1532   1.933   3.696   6.166  0.1939 -0.5811 -0.5025
  208SOL    HW2 1533   1.984   3.718   6.025 -2.6594  0.3951 -1.4357
  209SOL     OW 1534   5.317   5.978   2.222  0.2147  0.2082 -0.1971
  209SOL    HW1 1535   5.264   5.900   2.241 -0.0109  0.6191  0.9182
  209SOL    HW2 1536   5.359   5.999   2.305  1.6902  0.2416 -0.9108
  210SOL     OW 1537   2.881   4.300   1.805 -0.7304  0.6025  0.3735
  210SOL    HW1 1538   2.974   4.322   1.806 -0.7757  0.7732  1.0618
  210SOL    HW2 1539   2.878   4.211   1.840 -0.8684  0.7712  0.7942
  211SOL     OW 1540   3.503   2.197   3.162 -0.6131 -0.0367  0.4787
  211SOL    HW1 1541   3.541   2.285   3.167 -0.5243 -0.0915  0.8119
  211SOL    HW2 1542   3.560   2.144   3.218 -1.3132 -0.0767  1.1769
  212SOL     OW 1543   0.082   0.764   4.224  0.3159  0.3030 -0.2981
  212SOL    HW1 1544   0.115   0.819   4.294  0.7927  1.1107 -1.1380
  212SOL    HW2 1545   0.124   0.679   4.238 -2.8321 -0.9834  2.9148
  213SOL     OW 1546   1.725   5.999   2.834  0.1866 -0.3547 -0.6359
  213SOL    HW1 1547   1.786   6.061   2.875 -1.1916  0.1470  0.7472
  213SOL    HW2 1548   1.701   6.041   2.751  1.4198 -0.3982 -1.0438
  214SOL     OW 1549   2.523   3.330   4.637  0.2582 -0.5342 -0.5044
  214SOL    HW1 1550   2.612   3.340   4.672 -0.4005 -0.4782  1.2321
  214SOL    HW2 1551   2.500   3.417   4.603  0.6127 -0.3750 -0.3411
  215SOL     OW 1552   0.447   3.536   2.984  0.4318  0.2200  0.2938
  215SOL    HW1 1553   0.466   3.457   2.933  0.1281 -0.1517  0.7421
  215SOL    HW2 1554   0.360   3.563   2.955  0.8871  0.9114 -0.4939
  216SOL     OW 1555   3.136   5.510   7.021 -0.0519 -0.1738  0.2632
  216SOL    HW1 1556   3.161   5.594   6.982  1.2770 -0.5962  0.1325
  216SOL    HW2 1557   3.073   5.473   6.959 -0.6420  0.7258  0.3224
  217SOL     OW 1558   3.296   3.990   2.810 -0.3119  0.3438 -0.4178
  217SOL    HW1 1559   3.301   3.895   2.818  0.7697  0.5186  1.9551
  217SOL    HW2 1560   3.380   4.022   2.845 -1.1640  2.1918  0.0883
  218SOL     OW 1561   5.284   5.222   4.293  0.2795 -0.3166 -0.1569
  218SOL    HW1 1562   5.358   5.248   4.238  1.3959  2.1387  2.2849
  218SOL    HW2 1563   5.323   5.164   4.359 -0.1080  0.2821  0.6133
  219SOL     OW 1564   1.074   4.304   7.523  0.2609 -0.5061  0.2041
  219SOL    HW1 1565   0.989   4.330   7.560  0.7854 -0.7921  1.6772
  219SOL    HW2 1566   1.081   4.211   7.544  2.0075  0.0354  2.3669
  220SOL     OW 1567   6.070   6.047   2.036 -0.3627  0.6393 -1.0227
  220SOL    HW1 1568   6.022   6.117   1.993 -1.1456 -0.0862 -1.3581
  220SOL    HW2 1569   6.079   5.979   1.970  0.6346  0.5246 -0.7882
  221SOL     OW 1570   3.330   5.024   1.571  0.0131 -0.5733 -0.2887
  221SOL    HW1 1571   3.294   5.079   1.640  0.4424 -0.2239 -0.3404
  221SOL    HW2 1572   3.378   5.084   1.514  2.6815 -1.2705  1.0447
  222SOL     OW 1573   6.965   1.892   0.036 -0.0440 -0.6246 -0.3380
  222SOL    HW1 1574   6.994   1.977   0.069  2.6648 -3.3608  5.9978
  222SOL    HW2 1575   7.036   1.864  -0.021 -0.6708  0.9684 -1.9908
  223SOL     OW 1576   2.920   4.005   0.011  0.0449  0.0710  0.5998
  223SOL    HW1 1577   2.825   4.008  -0.002  0.1189  1.2226  0.2636
  223SOL    HW2 1578   2.932   4.037   0.100  0.1436  0.2542  0.5197
  224SOL     OW 1579   1.822   5.369   3.100  0.0491  0.1914 -0.3483
  224SOL    HW1 1580   1.754   5.436   3.111  0.8523  0.9705  0.0427
  224SOL    HW2 1581   1.777   5.286   3.115 -0.7218  0.7219  0.3786
  225SOL     OW 1582   0.709   3.646   2.224  0.1786  0.3470 -0.0979
  225SOL    HW1 1583   0.750   3.677   2.305  0.1171  0.1317  0.0169
  225SOL    HW2 1584   0.724   3.716   2.161  0.1416  0.5608  0.1282
  226SOL     OW 1585   1.984   2.241   2.698 -0.1844  0.1437 -0.0703
  226SOL    HW1 1586   1.987   2.320   2.752  1.3288  0.7669 -0.9947
  226SOL    HW2 1587   2.076   2.220   2.681 -0.5837 -1.3596 -0.5013
  227SOL     OW 1588   4.152   0.896   4.449  0.1675  0.7102 -0.2228
  227SOL    HW1 1589   4.198   0.947   4.382  0.1674  0.1713 -0.6450
  227SOL    HW2 1590   4.128   0.960   4.516  1.7553  0.9772  0.1330
  228SOL     OW 1591   0.484   4.409   5.245  0.3113  0.1562  0.0438
  228SOL    HW1 1592   0.512   4.362   5.324  0.3657  1.2703  0.7066
  228SOL    HW2 1593   0.565   4.423   5.196  0.7490  2.0475  1.2318
  229SOL     OW 1594   1.252   5.118   4.775  0.0253 -0.2457 -0.4431
  229SOL    HW1 1595   1.307   5.040   4.784  1.1587  0.5663  0.0032
  229SOL    HW2 1596   1.260   5.143   4.683 -1.1297 -1.1957 -0.8173
  230SOL     OW 1597   4.937   6.518   5.410 -0.0994 -0.3923 -0.3085
  230SOL    HW1 1598   4.946   6.427   5.381 -1.9098 -0.2483 -1.5277
  230SOL    HW2 1599   4.872   6.514   5.481  0.9666 -0.2030  0.7035
  231SOL     OW 1600   6.949   1.785   4.423 -0.3336  0.2223  0.0219
  231SOL    HW1 1601   6.991   1.765   4.339 -1.4522 -0.5564 -0.3867
  231SOL    HW2 1602   6.977   1.714   4.481  0.4655  0.7783  0.3294
  232SOL     OW 1603   0.997   4.131   3.058  0.5235  0.3138  0.1907
  232SOL    HW1 1604   0.931   4.135   2.989 -0.9729 -1.2247  1.4399
  232SOL    HW2 1605   1.050   4.209   3.045 -1.6957  1.7722 -0.7106
  233SOL     OW 1606   5.385   7.592   0.620  0.0141  0.2060 -0.4727
  233SOL    HW1 1607   5.301   7.554   0.647  0.0998  2.0859  3.0764
  233SOL    HW2 1608   5.387   7.678   0.661  2.8247  1.0960 -2.1982
  234SOL     OW 1609   4.028   0.420   2.865  0.3363 -0.3024  0.0388
  234SOL    HW1 1610   3.963   0.350   2.864 -1.3017  1.1439  0.0852
  234SOL    HW2 1611   4.105   0.382   2.823 -0.4968 -2.1080  0.0596
  235SOL     OW 1612   2.775   3.850   3.492  0.2444 -0.1305 -0.9579
  235SOL    HW1 1613   2.808   3.813   3.574  0.7299  0.4420 -0.8871
  235SOL    HW2 1614   2.680   3.838   3.497  0.2816 -0.2298 -0.3724
  236SOL     OW 1615   0.687   4.705   3.465  0.3430  0.5567 -0.2838
  236SOL    HW1 1616   0.714   4.795   3.448  1.4087  0.7921  2.2577
  236SOL    HW2 1617   0.599   4.712   3.500  0.5412  0.6441  0.1996
  237SOL     OW 1618   6.856   2.459   2.365  0.1434 -0.3904  0.4343
  237SOL    HW1 1619   6.778   2.507   2.336 -0.6489 -0.5750  2.1645
  237SOL    HW2 1620   6.926   2.492   2.308 -1.1046  0.0308 -0.9292
  238SOL     OW 1621   5.778   0.607   2.675  0.2703  0.4225  0.4314
  238SOL    HW1 1622   5.755   0.557   2.596  0.4937 -1.2954  1.4162
  238SOL    HW2 1623   5.868   0.635   2.660 -0.2420  1.6500 -0.6490
  239SOL     OW 1624   0.975   3.586   1.172  0.1090  0.2793  0.1239
  239SOL    HW1 1625   1.044   3.521   1.174  0.1321  0.2958 -0.1029
  239SOL    HW2 1626   0.925   3.566   1.093  0.3799  0.8031 -0.1878
  240SOL     OW 1627   0.397   6.136   7.409  0.0676 -0.2218 -0.0314
  240SOL    HW1 1628   0.343   6.070   7.452 -0.5105  1.2751  1.7190
  240SOL    HW2 1629   0.346   6.163   7.333 -0.4127 -0.7030  0.1142
  241SOL     OW 1630   3.013   4.887   4.877  0.5152 -0.1100  0.3599
  241SOL    HW1 1631   2.967   4.947   4.820 -0.8098 -1.2902  0.1525
  241SOL    HW2 1632   2.945   4.846   4.930  1.3725 -1.4081  0.5134
  242SOL     OW 1633   0.503   3.440   6.219  0.2353 -0.4280 -0.0619
  242SOL    HW1 1634   0.570   3.500   6.252 -0.9909  0.7710  0.3386
  242SOL    HW2 1635   0.454   3.413   6.297 -1.3565  0.7647 -0.5847
  243SOL     OW 1636   7.709   7.013   5.144  0.3187 -0.4149 -0.4218
  243SOL    HW1 1637   7.722   6.923   5.113 -0.2584 -0.1677 -1.4279
  243SOL    HW2 1638   7.617   7.032   5.125  0.7327  0.7979 -1.3591
  244SOL     OW 1639   0.111   3.950   7.237 -0.2215  0.0049 -0.0287
  244SOL    HW1 1640   0.111   4.022   7.174  0.4388  0.1975  0.1841
  244SOL    HW2 1641   0.023   3.951   7.275 -0.0015  1.1445  0.4750
  245SOL     OW 1642   7.630   6.529   6.995  0.5891  0.1911 -0.0331
  245SOL    HW1 1643   7.642   6.435   7.002  1.1919  0.3655  3.9107
  245SOL    HW2 1644   7.717   6.566   7.007  0.7549  1.3920 -3.6483
  246SOL     OW 1645   0.787   7.173   3.024 -0.2611  0.2827  0.2267
  246SOL    HW1 1646   0.836   7.195   3.103 -0.9251 -1.1220  1.0548
  246SOL    HW2 1647   0.843   7.113   2.976  0.2238  1.2807 -0.4973
  247SOL     OW 1648   1.176   6.088   6.841  0.0436 -0.0762  0.2563
  247SOL    HW1 1649   1.127   6.168   6.861 -0.0916 -0.1834  0.3606
  247SOL    HW2 1650   1.124   6.045   6.772  0.3862  0.1790 -0.1627
  248SOL     OW 1651   4.438   4.509   5.570  0.1306  0.2947 -0.9698
  248SOL    HW1 1652   4.498   4.579   5.597 -0.2459 -0.0474  0.8369
  248SOL    HW2 1653   4.450   4.440   5.634  0.9050 -1.6105 -3.0193
  249SOL     OW 1654   7.510   4.330   0.916  0.1208 -0.0533 -0.0594
  249SOL    HW1 1655   7.592   4.281   0.923 -0.1113 -0.6142 -0.9828
  249SOL    HW2 1656   7.519   4.402   0.978  0.8625 -0.7288  0.6439
  250SOL     OW 1657   6.661   3.175   5.350 -0.7190  0.3080  0.2593
  250SOL    HW1 1658   6.660   3.201   5.442  0.2488 -0.0957  0.3960
  250SOL    HW2 1659   6.613   3.093   5.348 -1.7638  0.9043  0.2009
  251SOL     OW 1660   0.212   7.702   5.682 -0.0132  0.2161 -0.3045
  251SOL    HW1 1661   0.161   7.621   5.678 -0.1725  0.3456 -1.2318
  251SOL    HW2 1662   0.157   7.766   5.636  0.8343  0.4358 -1.0303
  252SOL     OW 1663   1.872   4.810   0.435  0.4817 -0.7767  0.3960
  252SOL    HW1 1664   1.836   4.881   0.488  1.1126 -1.3159  1.6022
  252SOL    HW2 1665   1.952   4.847   0.397 -0.8685  0.1757 -1.6673
  253SOL     OW 1666   2.145   5.060   5.526  0.1981  0.4558  0.0313
  253SOL    HW1 1667   2.053   5.041   5.547  0.6030 -0.4231  1.1596
  253SOL    HW2 1668   2.160   5.148   5.561 -0.1563  0.5057  0.0611
  254SOL     OW 1669   6.482   3.752   6.562 -0.3036  0.2908 -0.8067
  254SOL    HW1 1670   6.536   3.746   6.641 -1.8460 -2.3221  0.1635
  254SOL    HW2 1671   6.424   3.826   6.579 -0.5971 -0.2189  0.5416
  255SOL     OW 1672   5.667   7.501   3.496 -0.2435  0.2158  0.4540
  255SOL    HW1 1673   5.613   7.574   3.464  0.1584 -0.3568 -1.7132
  255SOL    HW2 1674   5.748   7.507   3.446 -0.0380 -1.4602  0.5204
  256SOL     OW 1675   4.756   0.423   3.464  0.2403 -0.2232  0.6762
  256SOL    HW1 1676   4.676   0.434   3.414 -0.4891  0.4803  1.9517
  256SOL    HW2 1677   4.731   0.442   3.555  1.3869 -1.9744  1.4217
  257SOL     OW 1678   4.670   4.998   5.897 -0.1699 -0.5487 -0.1103
  257SOL    HW1 1679   4.677   5.024   5.989  1.8982  3.1857 -1.1131
  257SOL    HW2 1680   4.577   5.011   5.876 -0.8100 -2.0782  1.5205
  258SOL     OW 1681   4.908   0.415   3.056 -0.2624  0.2373 -0.3438
  258SOL    HW1 1682   4.914   0.496   3.107 -1.6784  0.0877  0.1100
  258SOL    HW2 1683   4.846   0.436   2.986  0.3861 -0.0661 -1.0166
  259SOL     OW 1684   7.703   3.986   1.529 -0.0086 -0.2778  0.3574
  259SOL    HW1 1685   7.643   3.953   1.463  0.1525 -0.2043  0.1719
  259SOL    HW2 1686   7.709   4.080   1.511  0.8883 -0.4297 -0.2266
  260SOL     OW 1687   2.749   1.854   4.997 -0.3393  0.4111 -0.0614
  260SOL    HW1 1688   2.671   1.859   4.942 -1.2282 -4.3556  0.3000
  260SOL    HW2 1689   2.815   1.814   4.941  0.8341  1.3568  0.5925
  261SOL     OW 1690   6.858   2.456   6.211  0.8769  0.4232  0.1554
  261SOL    HW1 1691   6.793   2.392   6.241  1.9960 -0.2287  1.2958
  261SOL    HW2 1692   6.889   2.421   6.128  0.3300  0.3249 -0.0100
  262SOL     OW 1693   3.717   3.725   2.290  0.0739 -0.3184  0.2234
  262SOL    HW1 1694   3.760   3.778   2.223 -0.9219 -1.4368 -1.3740
  262SOL    HW2 1695   3.640   3.689   2.246 -0.3923 -1.4382  1.8669
  263SOL     OW 1696   5.902   1.323   5.340  0.4676  0.5171  0.0199
  263SOL    HW1 1697   5.892   1.398   5.399  0.7358 -0.0681  0.8345
  263SOL    HW2 1698   5.852   1.253   5.381  1.0962 -0.0565 -0.1628
  264SOL     OW 1699   6.178   5.019   5.129 -0.0336  0.3985 -0.2856
  264SOL    HW1 1700   6.088   5.044   5.147 -0.0543  0.7368 -0.8293
  264SOL    HW2 1701   6.217   5.005   5.215 -0.8905 -0.7923 -0.0628
  265SOL     OW 1702   5.681   4.912   3.662  0.6689 -0.5173 -0.0261
  265SOL    HW1 1703   5.760   4.932   3.712  0.1758 -0.0084  0.5740
  265SOL    HW2 1704   5.713   4.873   3.581  1.5639  0.1913 -0.0331
  266SOL     OW 1705   2.561   5.727   1.871 -0.0463 -0.2202  0.2806
  266SOL    HW1 1706   2.501   5.756   1.801 -0.4166  1.9554  1.3983
  266SOL    HW2 1707   2.548   5.792   1.940  2.5872 -0.5268  1.1299
  267SOL     OW 1708   4.395   0.128   6.323 -0.1969  0.2744 -0.1711
  267SOL    HW1 1709   4.346   0.187   6.380 -0.7962 -0.7078  0.3576
  267SOL    HW2 1710   4.381   0.041   6.360  2.4100 -0.0111  0.3500
  268SOL     OW 1711   0.104   4.814   4.182  0.1054 -0.4741  1.2017
  268SOL    HW1 1712   0.100   4.907   4.158 -3.0170 -0.8206 -0.0351
  268SOL    HW2 1713   0.115   4.814   4.277  1.0056  1.1121  1.1343
  269SOL     OW 1714   0.640   2.269   3.401  0.4426  0.0380  0.7072
  269SOL    HW1 1715   0.564   2.212   3.391  0.0574  0.5443  0.6892
  269SOL    HW2 1716   0.715   2.210   3.397  0.0593 -0.4484  0.5550
  270SOL     OW 1717   3.317   0.128   4.977 -0.0901  0.5323  0.5961
  270SOL    HW1 1718   3.313   0.213   4.935 -0.6103  0.6479  0.8658
  270SOL    HW2 1719   3.267   0.070   4.919  0.4848  0.3443  0.2761
  271SOL     OW 1720   5.566   6.864   6.747 -0.1367 -0.5382  0.3558
  271SOL    HW1 1721   5.534   6.954   6.740  0.6410 -0.0167  2.6657
  271SOL    HW2 1722   5.631   6.857   6.677 -1.1787  0.2100 -0.7388
  272SOL     OW 1723   3.519   3.478   1.474  0.1202  0.8373  0.1969
  272SOL    HW1 1724   3.521   3.522   1.389 -0.4896 -1.7329 -1.2345
  272SOL    HW2 1725   3.611   3.457   1.492  0.1620  0.6255 -0.2534
  273SOL     OW 1726   3.101   0.872   0.438 -0.2906 -0.1389  0.2843
  273SOL    HW1 1727   3.024   0.894   0.491 -0.3740 -1.2948  0.6661
  273SOL    HW2 1728   3.167   0.843   0.501 -0.6862 -2.3920 -0.2428
  274SOL     OW 1729   5.098   5.363   0.398 -0.6290 -0.0533 -0.4686
  274SOL    HW1 1730   5.117   5.305   0.471  1.0461  0.2906 -0.5773
  274SOL    HW2 1731   5.142   5.322   0.323 -0.4464  0.7283 -0.8003
  275SOL     OW 1732   4.119   1.395   7.442 -0.4466  0.6657 -0.2298
  275SOL    HW1 1733   4.096   1.333   7.373 -0.5986  1.4498 -0.8994
  275SOL    HW2 1734   4.172   1.344   7.504  2.1636  0.5851 -2.3419
  276SOL     OW 1735   3.402   3.001   5.619  0.3527  0.7288  0.4173
  276SOL    HW1 1736   3.326   2.971   5.669  1.2617 -0.4685  1.1281
  276SOL    HW2 1737   3.443   3.067   5.675 -0.8127  2.3165 -0.5056
  277SOL     OW 1738   6.782   0.040   4.398 -0.7706 -0.5239 -1.2285
  277SOL    HW1 1739   6.787   0.121   4.448 -0.2680 -0.4047 -1.4552
  277SOL    HW2 1740   6.722  -0.016   4.447 -1.1538 -0.0003 -1.0915
  278SOL     OW 1741   2.779   3.054   7.148 -0.0806 -0.1230 -0.9808
  278SOL    HW1 1742   2.861   3.096   7.173 -0.6562  1.4165 -1.5534
  278SOL    HW2 1743   2.723   3.126   7.119 -1.7591 -1.1003 -0.2847
  279SOL     OW 1744   2.036   6.414   1.460 -0.0564 -0.0086  0.1014
  279SOL    HW1 1745   2.056   6.379   1.546 -1.5222 -0.8024  0.1435
  279SOL    HW2 1746   2.046   6.339   1.401 -0.6845  0.1130 -0.1696
  280SOL     OW 1747   1.188   7.328   5.709  0.1135  0.4659  0.6666
  280SOL    HW1 1748   1.226   7.344   5.622  1.3138  2.1676  1.4445
  280SOL    HW2 1749   1.263   7.328   5.768 -0.7285 -0.2395  1.7710
  281SOL     OW 1750   4.044   6.051   2.802  0.3746  0.7245  0.1305
  281SOL    HW1 1751   3.998   5.985   2.853 -0.5407  1.5082  0.3394
  281SOL    HW2 1752   4.123   6.070   2.852  1.3359 -1.1301 -0.5717
  282SOL     OW 1753   3.956   4.150   2.312 -0.3859  0.2036  0.3861
  282SOL    HW1 1754   4.029   4.173   2.368  0.2039 -0.3699 -0.1285
  282SOL    HW2 1755   3.987   4.075   2.261 -1.4164 -0.2093  0.3404
  283SOL     OW 1756   7.159   3.293   0.415 -0.0512 -0.1865 -0.3820
  283SOL    HW1 1757   7.071   3.325   0.393 -0.5358 -2.1776 -1.5454
  283SOL    HW2 1758   7.168   3.311   0.509 -1.0636  1.4140 -0.5421
  284SOL     OW 1759   6.435   1.897   7.666  0.4257 -0.1080 -0.5327
  284SOL    HW1 1760   6.472   1.815   7.636  1.1820 -0.2379  0.6970
  284SOL    HW2 1761   6.510   1.953   7.685  0.0059 -0.1004  1.2558
  285SOL     OW 1762   5.156   3.718   1.923 -0.5968 -0.5990 -1.0058
  285SOL    HW1 1763   5.183   3.729   2.014  1.5619 -0.5059 -1.5995
  285SOL    HW2 1764   5.088   3.785   1.909  1.1979  1.4886 -0.2617
  286SOL     OW 1765   4.559   7.654   4.099 -0.3426  0.2060 -0.4414
  286SOL    HW1 1766   4.606   7.665   4.016  1.2464  0.4841  0.4458
  286SOL    HW2 1767   4.591   7.571   4.134  0.0761  0.7563  0.5326
  287SOL     OW 1768   3.273   4.402   1.587 -0.2198 -0.3277 -0.1372
  287SOL    HW1 1769   3.301   4.493   1.578 -0.8413 -0.2268 -1.2448
  287SOL    HW2 1770   3.342   4.351   1.543 -1.1043 -0.1698 -1.7966
  288SOL     OW 1771   5.122   6.077   6.606  0.2854  0.1108 -0.2053
  288SOL    HW1 1772   5.150   6.018   6.536  0.9268 -0.5415  0.5746
  288SOL    HW2 1773   5.183   6.151   6.601  2.3085 -1.3058  1.4894
  289SOL     OW 1774   5.116   2.405   2.125  0.5149  0.2670 -0.3610
  289SOL    HW1 1775   5.167   2.471   2.172  1.5214 -0.2149 -0.7451
  289SOL    HW2 1776   5.076   2.353   2.194  1.3348  0.0628 -0.0212
  290SOL     OW 1777   1.425   6.826   1.136 -0.1239 -0.7090 -0.2163
  290SOL    HW1 1778   1.370   6.791   1.207 -0.7911 -0.3582 -0.5448
  290SOL    HW2 1779   1.381   6.797   1.056  0.5707 -1.0187 -0.4883
  291SOL     OW 1780   6.927   4.209   5.112 -0.5790  0.1526  0.2232
  291SOL    HW1 1781   6.930   4.304   5.123 -0.1487  0.0836  0.7539
  291SOL    HW2 1782   6.843   4.183   5.152  0.3073  0.0740  2.1538
  292SOL     OW 1783   1.394   5.436   3.064  0.3109 -0.1832  0.2347
  292SOL    HW1 1784   1.338   5.422   2.988  1.3579 -1.0316 -0.3971
  292SOL    HW2 1785   1.334   5.430   3.139 -0.6805  0.3969 -0.4877
  293SOL     OW 1786   2.525   2.385   1.525  0.3888 -0.0075  0.2809
  293SOL    HW1 1787   2.472   2.335   1.586  1.3224 -0.8066  0.4651
  293SOL    HW2 1788   2.471   2.462   1.503  0.3225  0.7254  2.6995
  294SOL     OW 1789   4.424   1.237   2.172  0.2419 -0.1045  0.0285
  294SOL    HW1 1790   4.393   1.264   2.258  0.7501  1.0641 -0.1347
  294SOL    HW2 1791   4.485   1.165   2.189 -1.1231 -1.1896  0.4816
  295SOL     OW 1792   0.414   0.011   3.890 -0.0077  0.2286 -0.0981
  295SOL    HW1 1793   0.408  -0.044   3.968 -2.0360  2.3080  1.3240
  295SOL    HW2 1794   0.486   0.072   3.909  0.0110  0.2365 -0.1935
  296SOL     OW 1795   4.188   4.443   2.744 -0.2759 -0.4381  0.4750
  296SOL    HW1 1796   4.270   4.455   2.696 -1.6216  0.7658 -1.6884
  296SOL    HW2 1797   4.208   4.472   2.833  1.4413  0.5970 -0.1979
  297SOL     OW 1798   7.195   2.456   1.181  0.9876  0.0721 -0.1667
  297SOL    HW1 1799   7.280   2.490   1.207  0.3672  1.0126  0.7600
  297SOL    HW2 1800   7.160   2.522   1.122 -0.1910  1.0984  1.5744
  298SOL     OW 1801   3.459   7.312   0.593 -0.0462  0.2666  1.1285
  298SOL    HW1 1802   3.407   7.388   0.568  0.6600  0.6029  0.6539
  298SOL    HW2 1803   3.476   7.266   0.511 -2.9404 -2.0852  1.6715
  299SOL     OW 1804   7.538   1.839   6.443 -0.2596 -0.6845  0.1118
  299SOL    HW1 1805   7.460   1.867   6.395  0.7394  0.8727 -0.6755
  299SOL    HW2 1806   7.562   1.915   6.495 -0.6147 -1.9464  2.2380
  300SOL     OW 1807   6.075   4.883   7.720 -0.7367 -0.8179 -0.0933
  300SOL    HW1 1808   6.020   4.854   7.647 -0.2524 -0.8386 -0.4550
  300SOL    HW2 1809   6.155   4.831   7.712 -1.1518 -1.7235  1.1856
  301SOL     OW 1810   5.851   4.540   2.576 -0.0980 -0.3232 -0.5890
  301SOL    HW1 1811   5.880   4.451   2.598  1.3520  0.5349  1.1391
  301SOL    HW2 1812   5.761   4.544   2.607 -0.4537 -1.4282 -1.4154
  302SOL     OW 1813   6.489   2.749   2.075 -0.0921 -0.5557 -0.1484
  302SOL    HW1 1814   6.505   2.660   2.043  4.1110  0.5183 -1.7913
  302SOL    HW2 1815   6.419   2.783   2.019  1.2332 -1.5346 -2.5524
  303SOL     OW 1816   7.310   6.878   1.388 -0.0237 -0.3592  0.4647
  303SOL    HW1 1817   7.381   6.937   1.413 -0.5655  0.5011 -0.0008
  303SOL    HW2 1818   7.255   6.872   1.466 -0.8162  1.0099  0.0302
  304SOL     OW 1819   4.779   6.008   5.342 -0.3711 -0.0355  0.3118
  304SOL    HW1 1820   4.830   5.952   5.284 -0.5137  0.0648  0.0857
  304SOL    HW2 1821   4.712   5.950   5.380 -0.1298 -0.1535  0.5622
  305SOL     OW 1822   3.767   1.374   0.296  0.8093  0.0422  0.0935
  305SOL    HW1 1823   3.735   1.302   0.242  0.2182 -0.4599  1.0885
  305SOL    HW2 1824   3.692   1.399   0.351  0.7992  1.8558 -0.6680
  306SOL     OW 1825   2.595   5.599   3.665 -0.3902  0.3643 -0.0742
  306SOL    HW1 1826   2.552   5.563   3.588 -0.6796 -1.3703  0.8546
  306SOL    HW2 1827   2.560   5.548   3.739  0.2265  1.6527  1.1569
  307SOL     OW 1828   2.849   3.794   2.415 -0.8180 -0.4283 -0.0943
  307SOL    HW1 1829   2.914   3.857   2.446 -2.2800  0.7055  0.7950
  307SOL    HW2 1830   2.897   3.739   2.352  1.2719 -0.3942  1.3677
  308SOL     OW 1831   1.040   5.302   4.720  0.3803 -0.0487 -0.4898
  308SOL    HW1 1832   1.114   5.255   4.757  0.3474  0.0039 -0.3567
  308SOL    HW2 1833   1.064   5.395   4.725  0.3495 -0.0374 -0.5421
  309SOL     OW 1834   5.615   6.628   5.355  0.2312  0.0031 -0.1104
  309SOL    HW1 1835   5.627   6.574   5.277  0.6269 -0.2221  0.1008
  309SOL    HW2 1836   5.557   6.699   5.327 -2.1857 -1.7354  0.1467
  310SOL     OW 1837   3.827   1.961   6.421  0.2262  0.0545  0.5559
  310SOL    HW1 1838   3.761   2.012   6.467  1.1226  0.9779  0.8722
  310SOL    HW2 1839   3.888   1.933   6.490 -0.0394 -1.1351  0.3344
  311SOL     OW 1840   5.308   2.761   6.293 -0.1535 -0.7204  0.2661
  311SOL    HW1 1841   5.339   2.670   6.285  1.2159 -0.2388 -0.2811
  311SOL    HW2 1842   5.222   2.761   6.251 -0.1313 -1.7462  0.1935
  312SOL     OW 1843   6.118   2.953   7.003 -0.0450  0.4788  0.5762
  312SOL    HW1 1844   6.174   3.027   6.981 -0.1497 -0.1096 -1.9664
  312SOL    HW2 1845   6.105   2.907   6.920 -1.8841 -1.0789  1.6398
  313SOL     OW 1846   4.848   0.349   2.018 -0.2255  0.2939  0.0783
  313SOL    HW1 1847   4.827   0.439   1.991 -0.6712  0.1770  0.0314
  313SOL    HW2 1848   4.795   0.335   2.097 -1.9142 -0.7084 -1.1692
  314SOL     OW 1849   3.590   5.169   5.036  0.1119 -0.0387 -0.3270
  314SOL    HW1 1850   3.582   5.075   5.021 -0.6936 -0.1282  0.5677
  314SOL    HW2 1851   3.534   5.186   5.112 -0.3159  1.2734 -0.9118
  315SOL     OW 1852   3.322   4.265   4.700 -0.4348  0.0640  0.0409
  315SOL    HW1 1853   3.304   4.248   4.793  0.5113  0.8247  0.3757
  315SOL    HW2 1854   3.249   4.320   4.671 -1.0465 -0.6577  0.1597
  316SOL     OW 1855   2.631   5.278   1.014  0.2598  0.1743  0.2457
  316SOL    HW1 1856   2.624   5.215   0.942 -1.2258  0.9423 -0.3376
  316SOL    HW2 1857   2.683   5.233   1.081 -0.4185 -1.5128 -0.3074
  317SOL     OW 1858   5.561   2.403   5.851  0.1389  0.7425 -0.1971
  317SOL    HW1 1859   5.522   2.480   5.892  0.6793  0.6952  0.4296
  317SOL    HW2 1860   5.655   2.414   5.864  0.3738  0.9383 -1.8275
  318SOL     OW 1861   1.523   7.098   7.645  0.0057  0.0004 -0.1393
  318SOL    HW1 1862   1.568   7.050   7.575  2.5506  0.5613  1.0309
  318SOL    HW2 1863   1.558   7.062   7.726 -1.1950  0.9439  0.8483
  319SOL     OW 1864   3.315   7.332   2.415 -0.1943 -0.0570 -0.0240
  319SOL    HW1 1865   3.401   7.304   2.445 -0.2632 -0.3416 -0.0978
  319SOL    HW2 1866   3.305   7.292   2.329 -0.0722  0.6091 -0.3565
  320SOL     OW 1867   2.016   6.516   0.030  0.4371 -0.3280 -0.2636
  320SOL    HW1 1868   2.051   6.603   0.047  1.4393 -0.4825 -1.3775
  320SOL    HW2 1869   2.003   6.513  -0.065  0.5545 -1.4318 -0.2624
  321SOL     OW 1870   0.750   4.192   1.246  0.7465 -0.0106 -0.4911
  321SOL    HW1 1871   0.802   4.173   1.168  1.6526  1.8838 -0.4062
  321SOL    HW2 1872   0.801   4.258   1.293 -0.4781 -0.0577  0.9744
  322SOL     OW 1873   2.936   5.019   6.219  0.2703 -0.0133  0.3656
  322SOL    HW1 1874   2.861   5.064   6.181 -0.0212 -0.5502  0.2807
  322SOL    HW2 1875   3.012   5.067   6.188  0.1117 -0.9725 -1.7022
  323SOL     OW 1876   3.484   3.943   1.355  0.3846 -0.3292 -0.0110
  323SOL    HW1 1877   3.429   3.971   1.428 -0.4237 -1.7471 -0.0457
  323SOL    HW2 1878   3.490   3.848   1.364  1.6894 -0.3530 -0.8278
  324SOL     OW 1879   0.526   4.293   5.559  0.2361  0.1538 -0.2119
  324SOL    HW1 1880   0.604   4.317   5.609 -0.2284  1.0685  0.0934
  324SOL    HW2 1881   0.453   4.312   5.618 -0.1935 -2.6025  0.3197
  325SOL     OW 1882   0.142   5.108   3.756  0.2060 -0.6316 -0.0889
  325SOL    HW1 1883   0.142   5.021   3.796  0.4209 -0.1376  1.0370
  325SOL    HW2 1884   0.156   5.168   3.830  2.9648  0.2099 -1.1629
  326SOL     OW 1885   1.215   6.643   0.995  0.6494 -0.4752 -0.1832
  326SOL    HW1 1886   1.268   6.578   0.949 -0.7121 -1.3642 -0.5388
  326SOL    HW2 1887   1.129   6.637   0.954  0.0358  0.3762  0.9332
  327SOL     OW 1888   1.298   0.189   5.091  0.1221  0.6023 -0.0249
  327SOL    HW1 1889   1.273   0.230   5.008  0.3320  1.3090  0.2615
  327SOL    HW2 1890   1.314   0.097   5.067  0.7994  0.9244 -0.8900
  328SOL     OW 1891   3.962   6.404   4.371 -0.1276 -0.3956 -0.4900
  328SOL    HW1 1892   4.024   6.473   4.346 -0.0693 -0.3150 -0.1337
  328SOL    HW2 1893   4.003   6.323   4.342 -0.4964 -0.2307 -1.4994
  329SOL     OW 1894   2.511   2.504   2.817 -0.1312 -0.3719 -0.1992
  329SOL    HW1 1895   2.511   2.417   2.857  1.1730  0.4203  1.6040
  329SOL    HW2 1896   2.563   2.493   2.737  3.3591 -0.5159  1.9004
  330SOL     OW 1897   5.500   2.153   3.336  0.4289  0.3575 -0.1806
  330SOL    HW1 1898   5.582   2.107   3.354 -0.9098 -2.2678 -0.1807
  330SOL    HW2 1899   5.463   2.170   3.423 -0.0612 -0.6159 -0.1756
  331SOL     OW 1900   1.747   5.697   3.488 -0.2431 -0.4964  0.5329
  331SOL    HW1 1901   1.692   5.752   3.544  0.2155 -1.3390  1.8593
  331SOL    HW2 1902   1.714   5.712   3.399 -1.6041  0.1638  1.1266
  332SOL     OW 1903   5.954   3.372   6.686  0.4125 -0.5680  0.3556
  332SOL    HW1 1904   5.921   3.438   6.747  2.0886 -0.0398  0.7377
  332SOL    HW2 1905   5.993   3.422   6.614  1.0498 -1.1431  0.2897
  333SOL     OW 1906   4.428   3.261   1.196 -0.1940 -0.1494 -0.8411
  333SOL    HW1 1907   4.449   3.176   1.236 -1.1575 -0.9975 -2.0414
  333SOL    HW2 1908   4.416   3.241   1.104 -4.1614  0.5657 -0.6193
  334SOL     OW 1909   5.991   7.442   4.865 -0.2786  0.2079  0.4770
  334SOL    HW1 1910   5.953   7.356   4.885  0.0936 -0.2603 -0.7591
  334SOL    HW2 1911   5.960   7.462   4.777  0.4473  0.8927  0.3684
  335SOL     OW 1912   0.244   2.975   5.211  0.4249  0.1535 -0.0062
  335SOL    HW1 1913   0.173   2.985   5.147  0.1479  1.2111  0.4422
  335SOL    HW2 1914   0.290   2.896   5.184 -0.2361  0.0874 -0.9817
  336SOL     OW 1915   2.732   4.508   3.859 -0.5112 -0.1503  0.2848
  336SOL    HW1 1916   2.639   4.530   3.870 -0.4464 -0.0398  0.6140
  336SOL    HW2 1917   2.779   4.586   3.888 -0.3371  0.3701 -1.2955
  337SOL     OW 1918   7.475   3.009   3.639 -0.0188  0.1616  0.2937
  337SOL    HW1 1919   7.440   2.948   3.575 -0.7960  2.0817 -1.2084
  337SOL    HW2 1920   7.566   3.022   3.613 -0.4551  1.2974 -0.7990
  338SOL     OW 1921   5.542   7.163   0.019  0.5205  0.0487  0.1301
  338SOL    HW1 1922   5.496   7.091   0.063 -0.4777 -1.6026 -3.2709
  338SOL    HW2 1923   5.497   7.242   0.049  0.2148 -0.8773  2.3257
  339SOL     OW 1924   5.088   0.361   1.286 -0.1052  0.0009 -0.1424
  339SOL    HW1 1925   5.143   0.436   1.266  1.2920 -0.5597  1.3860
  339SOL    HW2 1926   5.146   0.286   1.281 -0.8761 -0.6943  0.8072
  340SOL     OW 1927   7.330   6.693   0.817 -0.1240  0.2064  0.4209
  340SOL    HW1 1928   7.281   6.774   0.834 -0.8406  0.1285 -1.1617
  340SOL    HW2 1929   7.289   6.628   0.874  0.8352  1.0500  2.1498
  341SOL     OW 1930   7.169   0.808   6.402  0.7017  0.1763 -0.4910
  341SOL    HW1 1931   7.148   0.773   6.315 -1.7466 -0.9580  0.4582
  341SOL    HW2 1932   7.188   0.730   6.455  2.5718  0.8769 -0.0426
  342SOL     OW 1933   5.397   4.811   0.768  0.3987 -0.0286  0.4881
  342SOL    HW1 1934   5.482   4.769   0.756  0.6103  0.5638 -0.1153
  342SOL    HW2 1935   5.397   4.839   0.860 -0.3579 -2.6475  1.3902
  343SOL     OW 1936   2.115   0.396   5.174 -0.4131 -0.0756 -0.5687
  343SOL    HW1 1937   2.085   0.306   5.160 -2.8320  0.2052  1.8703
  343SOL    HW2 1938   2.191   0.388   5.231 -0.8124 -0.6071 -0.0921
  344SOL     OW 1939   6.612   6.863   7.336 -0.4365  0.0857  0.5327
  344SOL    HW1 1940   6.518   6.843   7.339 -0.7106  1.3487  1.0707
  344SOL    HW2 1941   6.621   6.923   7.262 -0.3423  1.2740  1.4816
  345SOL     OW 1942   2.924   5.532   1.434  0.5728 -0.5561 -0.3669
  345SOL    HW1 1943   2.983   5.495   1.500  1.0021  0.4243 -0.1800
  345SOL    HW2 1944   2.955   5.494   1.352  2.1683  0.7317 -0.4088
  346SOL     OW 1945   4.552   0.532   6.990  0.1353  0.2398 -0.4172
  346SOL    HW1 1946   4.546   0.559   6.898  0.6546 -1.1291 -0.8747
  346SOL    HW2 1947   4.645   0.523   7.006  0.0155 -0.2198  0.0318
  347SOL     OW 1948   4.190   6.572   3.113 -0.2329  0.2992  0.7513
  347SOL    HW1 1949   4.181   6.540   3.023  1.7673  4.2514 -1.1197
  347SOL    HW2 1950   4.102   6.598   3.138 -0.6710  0.1512 -0.5411
  348SOL     OW 1951   4.808   7.469   3.027 -0.3972  0.2649  0.2800
  348SOL    HW1 1952   4.717   7.479   3.001 -1.5622 -1.2128  3.3190
  348SOL    HW2 1953   4.831   7.380   2.999 -0.0041  0.5070 -0.1680
  349SOL     OW 1954   5.324   5.865   4.841  0.4551 -0.2608  0.0102
  349SOL    HW1 1955   5.302   5.813   4.763 -0.8415 -0.1140  0.2686
  349SOL    HW2 1956   5.273   5.826   4.911  1.2800 -0.1048  0.7102
  350SOL     OW 1957   6.525   4.368   4.886 -0.4184  0.1675  1.1374
  350SOL    HW1 1958   6.454   4.358   4.822  1.3391 -0.6166 -0.8095
  350SOL    HW2 1959   6.569   4.449   4.860  0.1320 -0.0022  1.5221
  351SOL     OW 1960   7.506   6.764   1.062  0.0363  0.0921  0.2276
  351SOL    HW1 1961   7.538   6.850   1.037  2.8629 -0.1482  2.5536
  351SOL    HW2 1962   7.580   6.705   1.049 -0.6706 -1.3166  2.0627
  352SOL     OW 1963   6.025   7.281   3.448  0.6909 -0.3149  0.5882
  352SOL    HW1 1964   6.058   7.242   3.367  0.5584 -1.1456  0.9195
  352SOL    HW2 1965   5.953   7.338   3.419  0.8384 -0.3737  0.0943
  353SOL     OW 1966   7.246   2.011   1.862  0.3243  0.3333 -1.0540
  353SOL    HW1 1967   7.239   1.939   1.925  1.3101  0.6304 -0.5755
  353SOL    HW2 1968   7.256   1.967   1.777  1.4627 -0.1404 -0.7057
  354SOL     OW 1969   5.288   5.960   5.619  0.1168  0.2112  0.3720
  354SOL    HW1 1970   5.268   5.871   5.589 -2.0844  0.3350  1.2852
  354SOL    HW2 1971   5.264   5.960   5.711  2.0966  1.2103  0.9335
  355SOL     OW 1972   2.569   6.720   4.809  0.3136 -0.5232  0.0840
  355SOL    HW1 1973   2.509   6.771   4.755  0.5964  1.9861  1.9775
  355SOL    HW2 1974   2.654   6.727   4.765  0.6270  1.8195  0.9531
  356SOL     OW 1975   2.944   5.040   5.318 -0.0374 -0.0802 -0.3699
  356SOL    HW1 1976   2.948   4.956   5.271 -0.0534 -0.9868  1.1850
  356SOL    HW2 1977   2.851   5.053   5.335  0.1571 -1.3414  2.0549
  357SOL     OW 1978   6.886   7.262   6.566 -0.0823  0.2718 -0.7557
  357SOL    HW1 1979   6.817   7.329   6.569 -3.0751 -2.5604 -0.1990
  357SOL    HW2 1980   6.875   7.213   6.647  2.4589 -0.5381 -0.8242
  358SOL     OW 1981   1.056   4.493   1.762 -0.4901 -0.0073 -0.6992
  358SOL    HW1 1982   1.043   4.412   1.713 -2.2163  0.5377 -1.2050
  358SOL    HW2 1983   1.140   4.481   1.807  0.1528 -1.3231 -2.1876
  359SOL     OW 1984   5.340   3.266   3.335  0.3151 -0.2210 -0.2583
  359SOL    HW1 1985   5.343   3.324   3.259  0.8325  0.1731  0.0544
  359SOL    HW2 1986   5.371   3.321   3.407 -1.1380 -0.2782  0.4427
  360SOL     OW 1987   6.062   7.011   7.391 -0.4266  0.0665 -0.1100
  360SOL    HW1 1988   5.993   7.074   7.368 -1.2723  0.2988  2.6898
  360SOL    HW2 1989   6.143   7.062   7.388 -0.9442  0.9836  0.8064
  361SOL     OW 1990   1.192   3.852   4.981  0.0501 -0.3348 -0.1991
  361SOL    HW1 1991   1.273   3.888   5.019 -0.8528  0.4260  1.0804
  361SOL    HW2 1992   1.204   3.757   4.988  0.4088 -0.2309  0.9857
  362SOL     OW 1993   3.093   5.884   4.150  0.0880 -0.4519 -0.2601
  362SOL    HW1 1994   3.172   5.848   4.191  0.4077  0.4959 -0.0156
  362SOL    HW2 1995   3.116   5.974   4.129 -1.2874  0.1853  0.8292
  363SOL     OW 1996   2.011   1.670   0.956  0.2432  0.6882  0.8954
  363SOL    HW1 1997   2.002   1.600   0.892 -2.2516 -0.1968  2.0709
  363SOL    HW2 1998   2.005   1.751   0.905  0.3159  0.0283 -0.1699
  364SOL     OW 1999   2.477   2.872   4.689 -0.1380 -0.4605  0.5542
  364SOL    HW1 2000   2.408   2.903   4.747 -0.1305  1.1120 -0.2234
  364SOL    HW2 2001   2.440   2.881   4.601  2.1339  3.9185 -0.2417
  365SOL     OW 2002   4.626   6.863   6.557 -0.1203  0.0768  0.1569
  365SOL    HW1 2003   4.677   6.826   6.485  0.1269  0.1030  0.3198
  365SOL    HW2 2004   4.538   6.874   6.520  0.6076  2.6859 -1.0503
  366SOL     OW 2005   5.773   5.968   3.431 -0.2926  0.5712 -0.0869
  366SOL    HW1 2006   5.812   5.969   3.343  0.3487  2.3192  0.1614
  366SOL    HW2 2007   5.799   5.884   3.469  1.1718  0.6588 -0.8318
  367SOL     OW 2008   7.713   3.026   5.888 -0.7931  0.2015  0.4981
  367SOL    HW1 2009   7.766   3.036   5.967 -1.6367 -2.4227  1.5136
  367SOL    HW2 2010   7.622   3.026   5.920 -1.1646 -0.4857 -0.5109
  368SOL     OW 2011   4.840   6.732   3.741  0.2087  0.7138 -0.0910
  368SOL    HW1 2012   4.845   6.765   3.651  0.0936 -3.1333 -1.6921
  368SOL    HW2 2013   4.930   6.705   3.761 -0.2002 -0.5707  0.0356
  369SOL     OW 2014   6.390   1.568   4.588 -0.3996 -0.3453  0.4374
  369SOL    HW1 2015   6.323   1.501   4.579 -0.4058 -0.2046 -0.7112
  369SOL    HW2 2016   6.455   1.547   4.521 -0.2581  0.6173  0.2513
  370SOL     OW 2017   7.664   3.966   0.961  0.1266 -0.8025 -0.0072
  370SOL    HW1 2018   7.758   3.960   0.979  0.0968 -1.8722 -0.1293
  370SOL    HW2 2019   7.647   3.892   0.902 -0.6139 -0.0411 -0.7754
  371SOL     OW 2020   4.509   2.620   2.959 -0.2996 -0.9553 -0.2185
  371SOL    HW1 2021   4.552   2.697   2.996 -1.5932 -0.9053  1.2595
  371SOL    HW2 2022   4.552   2.546   3.001 -0.8043 -0.9446  0.3254
  372SOL     OW 2023   0.254   6.771   2.671  0.6253 -0.5673 -0.2543
  372SOL    HW1 2024   0.278   6.839   2.735  0.2995 -0.7486  0.0606
  372SOL    HW2 2025   0.160   6.783   2.658  0.6925 -0.5253 -0.7117
  373SOL     OW 2026   2.165   0.544   4.851  0.0952  0.4982  0.5876
  373SOL    HW1 2027   2.122   0.578   4.930  1.1398  0.6563  1.0993
  373SOL    HW2 2028   2.193   0.456   4.874  0.2050  0.4583  0.3076
  374SOL     OW 2029   3.025   2.888   7.325 -0.3092 -0.4424  1.0016
  374SOL    HW1 2030   3.067   2.805   7.349  1.0805  0.2638  1.1554
  374SOL    HW2 2031   2.978   2.868   7.244  0.2655 -1.3107  0.8576
  375SOL     OW 2032   5.501   1.441   0.005  0.1164 -0.1141  0.9326
  375SOL    HW1 2033   5.543   1.501   0.066  2.6490 -1.1650  0.3589
  375SOL    HW2 2034   5.486   1.361   0.056  0.1093 -0.2144  0.7760
  376SOL     OW 2035   3.176   1.310   7.249 -0.7352 -0.4942  0.1970
  376SOL    HW1 2036   3.251   1.295   7.191  0.0360 -0.1587  1.0819
  376SOL    HW2 2037   3.102   1.267   7.205 -0.4445  0.7529 -1.6162
  377SOL     OW 2038   4.757   6.396   3.024 -0.2257 -0.6860  0.1999
  377SOL    HW1 2039   4.848   6.365   3.021 -0.1874 -0.6124  0.5065
  377SOL    HW2 2040   4.757   6.460   3.095 -0.3646 -0.1781 -0.2561
  378SOL     OW 2041   4.075   1.297   4.119  0.2957 -0.0028  0.5572
  378SOL    HW1 2042   4.055   1.308   4.026 -1.3907  1.9619  1.0901
  378SOL    HW2 2043   4.171   1.304   4.124  0.2990  1.3810 -0.8561
  379SOL     OW 2044   5.468   6.606   1.151  0.3095 -0.2506  0.3287
  379SOL    HW1 2045   5.484   6.665   1.224  1.3329  1.4141 -1.1681
  379SOL    HW2 2046   5.555   6.583   1.118 -0.1100 -1.5855  0.0760
  380SOL     OW 2047   2.569   6.469   0.557  0.2476  0.0038 -0.1016
  380SOL    HW1 2048   2.492   6.421   0.528  0.2910  0.4591 -0.9889
  380SOL    HW2 2049   2.609   6.412   0.623 -1.1060 -0.0139  0.7390
  381SOL     OW 2050   1.041   7.247   5.919  0.0590  0.6549 -0.0799
  381SOL    HW1 2051   1.066   7.282   5.834  0.0366  1.1396  0.1077
  381SOL    HW2 2052   1.124   7.229   5.963  0.0897  1.4689  0.2208
  382SOL     OW 2053   3.034   4.732   6.552  0.0514  0.0872 -0.6033
  382SOL    HW1 2054   3.085   4.767   6.625  0.0695 -1.3448  0.0935
  382SOL    HW2 2055   2.943   4.753   6.574  0.1366  0.5383 -0.6700
  383SOL     OW 2056   5.875   0.575   6.631 -0.1481  0.3068 -0.4652
  383SOL    HW1 2057   5.867   0.562   6.537  0.7373 -0.3840 -0.4532
  383SOL    HW2 2058   5.961   0.615   6.642 -0.2181  0.3174  0.0551
  384SOL     OW 2059   2.182   5.781   1.299 -0.4776 -0.0316 -0.5599
  384SOL    HW1 2060   2.143   5.848   1.356 -1.4591  1.7691 -3.1734
  384SOL    HW2 2061   2.178   5.701   1.351 -0.0417  1.7120  2.4029
  385SOL     OW 2062   7.484   0.639   1.856  0.1499 -0.3653 -0.5448
  385SOL    HW1 2063   7.563   0.654   1.909 -1.7515  0.5489  2.2215
  385SOL    HW2 2064   7.503   0.559   1.808  2.7528 -0.2026  0.0301
  386SOL     OW 2065   3.785   0.247   5.883 -0.1509 -0.2750 -0.7367
  386SOL    HW1 2066   3.803   0.161   5.922  2.6361  0.3519 -0.4406
  386SOL    HW2 2067   3.709   0.279   5.932 -0.1932 -1.8427  0.3254
  387SOL     OW 2068   2.556   3.149   5.418  0.0394  0.2931 -0.5556
  387SOL    HW1 2069   2.648   3.154   5.391  1.4374 -0.3060  3.3753
  387SOL    HW2 2070   2.541   3.055   5.434 -1.7587  0.2047 -2.3513
  388SOL     OW 2071   4.932   0.080   3.880 -0.3895  0.0373  0.4577
  388SOL    HW1 2072   4.929   0.156   3.822  0.1972  0.5757  1.1120
  388SOL    HW2 2073   4.971   0.113   3.961 -1.6184 -0.5874  1.3358
  389SOL     OW 2074   1.371   5.173   6.289 -0.3059 -0.0446 -0.1953
  389SOL    HW1 2075   1.466   5.182   6.279 -0.2727 -1.3931 -1.4274
  389SOL    HW2 2076   1.335   5.196   6.203 -0.8997 -1.6600 -0.4149
  390SOL     OW 2077   4.212   5.356   2.619 -0.1452 -0.0433 -0.0738
  390SOL    HW1 2078   4.197   5.266   2.587 -0.6939  0.5469 -1.5815
  390SOL    HW2 2079   4.139   5.373   2.677 -0.6322 -0.2121 -0.6261
  391SOL     OW 2080   4.936   7.735   3.346 -0.2627  0.0556  0.3073
  391SOL    HW1 2081   4.990   7.815   3.345  0.6512 -0.5541 -0.1521
  391SOL    HW2 2082   4.951   7.697   3.432  1.5377 -1.0758 -0.4432
  392SOL     OW 2083   3.061   2.903   0.111 -0.0768  0.7356  0.0957
  392SOL    HW1 2084   3.098   2.877   0.026  2.4661  1.7649  0.8191
  392SOL    HW2 2085   3.137   2.917   0.167 -1.6404  1.8873  2.0239
  393SOL     OW 2086   6.000   1.512   7.644  0.4495  0.1631 -0.0609
  393SOL    HW1 2087   5.958   1.429   7.668 -0.4532  0.8093  0.6874
  393SOL    HW2 2088   5.934   1.557   7.592  0.4335  0.9468  0.6225
  394SOL     OW 2089   2.413   7.370   7.110  0.5024  0.7855  0.7664
  394SOL    HW1 2090   2.337   7.368   7.052 -0.3597 -4.1875  1.6113
  394SOL    HW2 2091   2.477   7.311   7.069  1.7717  0.8098  2.5705
  395SOL     OW 2092   6.895   4.351   5.829 -0.1028  0.0607 -0.0232
  395SOL    HW1 2093   6.989   4.333   5.841 -0.1821  0.4023  1.3137
  395SOL    HW2 2094   6.882   4.435   5.873 -1.2179 -0.4513  0.6626
  396SOL     OW 2095   7.109   5.121   1.706 -0.4218 -0.1253  0.8053
  396SOL    HW1 2096   7.107   5.180   1.781  0.7564  0.5644  0.3236
  396SOL    HW2 2097   7.175   5.159   1.648 -0.2607 -1.4514  0.0912
  397SOL     OW 2098   0.446   1.961   4.229  0.3832  0.6658 -0.1997
  397SOL    HW1 2099   0.525   1.944   4.280 -0.5169  0.0647  1.0362
  397SOL    HW2 2100   0.423   2.051   4.250  0.1813  0.5151  0.2392
  398SOL     OW 2101   7.250   0.133   1.540 -0.0547 -0.4953 -0.2390
  398SOL    HW1 2102   7.173   0.171   1.497  0.1065  0.2620  0.1099
  398SOL    HW2 2103   7.214   0.070   1.603 -0.4529  0.4693  0.5259
  399SOL     OW 2104   7.296   2.579   5.612 -0.2800  0.6657  0.1828
  399SOL    HW1 2105   7.257   2.537   5.535 -1.1932  1.3446  0.2633
  399SOL    HW2 2106   7.367   2.520   5.638  0.7863  0.9724 -1.8408
  400SOL     OW 2107   2.715   3.832   2.999 -0.0285  0.2600  0.4588
  400SOL    HW1 2108   2.742   3.820   3.090  0.5851 -1.9968  0.0482
  400SOL    HW2 2109   2.622   3.852   3.004 -0.1739 -0.5812  1.5929
  401SOL     OW 2110   6.253   3.602   7.338  0.2995  0.0654 -0.6561
  401SOL    HW1 2111   6.341   3.593   7.373  1.0439 -0.5491 -2.5275
  401SOL    HW2 2112   6.259   3.566   7.249 -1.5830  0.9894 -1.2117
  402SOL     OW 2113   3.218   3.119   2.734 -0.1693 -0.8330 -0.3121
  402SOL    HW1 2114   3.161   3.076   2.670 -0.0057 -0.6918 -0.5543
  402SOL    HW2 2115   3.229   3.208   2.701  2.2318 -1.5260 -1.6761
  403SOL     OW 2116   2.009   2.075   2.974  0.5459  0.2759 -0.4196
  403SOL    HW1 2117   2.068   2.007   2.941  0.3851 -0.1290  0.1002
  403SOL    HW2 2118   1.968   2.112   2.896  1.9956  1.0498 -0.8577
  404SOL     OW 2119   2.185   3.770   2.438  0.3284  0.1398 -0.5198
  404SOL    HW1 2120   2.220   3.720   2.512  0.2589 -0.3463 -0.8072
  404SOL    HW2 2121   2.248   3.841   2.425  1.3637 -0.8538 -1.1807
  405SOL     OW 2122   6.418   3.703   2.339  0.2737 -0.6911  0.0615
  405SOL    HW1 2123   6.508   3.696   2.371  0.5294  2.0067  0.2068
  405SOL    HW2 2124   6.395   3.795   2.353 -2.5758 -1.3157  0.1414
  406SOL     OW 2125   6.561   6.639   0.520 -0.0020 -0.1052  0.2397
  406SOL    HW1 2126   6.638   6.603   0.475 -0.1988 -0.8302  0.4596
  406SOL    HW2 2127   6.566   6.603   0.609  0.7234  1.8064  1.0230
  407SOL     OW 2128   5.870   5.630   3.740  0.1303  0.1228 -0.0475
  407SOL    HW1 2129   5.949   5.579   3.759  0.7858  1.3638  0.7154
  407SOL    HW2 2130   5.843   5.665   3.825 -1.5028 -0.6158 -0.2267
  408SOL     OW 2131   2.295   5.211   2.995 -0.3267 -0.0629 -0.2879
  408SOL    HW1 2132   2.298   5.232   2.901  0.9188  0.7554 -0.0821
  408SOL    HW2 2133   2.334   5.124   3.002  1.0855  0.5516 -0.3594
  409SOL     OW 2134   1.867   0.401   7.557  0.0913  0.2720  0.4017
  409SOL    HW1 2135   1.829   0.427   7.473  0.8935  0.1425 -0.0122
  409SOL    HW2 2136   1.852   0.307   7.562  0.4946  0.1931  0.1619
  410SOL     OW 2137   7.619   2.830   6.165 -0.1903 -0.0929  0.2537
  410SOL    HW1 2138   7.606   2.918   6.200 -0.1130 -0.0095  0.0703
  410SOL    HW2 2139   7.553   2.777   6.209 -0.2885  0.0718  0.3045
  411SOL     OW 2140   0.528   5.817   4.656  0.3657  0.2756 -0.5597
  411SOL    HW1 2141   0.546   5.801   4.749 -1.0285  0.1334 -0.2897
  411SOL    HW2 2142   0.472   5.895   4.656 -2.4227 -1.5862 -0.9716
  412SOL     OW 2143   6.027   4.154   4.347 -0.6748  0.2584 -1.0520
  412SOL    HW1 2144   6.036   4.114   4.261 -1.0585 -1.7614 -0.2100
  412SOL    HW2 2145   5.938   4.188   4.349 -0.8037 -0.0575 -1.3191
  413SOL     OW 2146   7.271   7.168   3.107 -0.9241 -0.0923  0.4478
  413SOL    HW1 2147   7.201   7.220   3.066 -0.6883  0.2915  0.5346
  413SOL    HW2 2148   7.304   7.114   3.035 -0.6841  0.3988  0.1765
  414SOL     OW 2149   3.638   2.778   6.030  0.0687 -0.4204 -0.0272
  414SOL    HW1 2150   3.730   2.802   6.034 -0.3671  1.1818  2.4801
  414SOL    HW2 2151   3.602   2.804   6.114 -2.4207 -2.2428 -0.3975
  415SOL     OW 2152   2.669   7.735   0.008 -0.2281 -0.7891  0.2619
  415SOL    HW1 2153   2.603   7.666   0.005  1.3087 -2.3881  1.3425
  415SOL    HW2 2154   2.699   7.735   0.099  0.0943  1.0745  0.2010
  416SOL     OW 2155   6.285   5.389   5.639  0.0940 -0.4838 -0.9556
  416SOL    HW1 2156   6.192   5.372   5.625 -0.5058  2.9392 -2.1830
  416SOL    HW2 2157   6.289   5.430   5.725  0.1293  1.0614 -1.6608
  417SOL     OW 2158   1.413   1.101   2.361 -0.2775 -0.3153 -0.2335
  417SOL    HW1 2159   1.472   1.140   2.425 -0.4106  0.9839 -0.8675
  417SOL    HW2 2160   1.451   1.015   2.342  2.1511  0.9457 -1.5368
  418SOL     OW 2161   2.847   3.164   3.913  0.0214 -0.2652 -0.1411
  418SOL    HW1 2162   2.871   3.233   3.975 -2.3414  0.5508 -0.0314
  418SOL    HW2 2163   2.775   3.118   3.956  0.1809 -1.4661 -1.1243
  419SOL     OW 2164   6.234   1.667   7.587  0.3967 -0.2825 -0.4767
  419SOL    HW1 2165   6.227   1.715   7.669  1.2133  0.6731 -0.9462
  419SOL    HW2 2166   6.164   1.703   7.531  0.1181 -0.6275 -0.3530
  420SOL     OW 2167   0.958   3.231   2.721  0.3797 -0.3741  0.2176
  420SOL    HW1 2168   0.899   3.244   2.795  0.2145 -1.9344  0.3966
  420SOL    HW2 2169   0.977   3.137   2.721  2.7429  0.0412  0.0622
  421SOL     OW 2170   4.743   7.588   3.882 -0.5076 -0.4340 -0.7507
  421SOL    HW1 2171   4.802   7.513   3.895 -1.1520 -0.8507 -0.1698
  421SOL    HW2 2172   4.792   7.663   3.914 -0.8796 -1.0033  1.3062
  422SOL     OW 2173   7.532   4.487   2.266  0.2299  0.4991 -0.2436
  422SOL    HW1 2174   7.568   4.565   2.225  0.0383  1.1290  0.7311
  422SOL    HW2 2175   7.549   4.417   2.204 -0.6144  1.4955 -1.6807
  423SOL     OW 2176   6.207   3.011   1.389  0.6697  0.1582  0.9099
  423SOL    HW1 2177   6.192   2.975   1.477  1.6081 -0.5750  0.7750
  423SOL    HW2 2178   6.301   3.006   1.376  0.4532 -0.7248 -0.5573
  424SOL     OW 2179   2.167   7.539   1.773 -0.2837 -0.6882 -0.0008
  424SOL    HW1 2180   2.214   7.549   1.690  0.9727 -0.2911  0.7377
  424SOL    HW2 2181   2.225   7.578   1.838 -1.1973 -1.1036  1.0872
  425SOL     OW 2182   4.558   7.502   6.055 -0.0849 -0.5434 -0.0228
  425SOL    HW1 2183   4.543   7.547   5.972  0.7227  1.6604  0.9685
  425SOL    HW2 2184   4.634   7.545   6.093  0.1000 -2.0897  1.4858
  426SOL     OW 2185   3.091   4.735   2.586 -0.0252 -0.3045  0.1215
  426SOL    HW1 2186   3.182   4.704   2.579  1.7485  3.9722  0.7240
  426SOL    HW2 2187   3.082   4.760   2.678 -2.0138 -0.9613  0.1498
  427SOL     OW 2188   6.760   4.889   5.899 -0.8167 -0.1399  0.2678
  427SOL    HW1 2189   6.729   4.921   5.814 -0.8427  0.3866  0.4739
  427SOL    HW2 2190   6.689   4.910   5.960 -0.9462 -0.8339  0.3578
  428SOL     OW 2191   4.981   7.254   1.820 -0.6124  0.1739  0.3632
  428SOL    HW1 2192   4.941   7.330   1.777 -1.5184 -0.2279  0.4634
  428SOL    HW2 2193   4.977   7.184   1.754  0.0853  0.1693  0.3202
  429SOL     OW 2194   1.926   4.279   4.785 -0.0326 -0.0568 -0.3756
  429SOL    HW1 2195   1.942   4.264   4.878  0.6084 -1.7773 -0.7234
  429SOL    HW2 2196   1.849   4.226   4.765  0.4836 -0.5826 -1.0343
  430SOL     OW 2197   2.802   5.138   6.861 -0.0149  0.1266 -0.4708
  430SOL    HW1 2198   2.840   5.101   6.941  0.4878  1.6638  0.0419
  430SOL    HW2 2199   2.877   5.154   6.804 -0.1684  0.7257 -0.5126
  431SOL     OW 2200   1.073   5.369   6.051  0.2041 -0.7682 -0.8911
  431SOL    HW1 2201   1.083   5.384   6.145 -2.1359 -0.0399 -0.6819
  431SOL    HW2 2202   1.130   5.435   6.010  0.2670 -0.2301  0.0253
  432SOL     OW 2203   7.203   0.716   1.886 -0.2143  0.2798  0.1369
  432SOL    HW1 2204   7.208   0.806   1.920  2.3634 -0.2117  1.3401
  432SOL    HW2 2205   7.291   0.681   1.899 -1.3078 -2.6609  0.3259
  433SOL     OW 2206   4.473   4.596   4.971 -0.2576  0.0828 -0.1433
  433SOL    HW1 2207   4.447   4.615   4.881  0.0101  0.7123 -0.0923
  433SOL    HW2 2208   4.392   4.604   5.021 -0.6786 -1.5671 -0.5003
  434SOL     OW 2209   0.359   4.995   1.183  0.3107  0.2828  0.0155
  434SOL    HW1 2210   0.347   4.903   1.161 -2.0780  0.1615  1.5035
  434SOL    HW2 2211   0.399   5.033   1.105 -1.6550 -1.3825 -1.9496
  435SOL     OW 2212   6.392   0.415   2.618 -0.4811  0.1810 -0.4710
  435SOL    HW1 2213   6.312   0.462   2.639 -0.0239  0.5008  0.5969
  435SOL    HW2 2214   6.372   0.371   2.535 -0.5779  3.0275 -2.0879
  436SOL     OW 2215   0.090   7.553   2.832 -0.5741  0.0780 -0.2337
  436SOL    HW1 2216   0.102   7.511   2.917  0.5425 -0.7182 -0.7625
  436SOL    HW2 2217   0.070   7.481   2.772 -0.9610  0.5855 -0.7341
  437SOL     OW 2218   3.761   5.972   1.830  0.0957  0.1865  0.1246
  437SOL    HW1 2219   3.741   6.064   1.814  3.6001  0.8644 -1.2106
  437SOL    HW2 2220   3.794   5.939   1.746 -2.3615 -2.8284  0.1148
  438SOL     OW 2221   1.239   0.896   2.960 -0.0335  0.2488  0.4313
  438SOL    HW1 2222   1.170   0.874   3.023  1.2565 -1.0010  1.4701
  438SOL    HW2 2223   1.196   0.955   2.897 -2.1550 -0.7983  0.7977
  439SOL     OW 2224   0.915   1.640   5.007  0.2005  1.1194 -0.2996
  439SOL    HW1 2225   0.832   1.632   4.959 -0.9980  0.9040  1.7007
  439SOL    HW2 2226   0.913   1.569   5.071  1.1859  2.0589  0.8292
  440SOL     OW 2227   1.130   3.234   5.525 -0.1209  1.0270  0.1445
  440SOL    HW1 2228   1.117   3.159   5.582 -1.1273  0.7456 -0.4371
  440SOL    HW2 2229   1.225   3.248   5.525 -0.0596  0.7387  1.4890
  441SOL     OW 2230   3.277   7.290   7.723  0.5566 -0.2402  0.5206
  441SOL    HW1 2231   3.351   7.233   7.742  0.6237 -0.2146  0.3424
  441SOL    HW2 2232   3.212   7.270   7.790  1.4774  1.1269  1.8983
  442SOL     OW 2233   2.446   5.174   7.658 -0.2454 -0.3807 -0.4275
  442SOL    HW1 2234   2.374   5.217   7.705 -1.7241 -0.3464 -2.5632
  442SOL    HW2 2235   2.467   5.234   7.586  2.1308 -0.2953  0.2503
  443SOL     OW 2236   4.258   2.090   7.616 -0.1445 -0.4635  0.1053
  443SOL    HW1 2237   4.352   2.071   7.608 -0.2521 -0.8339 -0.2822
  443SOL    HW2 2238   4.241   2.084   7.710 -0.5777 -4.3778 -0.0629
  444SOL     OW 2239   6.131   3.392   5.460 -0.0207 -0.1299 -0.2867
  444SOL    HW1 2240   6.190   3.436   5.400 -0.7417  2.1715  0.5807
  444SOL    HW2 2241   6.157   3.423   5.547 -1.9323  0.3387  0.1805
  445SOL     OW 2242   3.480   0.182   6.463  0.4312  0.2188 -0.1714
  445SOL    HW1 2243   3.485   0.225   6.549 -0.1788  1.5296 -0.7571
  445SOL    HW2 2244   3.551   0.222   6.413  0.9310 -0.7135 -0.2224
  446SOL     OW 2245   0.350   4.057   5.811 -0.6119  1.1535  0.6590
  446SOL    HW1 2246   0.340   3.962   5.821  1.4672  0.6181 -1.4505
  446SOL    HW2 2247   0.265   4.086   5.779 -0.3333 -0.6149 -1.9886
  447SOL     OW 2248   2.780   0.994   6.192  0.1799 -0.0791 -0.2281
  447SOL    HW1 2249   2.767   1.057   6.262 -0.6080 -0.6119  0.1173
  447SOL    HW2 2250   2.848   0.935   6.224 -0.8870 -0.9407  0.5559
  448SOL     OW 2251   6.382   4.839   4.434  0.1277 -0.1157 -0.0936
  448SOL    HW1 2252   6.390   4.867   4.343 -0.6123 -3.5491 -1.3615
  448SOL    HW2 2253   6.306   4.887   4.467 -0.2730  0.3685 -1.6301
  449SOL     OW 2254   5.791   1.139   1.050  0.2792 -0.4397 -0.1666
  449SOL    HW1 2255   5.699   1.116   1.051 -0.2308  1.4136 -0.3294
  449SOL    HW2 2256   5.837   1.057   1.068 -1.2313 -2.0673 -2.9542
  450SOL     OW 2257   2.571   6.070   5.628 -0.0914 -0.2241  0.0547
  450SOL    HW1 2258   2.560   6.068   5.533 -0.9700  0.7793  0.1232
  450SOL    HW2 2259   2.604   6.158   5.647  0.6301 -0.6086  0.6361
  451SOL     OW 2260   3.924   2.168   5.284 -0.8097 -0.1301 -0.0315
  451SOL    HW1 2261   3.965   2.252   5.260  2.6382 -1.6080  0.0774
  451SOL    HW2 2262   3.929   2.116   5.204  0.4370 -1.3728  0.8138
  452SOL     OW 2263   2.106   4.779   4.682  0.1837 -0.2923 -0.3318
  452SOL    HW1 2264   2.162   4.741   4.614 -0.2061 -1.3433 -0.0976
  452SOL    HW2 2265   2.019   4.743   4.664  0.2157 -1.2009  1.1376
  453SOL     OW 2266   4.204   4.507   5.765  0.0888  0.2789 -0.0046
  453SOL    HW1 2267   4.281   4.563   5.754  1.0514 -0.8134  0.8501
  453SOL    HW2 2268   4.233   4.421   5.737 -1.3137  0.1342 -1.1150
  454SOL     OW 2269   4.468   4.852   1.179 -0.3092  0.1034 -0.1573
  454SOL    HW1 2270   4.484   4.875   1.088  2.6921  0.6346  0.4037
  454SOL    HW2 2271   4.497   4.929   1.229 -0.1654 -0.8456  1.2960
  455SOL     OW 2272   5.227   6.240   1.267 -0.5579 -0.5613  0.0942
  455SOL    HW1 2273   5.193   6.212   1.351 -1.1650 -0.9122 -0.2602
  455SOL    HW2 2274   5.207   6.333   1.262  1.0751 -0.1309  1.0910
  456SOL     OW 2275   7.180   2.845   0.798 -0.5463  0.0819 -0.0667
  456SOL    HW1 2276   7.182   2.933   0.762  0.5007 -0.1746 -0.6739
  456SOL    HW2 2277   7.221   2.853   0.884 -0.0767  0.1152 -0.2927
  457SOL     OW 2278   2.221   6.954   3.819  0.0729 -0.4199  0.4433
  457SOL    HW1 2279   2.310   6.947   3.854  0.1855  2.3950  0.9728
  457SOL    HW2 2280   2.232   6.951   3.724  0.8581  0.5729  0.4817
  458SOL     OW 2281   7.211   7.189   7.010 -0.1423 -0.2646 -0.3794
  458SOL    HW1 2282   7.262   7.112   7.036 -1.0315 -1.0298 -0.8413
  458SOL    HW2 2283   7.254   7.262   7.054  1.0612 -0.9466 -0.3786
  459SOL     OW 2284   6.018   3.030   6.397 -0.3587 -0.0517  0.3298
  459SOL    HW1 2285   6.011   2.941   6.433 -0.4681 -1.2232 -2.2760
  459SOL    HW2 2286   6.075   3.020   6.320  0.6421  2.4148  0.6599
  460SOL     OW 2287   4.596   2.894   3.823  0.0324  0.4254  0.8935
  460SOL    HW1 2288   4.568   2.947   3.749  0.5187  0.7543  0.9384
  460SOL    HW2 2289   4.663   2.836   3.786 -0.7600 -0.4247  0.7619
  461SOL     OW 2290   3.536   4.417   0.519  0.0278  0.4567  0.1311
  461SOL    HW1 2291   3.547   4.453   0.607 -1.3046 -0.5262  0.7401
  461SOL    HW2 2292   3.485   4.483   0.472  0.3731  0.7903  0.2148
  462SOL     OW 2293   0.518   3.195   3.730  0.1253 -0.2704  0.1240
  462SOL    HW1 2294   0.514   3.291   3.738 -2.3008  0.0128 -2.6326
  462SOL    HW2 2295   0.452   3.163   3.791  0.1169 -0.0949  0.2076
  463SOL     OW 2296   3.239   3.378   6.567 -0.0184  0.7516  0.4532
  463SOL    HW1 2297   3.281   3.293   6.555 -1.1439  0.3643 -1.1131
  463SOL    HW2 2298   3.145   3.359   6.558 -0.2550  2.2210 -0.4046
  464SOL     OW 2299   0.252   2.635   0.046  0.6038  0.9169  0.3673
  464SOL    HW1 2300   0.191   2.562   0.039  1.8458 -0.0711 -0.3251
  464SOL    HW2 2301   0.232   2.691  -0.029  0.7854  0.4167 -0.0522
  465SOL     OW 2302   6.919   7.213   7.030  0.2394 -0.3684  0.1941
  465SOL    HW1 2303   7.014   7.211   7.029  0.2548  0.3017 -0.5052
  465SOL    HW2 2304   6.894   7.182   6.942 -0.2277 -1.6876  0.7570
  466SOL     OW 2305   0.441   1.049   3.725 -0.5908  0.1076 -0.1421
  466SOL    HW1 2306   0.444   1.058   3.630 -0.4856  2.2158  0.0234
  466SOL    HW2 2307   0.354   1.079   3.750 -0.4387  0.0552  0.4837
  467SOL     OW 2308   5.370   5.305   1.233 -0.4391 -0.2583  0.2025
  467SOL    HW1 2309   5.418   5.237   1.186 -0.5912 -0.9005  0.9582
  467SOL    HW2 2310   5.351   5.266   1.318 -2.4795 -0.1257 -0.1319
  468SOL     OW 2311   4.994   1.664   1.046  0.2881 -0.2401  0.3116
  468SOL    HW1 2312   5.002   1.577   1.085  0.4158 -0.6703 -0.6638
  468SOL    HW2 2313   5.077   1.679   1.001 -0.2015 -0.1446 -0.5818
  469SOL     OW 2314   2.231   2.709   5.163  0.3896  0.3764  0.2368
  469SOL    HW1 2315   2.325   2.696   5.147  0.2418 -0.1851 -0.2081
  469SOL    HW2 2316   2.217   2.802   5.145  0.7974  0.3887 -0.0572
  470SOL     OW 2317   6.531   2.704   2.735 -0.0509  0.3302  0.1165
  470SOL    HW1 2318   6.521   2.619   2.692  1.1142 -0.2390  0.9267
  470SOL    HW2 2319   6.441   2.734   2.750 -0.4811 -0.9594  0.1992
  471SOL     OW 2320   2.760   4.813   1.498 -0.1511  0.1724  0.3463
  471SOL    HW1 2321   2.671   4.844   1.481 -0.3611 -0.6387 -0.1108
  471SOL    HW2 2322   2.783   4.764   1.419  1.1376  1.3211 -0.0170
  472SOL     OW 2323   2.646   3.863   3.860  0.2644 -0.1033  0.2947
  472SOL    HW1 2324   2.715   3.797   3.858  0.5933  0.1809  1.4537
  472SOL    HW2 2325   2.567   3.814   3.885  0.0104 -0.4396 -1.0951
  473SOL     OW 2326   6.385   2.662   7.186 -0.5708 -0.1205 -0.3457
  473SOL    HW1 2327   6.448   2.606   7.231 -0.7856 -1.9700 -2.1790
  473SOL    HW2 2328   6.305   2.610   7.181 -0.7580  0.2587 -2.1787
  474SOL     OW 2329   3.915   7.253   3.545  0.3093 -0.0984 -0.0526
  474SOL    HW1 2330   3.851   7.290   3.484  0.6494  0.3697 -0.1326
  474SOL    HW2 2331   3.978   7.324   3.559 -0.6056  0.3707  2.0919
  475SOL     OW 2332   4.230   4.765   0.911  0.1146  0.0462 -0.5591
  475SOL    HW1 2333   4.315   4.790   0.875  0.0628 -0.0981 -0.7843
  475SOL    HW2 2334   4.203   4.840   0.964  0.6366 -0.1304 -0.0329
  476SOL     OW 2335   4.843   2.014   7.447 -0.3307  0.0978  0.1079
  476SOL    HW1 2336   4.894   2.004   7.527  0.4737 -0.2533 -0.4343
  476SOL    HW2 2337   4.904   2.053   7.384 -0.1757 -1.8574 -1.0515
  477SOL     OW 2338   0.917   1.079   5.051 -0.8418  0.4162 -0.0252
  477SOL    HW1 2339   0.865   1.002   5.028 -0.2193 -0.7712  2.2813
  477SOL    HW2 2340   0.956   1.058   5.136  1.7720  2.0770 -0.6878
  478SOL     OW 2341   3.478   0.469   2.396 -0.1854  0.3464  0.2220
  478SOL    HW1 2342   3.411   0.401   2.389 -1.2245  1.2561  1.1445
  478SOL    HW2 2343   3.504   0.486   2.305  0.2610 -1.4091 -0.0210
  479SOL     OW 2344   3.276   0.510   6.257 -0.0619  0.0382 -0.1847
  479SOL    HW1 2345   3.314   0.491   6.343 -0.6730  1.0617  0.3272
  479SOL    HW2 2346   3.188   0.473   6.261  0.3611 -1.1060 -0.8752
  480SOL     OW 2347   2.424   3.760   5.604  0.0064  0.3710 -0.3610
  480SOL    HW1 2348   2.494   3.695   5.610 -0.4953 -0.0730  2.3136
  480SOL    HW2 2349   2.368   3.728   5.533 -1.4862 -3.6302  2.2210
  481SOL     OW 2350   5.400   1.010   5.174  0.9832 -0.2435 -0.2198
  481SOL    HW1 2351   5.468   0.959   5.219  0.6980  1.2079  2.0162
  481SOL    HW2 2352   5.417   0.995   5.081  2.2604 -2.5871  0.2963
  482SOL     OW 2353   0.207   4.299   6.102  0.1530  0.1132 -0.0198
  482SOL    HW1 2354   0.225   4.306   6.195  0.6328  0.7138 -0.1566
  482SOL    HW2 2355   0.142   4.367   6.084 -2.3630 -2.0053  0.4621
  483SOL     OW 2356   1.460   0.376   3.456  0.1322 -0.6341 -0.0037
  483SOL    HW1 2357   1.482   0.394   3.547  0.1256  0.0932 -0.1405
  483SOL    HW2 2358   1.482   0.457   3.409  1.3379 -1.4237 -0.8531
  484SOL     OW 2359   5.818   4.594   4.934 -0.2675 -0.2243  0.3765
  484SOL    HW1 2360   5.840   4.686   4.923 -1.2744 -0.1034 -0.8612
  484SOL    HW2 2361   5.756   4.575   4.864 -0.8022 -1.6129  1.1730
  485SOL     OW 2362   2.681   5.610   5.364  0.1949  0.0074  0.1476
  485SOL    HW1 2363   2.640   5.571   5.287 -1.0391  1.0552  0.2435
  485SOL    HW2 2364   2.705   5.535   5.419  0.1722 -0.7030 -0.7910
  486SOL     OW 2365   2.182   3.091   3.444 -0.0972 -0.3701 -0.1369
  486SOL    HW1 2366   2.263   3.110   3.491  0.6959  0.5143 -1.7571
  486SOL    HW2 2367   2.211   3.061   3.358 -1.4824 -2.1409 -0.0377
  487SOL     OW 2368   0.941   7.550   7.078  0.1684 -0.4008  0.6230
  487SOL    HW1 2369   0.953   7.456   7.093  0.0762 -0.6211 -0.5703
  487SOL    HW2 2370   1.005   7.592   7.135  0.9869 -1.2369  0.3471
  488SOL     OW 2371   3.566   4.627   5.313 -0.5476  0.5331 -0.1296
  488SOL    HW1 2372   3.620   4.630   5.393  0.0412  0.9933 -0.5362
  488SOL    HW2 2373   3.630   4.614   5.243 -1.1533 -0.9631 -0.4392
  489SOL     OW 2374   4.892   2.800   7.572 -0.0813  0.3619 -0.4520
  489SOL    HW1 2375   4.981   2.776   7.546 -0.3851 -0.6695 -0.5594
  489SOL    HW2 2376   4.837   2.772   7.499 -0.6729 -0.4748  0.2994
  490SOL     OW 2377   6.577   6.907   4.806  0.2935 -0.1486  0.3483
  490SOL    HW1 2378   6.656   6.864   4.838 -0.1314 -1.3191 -0.1203
  490SOL    HW2 2379   6.563   6.979   4.867  0.2376 -1.5286  2.0670
  491SOL     OW 2380   4.413   6.693   6.704  0.0450 -0.1406  0.5516
  491SOL    HW1 2381   4.392   6.629   6.772  1.5627 -0.7357  0.4805
  491SOL    HW2 2382   4.474   6.648   6.646 -0.5663  0.6467 -0.7489
  492SOL     OW 2383   0.072   5.415   4.854  0.0234 -0.3235  0.1252
  492SOL    HW1 2384   0.076   5.461   4.938  0.4558  0.3160 -0.2377
  492SOL    HW2 2385   0.163   5.392   4.835 -0.3273 -2.7065  1.0298
  493SOL     OW 2386   2.001   7.704   7.743  0.0173 -0.4400 -0.7474
  493SOL    HW1 2387   1.993   7.615   7.708 -1.6655 -0.8464  0.5231
  493SOL    HW2 2388   1.973   7.695   7.835 -0.4332  1.4509 -0.6776
  494SOL     OW 2389   5.003   2.284   2.328 -0.5570  0.1479  0.5190
  494SOL    HW1 2390   4.910   2.307   2.322 -1.2874 -2.7466 -1.0212
  494SOL    HW2 2391   5.023   2.289   2.422 -2.5181 -0.0404  0.9931
  495SOL     OW 2392   7.489   4.747   5.222  0.0061  0.3540  0.0156
  495SOL    HW1 2393   7.492   4.726   5.129  0.8437 -0.1966  0.1489
  495SOL    HW2 2394   7.481   4.842   5.226  0.2943  0.4075 -0.6175
  496SOL     OW 2395   0.811   1.969   1.550 -0.1973  0.2026 -0.5374
  496SOL    HW1 2396   0.886   1.975   1.609 -1.6182 -1.7126  1.6515
  496SOL    HW2 2397   0.848   1.940   1.467  1.5069 -0.5319  0.4311
  497SOL     OW 2398   6.535   1.553   6.729  0.5058 -0.3173  0.0004
  497SOL    HW1 2399   6.561   1.601   6.807  1.6359 -0.6679 -0.1365
  497SOL    HW2 2400   6.537   1.618   6.659 -2.3999  0.4775  0.5072
  498SOL     OW 2401   7.612   6.683   4.544 -0.2254 -0.4108 -0.1957
  498SOL    HW1 2402   7.693   6.688   4.594 -0.2112 -0.9339 -0.1662
  498SOL    HW2 2403   7.570   6.768   4.558 -1.2406 -1.2676  2.4105
  499SOL     OW 2404   1.560   3.884   6.296 -0.2004 -0.2456 -0.3951
  499SOL    HW1 2405   1.601   3.922   6.218  1.5944 -0.4364  0.3902
  499SOL    HW2 2406   1.560   3.955   6.360  0.9637 -0.8290  0.3035
  500SOL     OW 2407   0.345   5.344   5.369 -0.0087  0.0942 -0.5358
  500SOL    HW1 2408   0.361   5.419   5.426  1.0113 -0.2276 -0.3702
  500SOL    HW2 2409   0.324   5.272   5.429 -1.4418  0.3330 -0.7163
  501SOL     OW 2410   6.555   2.120   4.866  0.0368 -0.1420  0.6090
  501SOL    HW1 2411   6.635   2.140   4.816  0.2867 -1.6491  0.3778
  501SOL    HW2 2412   6.585   2.063   4.937 -0.8732 -0.9969  0.3282
  502SOL     OW 2413   1.022   4.614   5.294 -0.6597  0.3819 -0.1709
  502SOL    HW1 2414   0.939   4.649   5.264 -1.1049  0.1267  0.7487
  502SOL    HW2 2415   1.086   4.683   5.274 -1.4178  1.4539  1.0315
  503SOL     OW 2416   0.333   6.145   3.912 -0.5491 -0.2591 -0.2069
  503SOL    HW1 2417   0.314   6.134   4.005 -1.1971 -0.7344 -0.3873
  503SOL    HW2 2418   0.427   6.160   3.908 -0.3279 -1.3959  0.4371
  504SOL     OW 2419   5.166   0.487   4.111  0.0544  0.3510 -0.5705
  504SOL    HW1 2420   5.247   0.502   4.160 -0.5209  0.8452  0.2629
  504SOL    HW2 2421   5.117   0.569   4.120 -1.6524 -0.7704  1.1273
  505SOL     OW 2422   2.383   5.760   0.126  0.2265 -0.0923 -0.2237
  505SOL    HW1 2423   2.436   5.709   0.064  1.2459  1.4558 -0.6819
  505SOL    HW2 2424   2.293   5.733   0.108  0.4527  0.5744 -2.6897
  506SOL     OW 2425   6.409   4.500   7.386  0.1411 -0.3839  0.1734
  506SOL    HW1 2426   6.346   4.484   7.316 -0.6507  1.5126  0.4007
  506SOL    HW2 2427   6.428   4.414   7.422  0.3423 -1.3774 -2.1604
  507SOL     OW 2428   5.264   7.304   1.627  0.8116 -0.0195  0.1924
  507SOL    HW1 2429   5.273   7.392   1.591 -2.2862  0.1080 -0.6066
  507SOL    HW2 2430   5.274   7.315   1.721 -0.2087  1.3361  0.1659
  508SOL     OW 2431   7.725   0.262   4.544 -0.3179  0.6992 -0.0701
  508SOL    HW1 2432   7.819   0.264   4.525 -0.1398 -1.5478  0.3685
  508SOL    HW2 2433   7.688   0.327   4.485  1.2605  0.1983 -1.7121
  509SOL     OW 2434   1.814   1.571   6.895  0.5848 -0.2278  0.5871
  509SOL    HW1 2435   1.894   1.533   6.860 -0.2505 -0.3330 -1.2900
  509SOL    HW2 2436   1.747   1.553   6.829 -1.4508 -1.7726  2.8595
  510SOL     OW 2437   4.536   6.635   4.999 -0.4848 -0.2268 -0.0850
  510SOL    HW1 2438   4.441   6.640   5.011 -0.3463 -0.5578  1.3480
  510SOL    HW2 2439   4.548   6.629   4.904 -1.8076  1.2728 -0.3858
  511SOL     OW 2440   0.149   2.814   2.896 -0.3995 -0.1373  0.8647
  511SOL    HW1 2441   0.130   2.908   2.898 -2.1816 -0.4561  0.7159
  511SOL    HW2 2442   0.185   2.795   2.982  1.2713  0.8990  0.4431
  512SOL     OW 2443   1.563   2.417   5.189 -0.2208 -0.3645  0.1314
  512SOL    HW1 2444   1.561   2.321   5.192  1.3139 -0.3981  1.2522
  512SOL    HW2 2445   1.492   2.440   5.129  0.8449 -2.2891 -2.0697
  513SOL     OW 2446   0.562   4.265   4.392 -0.0312 -0.1426 -0.4098
  513SOL    HW1 2447   0.507   4.253   4.470 -1.0692 -0.2907 -1.1349
  513SOL    HW2 2448   0.546   4.356   4.366 -0.4487 -0.3777 -0.9974
  514SOL     OW 2449   5.505   0.340   2.345  0.1037  0.3880 -0.1096
  514SOL    HW1 2450   5.531   0.420   2.299  0.2675 -0.2900 -1.2127
  514SOL    HW2 2451   5.430   0.367   2.398 -0.0065  1.2111 -0.6617
  515SOL     OW 2452   4.904   1.425   7.207  0.4505  0.3605  0.3559
  515SOL    HW1 2453   4.951   1.455   7.285  1.8336 -0.0544 -0.2955
  515SOL    HW2 2454   4.973   1.396   7.147 -0.5819  0.8306 -1.0975
  516SOL     OW 2455   0.614   0.731   5.058 -0.2384 -0.3333  0.2494
  516SOL    HW1 2456   0.671   0.806   5.039 -0.7200  0.2074  0.8566
  516SOL    HW2 2457   0.664   0.655   5.030  0.9379  0.0946  1.0918
  517SOL     OW 2458   4.743   6.587   2.026 -0.1105  0.0278  0.0654
  517SOL    HW1 2459   4.721   6.544   1.943 -1.5274  0.5997  0.1266
  517SOL    HW2 2460   4.675   6.653   2.038  0.7014  0.7013  1.1467
  518SOL     OW 2461   7.276   5.993   7.712 -0.5614  0.1372 -0.2631
  518SOL    HW1 2462   7.289   6.051   7.636 -1.3870  1.3121  0.4592
  518SOL    HW2 2463   7.341   5.923   7.700 -0.8778  0.1108 -2.2183
  519SOL     OW 2464   7.555   4.755   5.700  0.0215 -0.4861 -0.0692
  519SOL    HW1 2465   7.497   4.699   5.752  0.9374  1.4942  3.3972
  519SOL    HW2 2466   7.502   4.832   5.680  0.5993  0.1259  0.7111
  520SOL     OW 2467   0.102   4.337   2.465 -0.3819  0.0836 -0.0059
  520SOL    HW1 2468   0.090   4.419   2.416 -1.0995  0.7958  1.2908
  520SOL    HW2 2469   0.157   4.283   2.409 -1.4030  0.7399 -1.7248
  521SOL     OW 2470   5.725   5.059   6.340  0.2943 -0.1467 -0.1275
  521SOL    HW1 2471   5.790   5.118   6.301  0.5321 -0.5648 -0.3744
  521SOL    HW2 2472   5.726   4.982   6.283  0.1191 -0.4628  0.2943
  522SOL     OW 2473   1.326   3.183   6.520 -0.1080  0.1870  0.3426
  522SOL    HW1 2474   1.286   3.220   6.599 -1.5830 -2.8239  1.1559
  522SOL    HW2 2475   1.252   3.165   6.462  0.9009  1.8158 -1.5673
  523SOL     OW 2476   6.395   2.257   5.048  0.1129  0.2718  0.0246
  523SOL    HW1 2477   6.455   2.236   4.976  2.4228  1.2353  1.5405
  523SOL    HW2 2478   6.343   2.178   5.060  1.1755 -0.6710 -1.2749
  524SOL     OW 2479   1.990   5.759   7.590 -0.0463 -0.1971  0.0369
  524SOL    HW1 2480   1.986   5.830   7.526 -0.3849 -0.1876  0.0679
  524SOL    HW2 2481   1.945   5.793   7.667  2.4192  0.6958  1.1814
  525SOL     OW 2482   2.702   0.097   4.049 -0.1856  0.5370  0.0733
  525SOL    HW1 2483   2.663   0.048   4.122 -0.4240 -1.4102 -1.2894
  525SOL    HW2 2484   2.790   0.118   4.079 -0.1262 -0.6111  0.7736
  526SOL     OW 2485   5.735   2.149   6.050 -0.1977  0.0119  0.6897
  526SOL    HW1 2486   5.654   2.136   5.999 -0.8981 -1.9868  2.1432
  526SOL    HW2 2487   5.802   2.104   6.000  0.1982  2.0775 -0.7657
  527SOL     OW 2488   5.485   0.746   0.646 -0.3257  0.1886 -0.3383
  527SOL    HW1 2489   5.531   0.792   0.575  1.7063 -2.5492 -0.9702
  527SOL    HW2 2490   5.411   0.704   0.603 -0.1084 -0.0416 -0.4904
  528SOL     OW 2491   2.753   1.036   7.253 -0.6372 -0.5733 -0.1276
  528SOL    HW1 2492   2.740   1.029   7.158 -1.3294 -1.8465  0.0362
  528SOL    HW2 2493   2.806   0.959   7.275  0.8940  0.5614  0.3155
  529SOL     OW 2494   6.243   4.337   3.267  0.3107  0.7935 -0.4707
  529SOL    HW1 2495   6.329   4.379   3.267  0.6451  0.1205 -0.7151
  529SOL    HW2 2496   6.196   4.379   3.339  1.0187  0.8203 -0.0169
  530SOL     OW 2497   6.805   1.911   7.217 -0.0578 -0.3141 -0.4355
  530SOL    HW1 2498   6.798   1.904   7.122 -3.8966 -0.8819 -0.2864
  530SOL    HW2 2499   6.749   1.985   7.239 -0.0037 -0.7919  1.4376
  531SOL     OW 2500   6.476   3.000   5.007 -0.0060 -0.2773 -0.1433
  531SOL    HW1 2501   6.476   3.072   5.070  1.1153 -0.3182 -0.0650
  531SOL    HW2 2502   6.496   3.041   4.923 -3.1701  0.0210 -0.8494
  532SOL     OW 2503   1.319   5.760   1.585 -0.4315  0.0568  0.5236
  532SOL    HW1 2504   1.333   5.673   1.621  0.3563 -0.1912 -0.3527
  532SOL    HW2 2505   1.403   5.804   1.593 -0.4782  0.2973 -0.1866
  533SOL     OW 2506   4.538   3.217   6.067 -0.0538  0.3441  0.2782
  533SOL    HW1 2507   4.585   3.198   5.986 -1.8779  0.3524 -0.8309
  533SOL    HW2 2508   4.597   3.187   6.137  1.7213  0.6838 -1.0008
  534SOL     OW 2509   7.086   5.143   2.022 -0.4731  0.0231  0.4181
  534SOL    HW1 2510   7.039   5.221   1.990 -0.5150 -1.6228 -4.3430
  534SOL    HW2 2511   7.031   5.109   2.092 -2.7596  1.8924 -0.3143
  535SOL     OW 2512   1.898   1.907   1.446 -0.0052 -0.7581 -0.0457
  535SOL    HW1 2513   1.967   1.961   1.483 -0.2023 -0.3454 -0.2810
  535SOL    HW2 2514   1.912   1.910   1.352 -0.6807 -0.2142 -0.1345
  536SOL     OW 2515   1.038   0.422   2.680  0.4050 -0.1275 -0.2327
  536SOL    HW1 2516   0.979   0.471   2.737  1.9496 -0.2713  1.5783
  536SOL    HW2 2517   1.011   0.331   2.689  0.9390 -0.2041  0.6658
  537SOL     OW 2518   7.318   3.662   0.727  0.0929 -0.0629 -0.2204
  537SOL    HW1 2519   7.320   3.657   0.822 -1.4293 -1.7569 -0.2430
  537SOL    HW2 2520   7.325   3.572   0.697  1.3363  0.4942 -1.7744
  538SOL     OW 2521   6.285   1.375   1.010  0.0797 -0.1598 -0.1644
  538SOL    HW1 2522   6.250   1.327   0.936  0.4790 -0.0146 -0.4511
  538SOL    HW2 2523   6.234   1.345   1.085 -0.5324 -0.0751 -0.5441
  539SOL     OW 2524   2.547   7.136   4.003 -0.4525  0.0294 -0.2375
  539SOL    HW1 2525   2.475   7.087   4.043 -0.0227 -0.7343 -0.3796
  539SOL    HW2 2526   2.615   7.137   4.070  0.3777 -1.4914 -0.9907
  540SOL     OW 2527   5.633   4.817   2.124  0.4403 -0.4720 -0.1776
  540SOL    HW1 2528   5.698   4.837   2.192  1.0652 -0.3485 -0.7955
  540SOL    HW2 2529   5.554   4.794   2.173  0.3950  1.1562  0.5919
  541SOL     OW 2530   1.847   3.717   4.475 -0.0383 -0.0429  0.1570
  541SOL    HW1 2531   1.928   3.748   4.516  0.1778 -1.1623  0.5962
  541SOL    HW2 2532   1.807   3.660   4.540  0.6041 -2.3173 -1.3387
  542SOL     OW 2533   5.731   0.022   5.456  0.3405  0.4738  0.2120
  542SOL    HW1 2534   5.737   0.074   5.376  2.3912  1.0103  0.6517
  542SOL    HW2 2535   5.706  -0.065   5.426  0.0899  0.9086 -0.8977
  543SOL     OW 2536   2.981   4.192   0.475  0.3780 -0.8172  0.1339
  543SOL    HW1 2537   2.988   4.177   0.381  1.9554 -0.0262  0.0863
  543SOL    HW2 2538   2.909   4.255   0.484  0.9474 -0.0193 -0.6744
  544SOL     OW 2539   3.450   2.054   2.929 -0.0272  0.2170 -0.0581
  544SOL    HW1 2540   3.452   2.107   2.850  4.0013  0.1061 -0.2238
  544SOL    HW2 2541   3.476   2.114   2.999 -1.1432 -0.2571  0.7975
  545SOL     OW 2542   5.834   6.260   4.424 -0.4938  0.8135 -0.6691
  545SOL    HW1 2543   5.804   6.194   4.487 -0.9837  0.0872 -1.6528
  545SOL    HW2 2544   5.875   6.327   4.479  1.2720 -0.9323  0.2591
  546SOL     OW 2545   0.570   3.096   2.689 -0.4121 -0.3444 -0.0102
  546SOL    HW1 2546   0.601   3.107   2.779 -1.6750  0.6454  0.3247
  546SOL    HW2 2547   0.631   3.032   2.651  0.5038 -0.3320  1.3517
  547SOL     OW 2548   4.803   4.253   4.625  0.2431 -0.1803  0.1422
  547SOL    HW1 2549   4.774   4.169   4.660  0.1563 -0.6499 -0.9894
  547SOL    HW2 2550   4.881   4.231   4.573  0.9083  0.6232  0.7726
  548SOL     OW 2551   1.897   6.262   5.375  0.1481  0.4914 -0.3139
  548SOL    HW1 2552   1.819   6.242   5.324  0.5154  2.5724 -1.8000
  548SOL    HW2 2553   1.863   6.297   5.458 -0.6958  3.8881 -1.9090
  549SOL     OW 2554   1.307   7.286   6.743  0.6735  0.3777 -0.1576
  549SOL    HW1 2555   1.308   7.235   6.824 -1.0348  0.7839  0.1469
  549SOL    HW2 2556   1.217   7.282   6.712  1.2253  0.5103 -1.8810
  550SOL     OW 2557   7.155   6.503   6.613 -0.0369 -0.2681  0.3074
  550SOL    HW1 2558   7.212   6.440   6.657 -2.3797 -2.1909  0.7589
  550SOL    HW2 2559   7.083   6.451   6.578 -1.3561  2.0023 -0.5845
  551SOL     OW 2560   6.450   4.557   3.446  0.0195  0.6554 -0.3581
  551SOL    HW1 2561   6.395   4.606   3.385 -0.5380  0.0997 -0.3000
  551SOL    HW2 2562   6.473   4.621   3.514  0.4317  1.2063 -0.9994
  552SOL     OW 2563   4.545   1.468   0.002  0.3034  0.2167  0.4192
  552SOL    HW1 2564   4.468   1.416   0.026  0.1193 -0.3732 -1.3081
  552SOL    HW2 2565   4.512   1.558  -0.003  0.2537  0.2948  1.8416
  553SOL     OW 2566   3.813   3.905   1.795 -0.8941 -0.2247  0.5120
  553SOL    HW1 2567   3.773   3.842   1.735 -0.2670 -0.2095  0.0592
  553SOL    HW2 2568   3.905   3.879   1.798 -0.6236  0.6787  0.2970
  554SOL     OW 2569   3.051   6.441   5.582 -0.2545 -0.2375  0.6051
  554SOL    HW1 2570   3.052   6.478   5.494 -1.1873 -0.6506  0.4128
  554SOL    HW2 2571   3.030   6.349   5.569  0.1880 -0.4287  1.2178
  555SOL     OW 2572   5.251   6.707   1.754  0.4245  0.0470  0.0168
  555SOL    HW1 2573   5.157   6.722   1.766 -0.0089 -2.2843  0.0371
  555SOL    HW2 2574   5.291   6.744   1.832 -0.3645  1.6949 -0.3048
  556SOL     OW 2575   1.961   1.960   1.130 -0.0267  0.3186 -0.6122
  556SOL    HW1 2576   2.031   1.987   1.189 -1.0286 -0.1067  0.8216
  556SOL    HW2 2577   2.006   1.939   1.048  1.6415 -0.7392  0.5114
  557SOL     OW 2578   7.420   6.644   5.215  1.1069 -0.2520  0.2501
  557SOL    HW1 2579   7.431   6.651   5.309  0.2900 -0.7237  0.3931
  557SOL    HW2 2580   7.341   6.592   5.204 -0.2524  1.8503 -0.6724
  558SOL     OW 2581   5.248   4.772   4.442 -0.1731 -0.2504 -0.3094
  558SOL    HW1 2582   5.262   4.767   4.536  1.4090  0.1666 -0.4851
  558SOL    HW2 2583   5.238   4.681   4.414 -1.4579 -0.3236  0.3470
  559SOL     OW 2584   1.746   6.048   4.947  0.2578 -0.0375 -0.3228
  559SOL    HW1 2585   1.812   5.983   4.925  2.8630  1.3196  2.6109
  559SOL    HW2 2586   1.771   6.126   4.896  0.1420  0.1023 -0.1686
  560SOL     OW 2587   3.292   6.515   0.331  0.1780 -0.1413  0.1988
  560SOL    HW1 2588   3.328   6.589   0.282  1.9021 -0.7052  0.5521
  560SOL    HW2 2589   3.298   6.541   0.423 -1.5505  0.2667  0.2175
  561SOL     OW 2590   4.019   6.286   1.681  0.5813 -0.0818  0.4140
  561SOL    HW1 2591   4.023   6.356   1.616 -0.6188  2.2779  2.7270
  561SOL    HW2 2592   3.926   6.267   1.690  0.7098 -0.1616  1.6347
  562SOL     OW 2593   2.547   7.582   1.116 -0.1188 -0.0127  0.3581
  562SOL    HW1 2594   2.531   7.517   1.049  0.2404  0.2730 -0.0078
  562SOL    HW2 2595   2.517   7.665   1.077  0.9349  0.3053  0.1886
  563SOL     OW 2596   5.330   6.464   3.346  0.1812  0.2853  0.6790
  563SOL    HW1 2597   5.281   6.496   3.422  1.0967  2.0020  0.6019
  563SOL    HW2 2598   5.301   6.519   3.274 -0.1537 -0.8631 -0.0898
  564SOL     OW 2599   4.258   0.989   4.146 -0.6803  0.1398  0.5552
  564SOL    HW1 2600   4.169   0.981   4.111 -1.1393  0.2901  1.6536
  564SOL    HW2 2601   4.298   1.058   4.093 -2.0378  1.8292  1.6391
  565SOL     OW 2602   4.317   6.612   2.426 -0.2327  0.3385  0.6215
  565SOL    HW1 2603   4.388   6.548   2.423 -0.1747  0.4324 -0.0819
  565SOL    HW2 2604   4.301   6.636   2.334  0.3670  2.0107  0.9038
  566SOL     OW 2605   0.116   3.147   7.063  0.5792  0.0240  0.2658
  566SOL    HW1 2606   0.066   3.210   7.009 -1.0052 -1.6007 -0.2632
  566SOL    HW2 2607   0.143   3.198   7.139 -0.9898  1.2912  0.0494
  567SOL     OW 2608   4.874   7.445   3.319  0.6554  0.1801  0.2913
  567SOL    HW1 2609   4.897   7.532   3.288  0.6761  0.1293  0.1636
  567SOL    HW2 2610   4.926   7.386   3.265  2.6067  0.1689  2.0693
  568SOL     OW 2611   6.391   7.012   0.443 -0.8323  0.6336  0.2318
  568SOL    HW1 2612   6.390   6.967   0.528 -1.0389  1.9556  0.9530
  568SOL    HW2 2613   6.477   6.991   0.406 -0.4249  0.6778  1.1274
  569SOL     OW 2614   0.361   1.500   6.067  0.5069  0.0357 -1.0682
  569SOL    HW1 2615   0.437   1.484   6.124  0.3084 -0.3226 -0.9006
  569SOL    HW2 2616   0.328   1.413   6.047  0.3148  0.1823 -1.3822
  570SOL     OW 2617   7.704   3.896   1.802 -0.2262  0.3464  0.5287
  570SOL    HW1 2618   7.710   3.898   1.707  0.3104  0.9297  0.5677
  570SOL    HW2 2619   7.625   3.946   1.822  0.3793  1.3731  0.4366
  571SOL     OW 2620   2.524   0.537   2.301  0.4069 -0.4941  0.2813
  571SOL    HW1 2621   2.595   0.600   2.290 -0.3074  0.2046 -0.5690
  571SOL    HW2 2622   2.463   0.579   2.362  0.3951 -0.7827  0.4693
  572SOL     OW 2623   2.627   3.556   3.138  0.1109 -0.2073 -0.8689
  572SOL    HW1 2624   2.589   3.569   3.051 -0.7109 -0.7554 -0.5989
  572SOL    HW2 2625   2.688   3.630   3.149 -2.5363  2.0744 -0.3911
  573SOL     OW 2626   5.450   5.166   0.690  0.4587  0.1294  0.2530
  573SOL    HW1 2627   5.490   5.138   0.773 -1.4897 -2.5983  0.4178
  573SOL    HW2 2628   5.504   5.125   0.623  0.4647  0.0572  0.3010
  574SOL     OW 2629   7.462   2.446   1.843 -0.1586  0.4757 -0.4506
  574SOL    HW1 2630   7.396   2.454   1.775 -0.4721 -1.1653 -0.3758
  574SOL    HW2 2631   7.479   2.352   1.850  0.4295  0.6657  1.1959
  575SOL     OW 2632   0.860   2.187   2.358  0.7648 -0.3392 -0.5212
  575SOL    HW1 2633   0.788   2.127   2.335  2.4704 -2.6343 -0.2629
  575SOL    HW2 2634   0.843   2.210   2.449  0.8718 -1.7677 -0.1044
  576SOL     OW 2635   3.365   3.849   4.812  0.0533 -0.0424 -0.0706
  576SOL    HW1 2636   3.374   3.909   4.738 -4.2340  1.6738  0.5679
  576SOL    HW2 2637   3.445   3.863   4.863  1.1160  1.9622 -2.0804
  577SOL     OW 2638   4.428   1.795   2.571  0.3338  0.4578 -0.2630
  577SOL    HW1 2639   4.494   1.846   2.526  0.3368  0.0328 -0.7547
  577SOL    HW2 2640   4.367   1.860   2.607  1.0142  0.8473  0.1990
  578SOL     OW 2641   3.644   7.488   2.130  0.4319  0.5172 -0.4844
  578SOL    HW1 2642   3.661   7.553   2.198  0.9544 -0.4425  0.3340
  578SOL    HW2 2643   3.685   7.524   2.051 -2.7989  3.1112 -1.1565
  579SOL     OW 2644   4.682   5.998   2.960  0.0689 -0.1688  0.1231
  579SOL    HW1 2645   4.674   6.040   3.045  0.5030 -0.7201  0.4431
  579SOL    HW2 2646   4.606   6.029   2.910  0.3505  0.9382  0.3660
  580SOL     OW 2647   6.743   6.481   5.337 -0.6234 -0.1580 -0.3852
  580SOL    HW1 2648   6.755   6.574   5.319  1.7766  0.0338  1.6666
  580SOL    HW2 2649   6.655   6.474   5.374 -0.5334  1.4355  0.1719
  581SOL     OW 2650   0.759   5.954   4.522 -0.0178 -0.3372 -0.0858
  581SOL    HW1 2651   0.761   6.038   4.567  2.0296 -0.1542 -0.4460
  581SOL    HW2 2652   0.697   5.901   4.573 -0.8155  1.1449  0.5382
  582SOL     OW 2653   5.008   5.870   0.852  0.2727  0.3585 -0.1956
  582SOL    HW1 2654   4.932   5.869   0.910 -0.0849 -0.7711 -0.6729
  582SOL    HW2 2655   5.041   5.780   0.854  0.6981  0.4832 -1.1763
  583SOL     OW 2656   2.206   0.807   1.858 -0.0496 -0.5383 -0.2750
  583SOL    HW1 2657   2.184   0.877   1.920  2.0419 -0.2637  0.2509
  583SOL    HW2 2658   2.142   0.816   1.788 -2.4068 -0.7486  1.7315
  584SOL     OW 2659   6.934   2.719   0.881  0.1755  0.3520 -0.3889
  584SOL    HW1 2660   6.937   2.624   0.888  2.4527  0.4274  0.6013
  584SOL    HW2 2661   7.026   2.745   0.873 -0.4273  2.4458 -1.1383
  585SOL     OW 2662   7.284   2.213   5.604 -0.0648  0.0761 -0.2351
  585SOL    HW1 2663   7.333   2.141   5.562 -0.2360 -0.2779  0.1616
  585SOL    HW2 2664   7.352   2.265   5.647  0.1040  0.3999 -0.8822
  586SOL     OW 2665   6.733   4.516   0.012 -0.0609  0.2374 -0.5677
  586SOL    HW1 2666   6.687   4.433   0.005  0.4385 -0.1994  0.8507
  586SOL    HW2 2667   6.773   4.514   0.100  1.1611  1.3461 -1.0559
  587SOL     OW 2668   3.900   3.872   2.132  0.0049 -0.2981  0.1585
  587SOL    HW1 2669   3.892   3.878   2.037  1.0796 -1.0665  0.0088
  587SOL    HW2 2670   3.994   3.873   2.149 -0.1751 -0.0805  1.2240
  588SOL     OW 2671   5.052   1.773   2.556  0.0444  0.0305  0.9927
  588SOL    HW1 2672   5.069   1.858   2.596 -1.2026 -0.1190  1.8818
  588SOL    HW2 2673   5.109   1.712   2.604 -1.6041 -0.1905  2.8044
  589SOL     OW 2674   5.272   4.255   2.059 -0.3322 -0.2269  0.0892
  589SOL    HW1 2675   5.345   4.218   2.108  0.6345  0.9186 -0.4426
  589SOL    HW2 2676   5.274   4.349   2.079 -0.2917  0.1787 -1.5914
  590SOL     OW 2677   7.597   0.295   5.983  0.8339 -0.2700 -0.0568
  590SOL    HW1 2678   7.672   0.286   5.923  1.3069 -1.8316  0.7043
  590SOL    HW2 2679   7.557   0.208   5.983  0.1672  0.0205  1.0351
  591SOL     OW 2680   1.922   5.814   4.855  0.1528  0.3050 -0.4497
  591SOL    HW1 2681   1.867   5.755   4.906 -0.3040  1.6356  0.6890
  591SOL    HW2 2682   1.994   5.836   4.913  0.5920  0.4554 -1.0418
  592SOL     OW 2683   0.704   0.759   5.857  0.1816  0.2789  0.0700
  592SOL    HW1 2684   0.635   0.825   5.851  0.3274  0.4102 -0.2161
  592SOL    HW2 2685   0.703   0.716   5.771  1.3816  1.2230 -0.4431
  593SOL     OW 2686   4.671   4.754   2.268 -0.1181 -0.5464 -0.2811
  593SOL    HW1 2687   4.665   4.846   2.239 -0.1206 -0.1575  0.9172
  593SOL    HW2 2688   4.762   4.744   2.295 -0.4592 -0.4629  0.9519
  594SOL     OW 2689   1.689   0.091   5.308  0.4719  0.4830  0.3424
  594SOL    HW1 2690   1.677   0.003   5.345  0.3823  0.5085  0.3751
  594SOL    HW2 2691   1.775   0.089   5.268  0.9641  0.7237  1.3444
  595SOL     OW 2692   3.555   6.506   4.301 -0.0814 -0.0076 -0.4318
  595SOL    HW1 2693   3.627   6.511   4.239 -0.4598 -0.7863 -0.9486
  595SOL    HW2 2694   3.561   6.587   4.351  0.4642  0.4556 -1.2292
  596SOL     OW 2695   4.078   5.540   3.626 -0.2365 -0.2497  0.2791
  596SOL    HW1 2696   3.998   5.586   3.600 -1.0770 -1.7355  0.1423
  596SOL    HW2 2697   4.056   5.500   3.711  0.0857 -1.2904 -0.1141
  597SOL     OW 2698   1.519   2.149   5.179  0.6484  0.0392  0.6797
  597SOL    HW1 2699   1.472   2.120   5.257  1.5286  0.5093  1.4110
  597SOL    HW2 2700   1.595   2.090   5.174  1.5093  1.0676  1.1793
  598SOL     OW 2701   6.280   7.735   2.500 -0.0795 -0.0557  0.6797
  598SOL    HW1 2702   6.263   7.827   2.519  0.2773  0.3974 -1.0169
  598SOL    HW2 2703   6.372   7.723   2.525 -0.3514 -0.1768  1.6506
  599SOL     OW 2704   4.292   5.094   2.941 -0.3036  0.2595  0.0905
  599SOL    HW1 2705   4.320   5.096   2.850  0.6844  0.6404  0.3864
  599SOL    HW2 2706   4.341   5.166   2.982  2.0246 -2.0555  1.6859
  600SOL     OW 2707   0.635   0.265   7.444 -0.4977 -0.2728 -0.2497
  600SOL    HW1 2708   0.690   0.197   7.484  1.5602  0.5705 -1.5196
  600SOL    HW2 2709   0.695   0.335   7.421 -2.3819  1.4577 -0.1780
  601SOL     OW 2710   3.977   1.905   5.817  0.5608 -0.2977  0.3757
  601SOL    HW1 2711   3.942   1.820   5.844 -0.0907  0.0070  0.5092
  601SOL    HW2 2712   3.900   1.960   5.807  0.9568  0.1841 -0.0469
  602SOL     OW 2713   6.771   2.488   1.871 -0.4071  0.1855  0.0039
  602SOL    HW1 2714   6.816   2.508   1.953  0.1394  0.7061 -0.4164
  602SOL    HW2 2715   6.831   2.516   1.803 -0.6124 -0.7976 -0.5929
  603SOL     OW 2716   5.469   0.606   1.081 -0.1055 -0.1221  0.4262
  603SOL    HW1 2717   5.482   0.567   0.995  0.3902  0.8195  0.0567
  603SOL    HW2 2718   5.419   0.686   1.063 -2.9013 -1.5018  1.3705
  604SOL     OW 2719   5.972   3.468   4.805 -0.0329  0.3120  0.0563
  604SOL    HW1 2720   5.985   3.545   4.860  1.1406 -0.0352  0.2997
  604SOL    HW2 2721   5.928   3.405   4.862  0.9043  0.0621  0.5204
  605SOL     OW 2722   0.199   6.216   6.178 -0.1216 -0.1453 -0.1843
  605SOL    HW1 2723   0.137   6.216   6.105  1.3254  0.0205 -1.4644
  605SOL    HW2 2724   0.265   6.281   6.154  0.5046 -0.2217  1.1974
  606SOL     OW 2725   5.562   0.306   6.789  0.4589 -0.2618 -0.2210
  606SOL    HW1 2726   5.594   0.217   6.776  0.1644 -0.4417  0.2608
  606SOL    HW2 2727   5.467   0.300   6.777  0.5299  0.1663 -1.0984
  607SOL     OW 2728   2.807   4.464   3.326 -0.2614  0.4023 -0.0502
  607SOL    HW1 2729   2.767   4.426   3.405  1.2209  1.5326  1.3208
  607SOL    HW2 2730   2.808   4.558   3.343  1.3186  0.5488 -0.7896
  608SOL     OW 2731   5.344   1.932   2.373  0.4687 -0.3659  0.1018
  608SOL    HW1 2732   5.289   1.910   2.298  0.2203 -0.4519  0.3080
  608SOL    HW2 2733   5.412   1.989   2.338  0.1468 -0.1216 -0.1198
  609SOL     OW 2734   6.791   7.129   6.777  0.2977  0.3584 -0.0705
  609SOL    HW1 2735   6.783   7.034   6.774 -2.4052  0.4439  1.4482
  609SOL    HW2 2736   6.702   7.161   6.764  1.2249  2.7562 -1.1508
  610SOL     OW 2737   3.851   3.620   2.523 -0.5703 -0.6027  0.5759
  610SOL    HW1 2738   3.816   3.709   2.521  1.5807  0.2874 -0.6688
  610SOL    HW2 2739   3.855   3.594   2.431 -0.7681 -1.8139  0.9016
  611SOL     OW 2740   0.231   4.268   7.270 -0.0928  0.1264  0.1814
  611SOL    HW1 2741   0.136   4.271   7.261 -0.1509 -1.0949  0.2259
  611SOL    HW2 2742   0.253   4.345   7.322 -1.2705 -0.6003  1.8206
  612SOL     OW 2743   0.554   2.738   2.437  0.3939 -0.0634  0.3812
  612SOL    HW1 2744   0.593   2.757   2.522  1.3005  1.5460 -0.3344
  612SOL    HW2 2745   0.527   2.824   2.404 -1.9260 -0.8909 -0.0511
  613SOL     OW 2746   6.556   2.301   1.245 -0.1727  0.1391 -0.1410
  613SOL    HW1 2747   6.578   2.362   1.316 -0.7840 -1.0447  1.1062
  613SOL    HW2 2748   6.553   2.356   1.166  2.3290  1.1881  0.3960
  614SOL     OW 2749   2.730   1.198   3.053  0.2770  0.0114 -0.3556
  614SOL    HW1 2750   2.651   1.190   3.106  1.6952 -1.3013  1.6547
  614SOL    HW2 2751   2.722   1.129   2.987 -0.0311 -0.4345  0.1446
  615SOL     OW 2752   0.059   5.159   5.709 -0.6415 -0.3741 -0.6562
  615SOL    HW1 2753   0.075   5.065   5.705  0.0298 -0.2927 -0.1302
  615SOL    HW2 2754   0.104   5.194   5.632  1.9800 -0.1411  0.8495
  616SOL     OW 2755   1.952   1.138   3.124  0.2400  0.1422 -0.3880
  616SOL    HW1 2756   1.879   1.128   3.185  1.3332 -0.3898  0.8846
  616SOL    HW2 2757   1.942   1.226   3.089 -1.4076 -0.1748 -0.7938
  617SOL     OW 2758   6.763   0.807   2.987  0.0716  0.0812  0.3155
  617SOL    HW1 2759   6.745   0.890   2.942  0.8727  0.2991  0.3824
  617SOL    HW2 2760   6.736   0.822   3.077  2.2470  1.0650  0.8868
  618SOL     OW 2761   6.384   3.189   5.170 -0.4842 -0.2438  0.1596
  618SOL    HW1 2762   6.288   3.197   5.176 -0.4590 -0.2056  0.5323
  618SOL    HW2 2763   6.406   3.123   5.235 -0.5487 -2.4673 -1.9244
  619SOL     OW 2764   1.743   3.961   2.598 -1.1462  0.4685 -0.5741
  619SOL    HW1 2765   1.692   4.037   2.569 -1.6550  0.6164  0.6445
  619SOL    HW2 2766   1.785   3.990   2.680 -1.4481 -0.6008 -0.0276
  620SOL     OW 2767   3.361   3.030   3.496  0.0845 -0.2308 -0.1102
  620SOL    HW1 2768   3.416   2.992   3.564 -2.5848 -0.9745  1.7964
  620SOL    HW2 2769   3.359   3.124   3.516 -0.7806 -0.4619  0.9611
  621SOL     OW 2770   3.470   7.158   1.988 -0.1905  0.2101  0.3012
  621SOL    HW1 2771   3.476   7.232   1.927  3.7325 -0.0630  0.1100
  621SOL    HW2 2772   3.551   7.162   2.038 -1.0878 -2.4423  2.1504
  622SOL     OW 2773   4.005   6.176   6.749  0.7033  0.4351 -0.0009
  622SOL    HW1 2774   4.022   6.175   6.843  0.5579  0.1699  0.0208
  622SOL    HW2 2775   3.915   6.147   6.740  0.9882 -0.3762 -0.2834
  623SOL     OW 2776   3.272   7.228   3.460 -0.1070 -0.6799  0.6181
  623SOL    HW1 2777   3.178   7.234   3.474 -0.4768 -1.7264 -1.1425
  623SOL    HW2 2778   3.303   7.318   3.467 -1.8399  0.2955 -2.4652
  624SOL     OW 2779   5.733   3.183   0.611 -0.4960  0.5370  0.2577
  624SOL    HW1 2780   5.789   3.250   0.650 -0.0624  0.9168 -0.9711
  624SOL    HW2 2781   5.649   3.191   0.658 -0.3469  1.7141  0.3399
  625SOL     OW 2782   3.213   1.928   3.011 -0.0505 -0.2710  0.3358
  625SOL    HW1 2783   3.275   1.966   2.950 -1.2292  0.2666 -0.5636
  625SOL    HW2 2784   3.220   1.982   3.090 -0.8073  1.0589 -0.4795
  626SOL     OW 2785   0.021   6.194   4.123 -0.3415  0.2646 -0.5889
  626SOL    HW1 2786  -0.066   6.170   4.155 -0.0490  0.5504  0.4801
  626SOL    HW2 2787   0.005   6.242   4.042 -1.0427 -1.7958 -1.7460
  627SOL     OW 2788   7.739   1.875   0.899 -0.0658  0.2784  0.2723
  627SOL    HW1 2789   7.719   1.791   0.859 -0.9512 -0.9824  3.0731
  627SOL    HW2 2790   7.653   1.917   0.910  0.3529  1.5597 -1.0039
  628SOL     OW 2791   3.894   2.186   1.744  0.5163  0.0765  1.1305
  628SOL    HW1 2792   3.940   2.115   1.787  3.0149  1.0342  0.2023
  628SOL    HW2 2793   3.811   2.148   1.715  1.3909 -2.1759  1.4563
  629SOL     OW 2794   7.464   3.445   5.352 -0.5362  0.6870  0.5817
  629SOL    HW1 2795   7.495   3.412   5.267  0.9623  1.3683  0.8370
  629SOL    HW2 2796   7.411   3.373   5.387  0.6421 -0.4941  0.0365
  630SOL     OW 2797   3.453   2.867   3.047 -0.0298 -0.5881  0.2746
  630SOL    HW1 2798   3.384   2.806   3.074 -0.4253 -0.1146  0.3479
  630SOL    HW2 2799   3.435   2.885   2.955 -0.6000  0.2839  0.5323
  631SOL     OW 2800   5.586   0.453   7.514  0.0768 -0.0805 -0.3368
  631SOL    HW1 2801   5.593   0.382   7.451  0.4810  0.9605 -1.5031
  631SOL    HW2 2802   5.553   0.527   7.463 -0.4578  0.5447  0.8743
  632SOL     OW 2803   6.175   7.004   7.017  0.1904 -0.1962 -0.4200
  632SOL    HW1 2804   6.206   6.935   7.076 -0.4364 -0.3965 -0.3187
  632SOL    HW2 2805   6.103   7.046   7.064  0.5597  0.5264 -0.4851
  633SOL     OW 2806   1.508   6.083   7.161  0.3663 -0.2262 -0.6770
  633SOL    HW1 2807   1.431   6.104   7.215  0.2016 -4.3935  1.1095
  633SOL    HW2 2808   1.473   6.074   7.072 -0.9289 -0.5172 -0.1584
  634SOL     OW 2809   0.454   2.544   1.459 -0.0380 -0.4446  0.3575
  634SOL    HW1 2810   0.412   2.551   1.545 -2.6259  0.3539 -0.8740
  634SOL    HW2 2811   0.433   2.626   1.415  1.3201 -0.7870 -1.0216
  635SOL     OW 2812   1.146   4.157   0.437 -1.0381 -0.2836 -0.1903
  635SOL    HW1 2813   1.087   4.218   0.481 -0.3067 -0.6374  1.3526
  635SOL    HW2 2814   1.165   4.198   0.353 -1.7522  0.8781  0.1948
  636SOL     OW 2815   6.560   5.529   1.566  0.3020  0.7754 -0.5096
  636SOL    HW1 2816   6.512   5.599   1.610 -1.3346 -1.3643  1.3610
  636SOL    HW2 2817   6.584   5.469   1.637 -1.1248 -2.0915 -2.2802
  637SOL     OW 2818   4.212   4.126   0.022 -0.2513  0.2207 -0.3307
  637SOL    HW1 2819   4.139   4.187   0.016 -2.0773 -1.7540  0.4134
  637SOL    HW2 2820   4.194   4.075   0.101  0.9726 -1.5014 -1.0980
  638SOL     OW 2821   6.520   6.209   1.677 -0.4913 -0.4547 -0.1737
  638SOL    HW1 2822   6.469   6.210   1.596 -0.1748  0.3535 -0.3736
  638SOL    HW2 2823   6.504   6.295   1.716  0.5860 -0.2579 -0.1521
  639SOL     OW 2824   3.930   5.294   4.574 -0.5404  0.0411  0.4605
  639SOL    HW1 2825   3.966   5.266   4.659 -0.9415 -1.6116  0.1271
  639SOL    HW2 2826   4.004   5.335   4.529 -0.2672  0.7518  1.5206
  640SOL     OW 2827   0.588   3.146   4.424  0.1355 -0.1334 -0.0398
  640SOL    HW1 2828   0.571   3.119   4.333 -0.3488 -0.9792  0.2861
  640SOL    HW2 2829   0.551   3.233   4.431  1.4022  0.5211 -1.0317
  641SOL     OW 2830   7.007   4.549   4.160 -0.1605 -0.4885 -0.0417
  641SOL    HW1 2831   7.070   4.477   4.162 -0.2187 -0.5286  1.7921
  641SOL    HW2 2832   6.994   4.573   4.252 -0.4614  1.6075 -0.5756
  642SOL     OW 2833   7.198   0.527   3.299 -0.7317 -0.3711 -0.2126
  642SOL    HW1 2834   7.203   0.575   3.216  1.3703 -1.1717 -0.6226
  642SOL    HW2 2835   7.274   0.556   3.348 -2.0929  0.2925  1.6214
  643SOL     OW 2836   7.151   1.159   3.401 -0.6627  0.1410  0.2035
  643SOL    HW1 2837   7.157   1.069   3.431  0.7157  0.4469  0.9101
  643SOL    HW2 2838   7.112   1.206   3.474 -1.7820  0.0711 -0.3220
  644SOL     OW 2839   6.567   5.455   2.035 -0.3297 -0.5786  0.1579
  644SOL    HW1 2840   6.614   5.531   1.999 -1.0346  0.0364  0.5078
  644SOL    HW2 2841   6.556   5.475   2.128  0.1289 -1.4591  0.4147
  645SOL     OW 2842   6.008   3.491   1.036  0.5043 -0.0231 -0.2635
  645SOL    HW1 2843   6.065   3.494   1.113  0.5916 -1.7327 -0.2242
  645SOL    HW2 2844   6.038   3.564   0.981  1.4130  0.3147  0.6594
  646SOL     OW 2845   7.577   2.134   4.434 -0.0738 -0.5050 -0.1668
  646SOL    HW1 2846   7.640   2.203   4.413 -0.7262 -0.2081 -1.2042
  646SOL    HW2 2847   7.541   2.108   4.350 -1.6413 -0.3928  0.4305
  647SOL     OW 2848   2.900   4.605   1.361  0.0110 -0.6302 -0.1965
  647SOL    HW1 2849   2.855   4.547   1.423 -0.5245 -1.2920 -1.1703
  647SOL    HW2 2850   2.988   4.569   1.355  0.3816  0.0381  0.9181
  648SOL     OW 2851   1.687   5.886   5.357  0.4512  0.2917  0.0664
  648SOL    HW1 2852   1.644   5.809   5.319  1.1166 -0.7397  1.3253
  648SOL    HW2 2853   1.692   5.866   5.451  3.6487  0.3290  0.0085
  649SOL     OW 2854   1.063   2.501   6.108  0.0340  0.1197 -0.2206
  649SOL    HW1 2855   1.157   2.496   6.123  0.2776  0.9221 -1.4146
  649SOL    HW2 2856   1.033   2.410   6.111  0.7319 -0.0904  0.7914
  650SOL     OW 2857   0.614   6.166   4.364  0.1834 -0.2568  0.1758
  650SOL    HW1 2858   0.531   6.199   4.397  0.0409  0.1577 -0.5777
  650SOL    HW2 2859   0.635   6.092   4.421  0.8941  1.5509  2.4285
  651SOL     OW 2860   6.716   3.035   0.012 -0.0931  0.0621  0.5943
  651SOL    HW1 2861   6.810   3.031   0.030 -0.2757 -0.5931  1.4468
  651SOL    HW2 2862   6.703   2.976  -0.062  0.3585  1.2347 -0.4661
  652SOL     OW 2863   3.832   0.036   6.425 -0.2171  0.5423  0.0980
  652SOL    HW1 2864   3.783   0.005   6.502 -1.2450  1.1280 -0.2974
  652SOL    HW2 2865   3.863   0.123   6.450 -0.8463  0.8765 -0.2607
  653SOL     OW 2866   0.323   3.806   4.491  0.1943 -0.3081 -0.3006
  653SOL    HW1 2867   0.339   3.889   4.447 -0.1351 -0.1850 -0.1949
  653SOL    HW2 2868   0.330   3.827   4.584 -3.0811  0.3577 -0.0853
  654SOL     OW 2869   4.448   2.735   5.248  0.8091  0.5173  1.0011
  654SOL    HW1 2870   4.381   2.730   5.180  1.3885  1.4571  0.3437
  654SOL    HW2 2871   4.495   2.652   5.241  2.2268  1.4183 -1.2074
  655SOL     OW 2872   2.445   7.022   6.945 -0.1013  0.2022 -0.0839
  655SOL    HW1 2873   2.459   7.095   6.884  1.0256 -1.5135 -1.9885
  655SOL    HW2 2874   2.351   7.003   6.937 -0.0840  0.3921 -0.8414
  656SOL     OW 2875   6.873   7.116   4.535  0.1726 -0.0244  0.5597
  656SOL    HW1 2876   6.821   7.120   4.616 -1.2186  0.2042 -0.3010
  656SOL    HW2 2877   6.949   7.171   4.552 -0.1575  0.1146  1.6676
  657SOL     OW 2878   6.645   4.774   6.662 -0.3420  0.2273  0.1336
  657SOL    HW1 2879   6.717   4.751   6.721  0.8186  2.1715 -0.4426
  657SOL    HW2 2880   6.639   4.699   6.602  1.3478  0.1016  0.0662
  658SOL     OW 2881   2.674   4.269   6.197  0.0017  0.1450 -0.0556
  658SOL    HW1 2882   2.628   4.327   6.136 -2.6397 -1.5007  0.2004
  658SOL    HW2 2883   2.605   4.212   6.232  2.1495 -1.8764  1.1500
  659SOL     OW 2884   3.475   7.434   3.725 -0.4527  0.0879  0.1903
  659SOL    HW1 2885   3.510   7.513   3.682  0.2292  0.3970  1.2937
  659SOL    HW2 2886   3.551   7.379   3.740 -0.6610  0.0538  1.1528
  660SOL     OW 2887   7.082   0.372   6.353 -0.4592 -0.0572  0.7508
  660SOL    HW1 2888   7.138   0.341   6.425  0.3441  0.0167  0.1706
  660SOL    HW2 2889   7.111   0.322   6.277 -0.2171  0.9793  0.1388
  661SOL     OW 2890   2.100   7.148   7.191  0.0544 -0.1054 -0.2795
  661SOL    HW1 2891   2.086   7.055   7.206 -1.7264 -0.2832 -2.3906
  661SOL    HW2 2892   2.107   7.156   7.096  0.6737  1.8686 -0.1173
  662SOL     OW 2893   4.826   1.146   6.711  0.3349  0.4263  0.3770
  662SOL    HW1 2894   4.912   1.168   6.745  0.7577  0.6101 -0.7809
  662SOL    HW2 2895   4.767   1.209   6.752  0.5946 -0.2248  1.8268
  663SOL     OW 2896   5.030   6.563   3.141  0.4275  0.0330 -0.4324
  663SOL    HW1 2897   5.099   6.610   3.094  0.4460  1.9088  1.3577
  663SOL    HW2 2898   5.076   6.507   3.203  0.3605  0.0157 -0.3973
  664SOL     OW 2899   3.041   2.357   6.408 -0.2753  0.1482  0.3317
  664SOL    HW1 2900   2.960   2.332   6.453 -1.3048  0.5224 -1.2062
  664SOL    HW2 2901   3.018   2.353   6.315  1.7191 -0.5086 -0.1807
  665SOL     OW 2902   1.345   1.189   4.734 -0.2067  0.0856 -0.0291
  665SOL    HW1 2903   1.278   1.156   4.794 -2.0745  0.5808 -1.7412
  665SOL    HW2 2904   1.373   1.272   4.773  0.0809 -0.5283  1.1347
  666SOL     OW 2905   4.766   2.531   1.607  0.9374 -0.0277  0.3454
  666SOL    HW1 2906   4.828   2.457   1.601  0.6701 -0.3957  1.7162
  666SOL    HW2 2907   4.724   2.519   1.692 -1.4552 -0.1027 -0.7898
  667SOL     OW 2908   6.178   3.195   1.044 -0.3416 -0.1524  0.1336
  667SOL    HW1 2909   6.104   3.183   0.985 -0.2888 -0.4494  0.1258
  667SOL    HW2 2910   6.140   3.188   1.131 -0.2762 -0.6056  0.1280
  668SOL     OW 2911   6.938   1.331   2.767 -0.1755  0.3522  0.5064
  668SOL    HW1 2912   7.015   1.378   2.736  0.6938 -0.8348  0.8306
  668SOL    HW2 2913   6.941   1.247   2.721 -1.2708  0.2821  0.5392
  669SOL     OW 2914   2.948   0.723   6.226  0.8651  0.6175 -0.3834
  669SOL    HW1 2915   2.894   0.737   6.304  0.4524  1.5117 -0.8031
  669SOL    HW2 2916   2.948   0.629   6.212 -0.1589  0.5567 -0.0570
  670SOL     OW 2917   7.127   2.530   7.170  0.1918 -0.2036  0.4351
  670SOL    HW1 2918   7.206   2.479   7.154  1.1179  1.8617 -2.3267
  670SOL    HW2 2919   7.076   2.521   7.090 -0.5070  1.6120  0.6307
  671SOL     OW 2920   0.262   4.735   4.452  0.2097  0.0467  0.1124
  671SOL    HW1 2921   0.317   4.669   4.411 -0.2517  0.7704 -1.7618
  671SOL    HW2 2922   0.176   4.695   4.457 -0.1764  0.6127 -1.4408
  672SOL     OW 2923   0.067   7.701   6.960 -0.3631  0.0851  0.2515
  672SOL    HW1 2924   0.025   7.656   7.033  0.9949 -0.7114  0.5784
  672SOL    HW2 2925   0.058   7.640   6.886  1.3875 -0.7593  0.6693
  673SOL     OW 2926   7.106   1.590   6.200  0.9143  0.3159  0.2839
  673SOL    HW1 2927   7.152   1.507   6.183  1.0793  0.6767 -1.1499
  673SOL    HW2 2928   7.074   1.618   6.115 -0.6591  0.8782  1.0175
  674SOL     OW 2929   4.008   0.688   3.473  0.0214 -0.1849  0.2905
  674SOL    HW1 2930   4.020   0.594   3.462 -2.0659 -0.6737  1.5581
  674SOL    HW2 2931   4.096   0.722   3.489  0.8197 -1.8967 -0.2437
  675SOL     OW 2932   6.091   0.953   2.488  0.5833 -0.9400  0.1645
  675SOL    HW1 2933   6.181   0.928   2.509  0.3359 -1.1722  0.9872
  675SOL    HW2 2934   6.072   0.907   2.406  2.6740  2.4789 -2.5422
  676SOL     OW 2935   3.966   3.711   1.603  0.8714  0.1852  0.5346
  676SOL    HW1 2936   4.015   3.722   1.684  0.5345 -1.1147  0.9335
  676SOL    HW2 2937   4.018   3.648   1.552  0.3462 -0.1193  0.3683
  677SOL     OW 2938   4.638   1.335   6.794  0.4671 -0.0680 -0.5965
  677SOL    HW1 2939   4.599   1.421   6.777  1.7582  0.2852 -1.9835
  677SOL    HW2 2940   4.693   1.348   6.872 -0.5179 -0.0436  0.1083
  678SOL     OW 2941   7.479   1.217   4.572  0.4165  0.1653 -0.1229
  678SOL    HW1 2942   7.447   1.163   4.500  2.1502 -0.8310 -0.1969
  678SOL    HW2 2943   7.463   1.165   4.651  0.9033  0.1033 -0.0617
  679SOL     OW 2944   2.105   4.079   3.338  0.2230  0.1680  0.4284
  679SOL    HW1 2945   2.188   4.033   3.320 -0.0727  0.3574 -1.6019
  679SOL    HW2 2946   2.132   4.165   3.369  0.8499  0.6123 -1.2256
  680SOL     OW 2947   0.506   4.870   4.192 -0.5596  0.3368 -0.2549
  680SOL    HW1 2948   0.573   4.865   4.260 -0.0791 -2.7235 -0.8085
  680SOL    HW2 2949   0.498   4.964   4.173  0.9734  1.0914  2.3075
  681SOL     OW 2950   7.542   5.836   2.869 -0.2938  0.5049  0.3809
  681SOL    HW1 2951   7.624   5.884   2.870 -0.3913  0.7845 -1.2252
  681SOL    HW2 2952   7.475   5.902   2.884 -0.2155  0.1160  2.7778
  682SOL     OW 2953   3.000   4.759   3.148  0.1891  0.0065 -0.0584
  682SOL    HW1 2954   2.989   4.839   3.201  0.7378  0.0726 -0.0429
  682SOL    HW2 2955   3.027   4.692   3.211 -1.2630 -0.4626  0.1097
  683SOL     OW 2956   1.152   0.435   3.114  0.2183  0.3939 -0.2093
  683SOL    HW1 2957   1.120   0.525   3.117  0.4548  0.4912 -0.5380
  683SOL    HW2 2958   1.075   0.383   3.088  0.2643  0.5979 -0.7775
  684SOL     OW 2959   0.334   2.014   4.001 -0.3117 -0.1008 -0.0645
  684SOL    HW1 2960   0.245   1.985   4.021 -0.0283  0.5044  2.4700
  684SOL    HW2 2961   0.384   1.993   4.081  1.3808  1.2824 -0.6951
  685SOL     OW 2962   5.660   1.233   5.043  0.2936  1.0668 -0.1251
  685SOL    HW1 2963   5.708   1.152   5.061 -1.3099  0.4866  1.9818
  685SOL    HW2 2964   5.708   1.301   5.090  1.4121  1.3140 -1.5643
  686SOL     OW 2965   6.027   7.248   0.558  0.3569 -0.0943 -0.2917
  686SOL    HW1 2966   6.117   7.245   0.591  0.5291 -0.9819 -0.8155
  686SOL    HW2 2967   5.975   7.280   0.631  1.2468  1.5375 -0.3092
  687SOL     OW 2968   4.749   1.793   5.761 -0.4774  0.6534 -0.8581
  687SOL    HW1 2969   4.656   1.775   5.743 -0.6621  1.0631 -0.3222
  687SOL    HW2 2970   4.793   1.710   5.741 -1.4273 -0.7958  2.4774
  688SOL     OW 2971   0.817   1.183   2.378 -0.2189  0.2624 -0.3691
  688SOL    HW1 2972   0.866   1.125   2.436  0.6555  1.4444  0.1242
  688SOL    HW2 2973   0.728   1.183   2.414 -0.2423 -0.7753 -0.3978
  689SOL     OW 2974   4.670   3.546   3.769 -0.1821  0.1762 -0.1120
  689SOL    HW1 2975   4.599   3.582   3.821  0.2051 -0.3807  0.8340
  689SOL    HW2 2976   4.629   3.521   3.686 -1.4222 -1.4449  0.9234
  690SOL     OW 2977   5.566   6.536   4.382 -0.1478  0.5477  0.2739
  690SOL    HW1 2978   5.547   6.462   4.325 -0.7780 -0.6091  1.9269
  690SOL    HW2 2979   5.600   6.497   4.463  0.1347  2.0907  0.9449
  691SOL     OW 2980   1.874   3.684   2.838  0.4738 -0.8927 -0.1635
  691SOL    HW1 2981   1.894   3.668   2.745 -0.3207 -0.0932 -0.4860
  691SOL    HW2 2982   1.904   3.605   2.883  0.3117 -1.5551 -1.1834
  692SOL     OW 2983   4.099   4.395   7.273  0.8124 -0.4967  0.6305
  692SOL    HW1 2984   4.066   4.357   7.191 -1.2118  1.3080  0.5082
  692SOL    HW2 2985   4.031   4.376   7.337  0.5654  1.3095  0.9560
  693SOL     OW 2986   2.732   2.045   4.182 -0.0043  0.1468 -0.6173
  693SOL    HW1 2987   2.667   2.064   4.113 -0.4692  1.3892  0.1225
  693SOL    HW2 2988   2.806   2.101   4.161  0.3561 -0.3853 -0.7844
  694SOL     OW 2989   5.429   1.755   7.671 -0.5543  0.4487  0.3903
  694SOL    HW1 2990   5.450   1.771   7.763  0.2469  3.1426 -0.1668
  694SOL    HW2 2991   5.513   1.754   7.626 -0.8652 -1.8284 -0.2374
  695SOL     OW 2992   0.907   2.889   0.895  0.0176  0.6306  0.4497
  695SOL    HW1 2993   0.890   2.887   0.989 -1.4099 -2.0155  0.2293
  695SOL    HW2 2994   0.874   2.974   0.867 -0.5317  1.0224  2.1776
  696SOL     OW 2995   4.222   1.275   1.126  0.4206 -0.1878  0.4259
  696SOL    HW1 2996   4.148   1.265   1.186 -0.6775  0.4866 -0.7633
  696SOL    HW2 2997   4.286   1.325   1.176 -0.5767  0.5867  0.9685
  697SOL     OW 2998   6.770   1.458   3.180 -0.3154 -0.0526 -0.4763
  697SOL    HW1 2999   6.783   1.363   3.175 -0.6943 -0.0722 -1.1194
  697SOL    HW2 3000   6.797   1.480   3.269 -1.1046 -0.8991 -0.0047
  698SOL     OW 3001   3.202   6.140   1.645  0.1246  0.0482 -0.5527
  698SOL    HW1 3002   3.109   6.161   1.642 -0.4496 -2.2612 -2.8706
  698SOL    HW2 3003   3.208   6.070   1.710  0.2291  0.2167 -0.3830
  699SOL     OW 3004   4.049   2.630   1.696  0.2638  0.4163  0.3985
  699SOL    HW1 3005   3.992   2.559   1.668  0.9715 -0.4477  1.1094
  699SOL    HW2 3006   4.090   2.598   1.776  1.5961  1.1054  0.0162
  700SOL     OW 3007   7.369   6.507   2.449  0.7722  0.5898 -0.3687
  700SOL    HW1 3008   7.447   6.466   2.413  1.2315  0.6545  0.5420
  700SOL    HW2 3009   7.313   6.434   2.476  0.2048  0.5248 -1.6126
  701SOL     OW 3010   7.429   4.194   7.470 -0.4630  0.1676 -0.5039
  701SOL    HW1 3011   7.496   4.247   7.512 -0.0541 -0.0322 -0.8942
  701SOL    HW2 3012   7.391   4.251   7.404  0.6886 -0.3222 -1.6384
  702SOL     OW 3013   0.694   5.942   2.072  0.1754 -0.4237  0.3111
  702SOL    HW1 3014   0.773   5.949   2.019  0.5179 -0.1616  0.8451
  702SOL    HW2 3015   0.719   5.883   2.144 -0.1702 -0.4930  0.3768
  703SOL     OW 3016   7.462   6.750   4.223 -0.0748 -0.1186  0.3125
  703SOL    HW1 3017   7.481   6.675   4.279 -0.5943  0.3792  1.1735
  703SOL    HW2 3018   7.373   6.734   4.190 -0.1513  0.0797  0.4252
  704SOL     OW 3019   2.582   1.128   7.044  0.3602 -0.4445  0.0423
  704SOL    HW1 3020   2.548   1.077   7.118 -0.4745 -0.8899 -0.6295
  704SOL    HW2 3021   2.504   1.151   6.993  0.8224  0.7118 -0.1753
  705SOL     OW 3022   5.565   7.284   4.873  0.1115 -0.3118  0.1351
  705SOL    HW1 3023   5.527   7.269   4.960 -2.1547  0.5011 -0.6567
  705SOL    HW2 3024   5.545   7.205   4.824  1.1439 -0.6490  0.2182
  706SOL     OW 3025   6.759   0.246   5.002 -0.4060 -0.4348  0.4775
  706SOL    HW1 3026   6.738   0.325   4.952 -0.4145 -1.2058 -0.7978
  706SOL    HW2 3027   6.839   0.213   4.960 -0.4036 -1.1050  1.0007
  707SOL     OW 3028   1.603   1.802   1.286  0.3723 -0.5719 -0.5676
  707SOL    HW1 3029   1.649   1.810   1.202  0.7611  0.7910 -0.2551
  707SOL    HW2 3030   1.665   1.757   1.343  0.3742 -0.8945 -0.8224
  708SOL     OW 3031   1.256   0.010   3.045 -0.5432  0.4376  0.4964
  708SOL    HW1 3032   1.229   0.024   3.136  0.6156 -0.0056  0.9250
  708SOL    HW2 3033   1.278   0.098   3.014  0.4910  0.4221  1.1331
  709SOL     OW 3034   1.600   4.694   0.696  0.0329  0.3254 -0.0599
  709SOL    HW1 3035   1.567   4.607   0.673 -0.8844  0.4534  0.7277
  709SOL    HW2 3036   1.533   4.754   0.663  0.6514  0.7461 -0.5760
  710SOL     OW 3037   3.691   6.375   6.877  0.3299 -0.0346 -0.0923
  710SOL    HW1 3038   3.702   6.345   6.966 -1.4322 -0.0203  0.1570
  710SOL    HW2 3039   3.749   6.452   6.870 -0.2196  0.5316  1.3292
  711SOL     OW 3040   6.307   7.200   6.354  0.3800 -0.3053  0.1249
  711SOL    HW1 3041   6.236   7.173   6.297 -0.8061 -2.8890  2.5694
  711SOL    HW2 3042   6.361   7.122   6.365  1.0083  0.3076  1.8246
  712SOL     OW 3043   2.561   3.413   1.457 -0.2195 -0.1439  0.1643
  712SOL    HW1 3044   2.574   3.453   1.371 -2.5430  1.6769  0.5465
  712SOL    HW2 3045   2.609   3.470   1.517 -0.6801  0.0818  0.3250
  713SOL     OW 3046   7.273   7.409   1.318  0.0248 -0.1717  0.4944
  713SOL    HW1 3047   7.367   7.400   1.332  0.0578 -3.7430 -1.0280
  713SOL    HW2 3048   7.264   7.489   1.265  2.2306  0.0344  0.3588
  714SOL     OW 3049   1.237   6.129   7.719  0.7034  0.0614 -0.4270
  714SOL    HW1 3050   1.202   6.174   7.797  0.7865 -0.1873 -0.2454
  714SOL    HW2 3051   1.174   6.147   7.650 -1.0705 -2.3543  0.4539
  715SOL     OW 3052   0.331   7.554   2.704 -0.4588  0.0565  0.0352
  715SOL    HW1 3053   0.299   7.624   2.647 -1.2884  0.1724  0.6318
  715SOL    HW2 3054   0.276   7.559   2.781  2.1284  1.4993  1.9636
  716SOL     OW 3055   1.023   1.849   3.445  0.0841  0.0321  0.4137
  716SOL    HW1 3056   1.062   1.843   3.532 -0.3650 -2.7108  0.5368
  716SOL    HW2 3057   1.083   1.905   3.395  0.8598  0.8717  2.1984
  717SOL     OW 3058   5.518   0.613   4.157 -0.3660  0.2274  0.3043
  717SOL    HW1 3059   5.574   0.666   4.215  0.2520 -0.2609  0.1670
  717SOL    HW2 3060   5.477   0.549   4.214  0.2717 -0.2772  0.2001
  718SOL     OW 3061   0.981   7.505   5.656 -0.2182  0.0676 -0.3389
  718SOL    HW1 3062   1.022   7.419   5.650 -0.9543 -0.3398  0.4062
  718SOL    HW2 3063   0.888   7.488   5.648 -0.4490  0.6788  0.9020
  719SOL     OW 3064   4.237   5.766   4.214  0.0896 -0.8993 -0.2371
  719SOL    HW1 3065   4.162   5.765   4.156  0.1765 -1.0258 -0.3477
  719SOL    HW2 3066   4.272   5.677   4.210  2.3489 -0.0248 -2.9240
  720SOL     OW 3067   2.606   2.665   6.036 -0.6757 -0.2922 -0.0055
  720SOL    HW1 3068   2.692   2.629   6.058 -0.1004  1.7057  1.3342
  720SOL    HW2 3069   2.614   2.689   5.943  0.8594  1.3759  0.4909
  721SOL     OW 3070   5.462   3.828   0.992 -0.0535  0.0418  0.1611
  721SOL    HW1 3071   5.491   3.853   1.080  1.2739  2.0381 -0.7570
  721SOL    HW2 3072   5.402   3.897   0.965  0.6221  0.2040 -1.0021
  722SOL     OW 3073   0.342   3.054   3.892  0.4268  0.4035 -0.3010
  722SOL    HW1 3074   0.280   3.052   3.965  2.0310  1.1018  1.1419
  722SOL    HW2 3075   0.333   2.968   3.851 -1.1888  0.3430  0.0976
  723SOL     OW 3076   1.748   2.139   4.551 -0.0152 -0.0407  0.2307
  723SOL    HW1 3077   1.773   2.229   4.528  1.3163 -0.3963  0.1661
  723SOL    HW2 3078   1.780   2.128   4.641  1.6685 -1.0496 -0.4288
  724SOL     OW 3079   0.381   7.147   2.664 -0.3228 -0.1917 -0.9600
  724SOL    HW1 3080   0.420   7.203   2.731 -1.8128  0.4080 -0.5552
  724SOL    HW2 3081   0.369   7.062   2.707  0.4490 -0.3619 -1.0687
  725SOL     OW 3082   7.403   1.850   5.156  0.0266 -0.1756 -0.5351
  725SOL    HW1 3083   7.456   1.915   5.203  0.4308 -0.5214 -0.4994
  725SOL    HW2 3084   7.341   1.902   5.105 -0.1260  0.2191  0.0373
  726SOL     OW 3085   0.922   7.272   1.694 -0.3682 -0.0746 -0.2466
  726SOL    HW1 3086   0.957   7.341   1.638 -0.1991 -2.1206 -2.9127
  726SOL    HW2 3087   0.831   7.296   1.709  0.1304  1.5396  0.3890
  727SOL     OW 3088   5.101   6.094   7.328  0.0879 -0.3421 -0.0171
  727SOL    HW1 3089   5.047   6.045   7.390  0.0571 -2.0540 -1.3246
  727SOL    HW2 3090   5.187   6.099   7.371 -0.0117 -1.2306  0.3153
  728SOL     OW 3091   4.425   0.217   1.369  0.0679  0.1790  0.3127
  728SOL    HW1 3092   4.490   0.248   1.306  0.8478 -0.5698  0.7291
  728SOL    HW2 3093   4.410   0.126   1.346 -0.4147  0.1869  0.5773
  729SOL     OW 3094   6.387   5.162   7.058 -0.3505  0.6719 -0.6592
  729SOL    HW1 3095   6.374   5.210   7.140  0.3222  0.3800 -0.3687
  729SOL    HW2 3096   6.477   5.128   7.064 -0.4373  0.2982 -1.3338
  730SOL     OW 3097   0.920   5.026   2.306  0.4989  0.2789 -0.2599
  730SOL    HW1 3098   0.910   4.958   2.238 -0.1038  1.7893 -1.7499
  730SOL    HW2 3099   0.946   5.104   2.258  1.1366  1.1401  1.4212
  731SOL     OW 3100   2.390   0.867   4.020 -0.2342 -0.4670  0.5335
  731SOL    HW1 3101   2.467   0.848   3.967 -0.2589 -1.0989  0.7161
  731SOL    HW2 3102   2.361   0.953   3.991 -0.1281 -0.7188 -0.3323
  732SOL     OW 3103   5.237   1.820   5.737  0.3981 -0.0456  0.1112
  732SOL    HW1 3104   5.178   1.830   5.811 -0.5848 -1.9380 -0.3665
  732SOL    HW2 3105   5.321   1.854   5.769 -0.2745  0.2245  1.6890
  733SOL     OW 3106   1.235   1.988   3.326 -0.0777  0.6339  0.3830
  733SOL    HW1 3107   1.294   1.982   3.251  1.1800  1.9121  1.2261
  733SOL    HW2 3108   1.281   2.044   3.389 -1.6617  0.6648  1.5806
  734SOL     OW 3109   4.179   6.824   3.559 -0.1908  0.0576 -0.8339
  734SOL    HW1 3110   4.191   6.756   3.625 -1.1893  0.5559 -0.1149
  734SOL    HW2 3111   4.266   6.836   3.520 -0.0141 -1.6723 -1.0374
  735SOL     OW 3112   2.384   5.860   6.338 -0.2605 -0.0396 -0.4420
  735SOL    HW1 3113   2.398   5.900   6.424 -0.6997  0.7351 -0.7193
  735SOL    HW2 3114   2.362   5.934   6.280  0.0622 -0.5443 -1.2271
  736SOL     OW 3115   3.502   0.955   3.134 -0.1741 -0.4633 -0.3663
  736SOL    HW1 3116   3.522   0.868   3.169  0.5182 -1.2105 -2.4804
  736SOL    HW2 3117   3.581   1.006   3.149 -0.1779 -0.5329 -0.1136
  737SOL     OW 3118   5.839   2.472   2.910 -0.3192  0.0045 -0.2377
  737SOL    HW1 3119   5.760   2.422   2.891  1.1449 -2.2576 -0.8057
  737SOL    HW2 3120   5.860   2.451   3.001  0.5762 -0.8795 -0.6266
  738SOL     OW 3121   4.139   5.210   3.847 -0.0802  0.6365  0.3000
  738SOL    HW1 3122   4.164   5.120   3.868 -1.4797  0.1535  0.0147
  738SOL    HW2 3123   4.216   5.248   3.805  0.0376 -0.9288 -0.9808
  739SOL     OW 3124   0.164   6.261   4.336  0.2294  0.7708  0.2373
  739SOL    HW1 3125   0.104   6.306   4.395 -1.0556  0.4838 -0.7927
  739SOL    HW2 3126   0.109   6.235   4.262  1.4776 -0.1929 -0.3868
  740SOL     OW 3127   4.688   6.884   0.806  0.9066  0.2916  0.1760
  740SOL    HW1 3128   4.755   6.887   0.738  1.6957 -0.3235  0.8889
  740SOL    HW2 3129   4.656   6.794   0.804 -0.3756  0.7444 -0.5780
  741SOL     OW 3130   3.960   5.700   0.894 -0.3387  0.1998 -0.7758
  741SOL    HW1 3131   3.988   5.701   0.985 -1.2715 -1.4592 -0.4341
  741SOL    HW2 3132   3.875   5.745   0.895  0.0352  0.9432 -1.0038
  742SOL     OW 3133   0.191   3.356   6.114  0.5070  0.1445  0.4811
  742SOL    HW1 3134   0.227   3.268   6.120  1.2601  0.2773 -1.6030
  742SOL    HW2 3135   0.124   3.350   6.046  0.6549  1.2063  0.2252
  743SOL     OW 3136   3.531   2.833   0.168  0.0765 -0.0459  0.5350
  743SOL    HW1 3137   3.567   2.894   0.104 -0.7169 -0.8046 -0.6774
  743SOL    HW2 3138   3.525   2.750   0.121 -2.2043 -0.2181  0.9950
  744SOL     OW 3139   4.914   3.627   6.912  0.0443  0.6292 -0.2936
  744SOL    HW1 3140   4.887   3.637   6.821  3.3116  1.5295 -1.2907
  744SOL    HW2 3141   4.946   3.537   6.918 -2.1265 -0.1676  0.6669
  745SOL     OW 3142   4.080   3.913   3.825 -0.2692  0.2838  0.6348
  745SOL    HW1 3143   4.170   3.927   3.856  0.7841  0.4964 -2.2571
  745SOL    HW2 3144   4.026   3.935   3.901  2.0981 -1.1620  2.9356
  746SOL     OW 3145   7.373   3.191   2.873  0.1858  0.0157 -0.3017
  746SOL    HW1 3146   7.434   3.137   2.823  1.7843  0.0050  1.5480
  746SOL    HW2 3147   7.400   3.281   2.856 -0.5172  0.1151 -0.9551
  747SOL     OW 3148   4.677   2.651   1.082  0.3931  0.4975 -0.3408
  747SOL    HW1 3149   4.611   2.644   1.012 -0.0809 -0.8068  0.2040
  747SOL    HW2 3150   4.669   2.741   1.113 -1.9703  0.0823  0.4875
  748SOL     OW 3151   5.324   7.617   3.850  0.1034 -0.4795 -0.0788
  748SOL    HW1 3152   5.355   7.637   3.939  0.9046  0.8781 -0.6241
  748SOL    HW2 3153   5.237   7.581   3.862 -0.2193  0.6641  1.2083
  749SOL     OW 3154   3.282   7.218   5.358 -0.4886  0.4175  0.2275
  749SOL    HW1 3155   3.378   7.216   5.359 -0.4760  0.9761  0.3416
  749SOL    HW2 3156   3.260   7.301   5.316 -0.9343 -0.1894 -0.7782
  750SOL     OW 3157   3.243   5.994   3.900 -0.1536 -0.2081  0.3429
  750SOL    HW1 3158   3.267   6.063   3.838  3.0460 -0.4811  1.0969
  750SOL    HW2 3159   3.218   6.041   3.980 -1.5114  0.0794 -0.2214
  751SOL     OW 3160   0.388   2.725   6.900 -0.7105 -0.3338 -0.3310
  751SOL    HW1 3161   0.322   2.712   6.832 -0.1337  1.3748 -1.2959
  751SOL    HW2 3162   0.348   2.787   6.961 -1.0907 -1.5863  0.7253
  752SOL     OW 3163   5.745   4.275   1.352 -0.2114  0.0881  0.1279
  752SOL    HW1 3164   5.831   4.290   1.313 -0.3928  0.3962 -0.1580
  752SOL    HW2 3165   5.727   4.182   1.337  0.0474  0.0370  0.1381
  753SOL     OW 3166   6.239   5.009   1.434 -0.5535 -0.1496 -0.3924
  753SOL    HW1 3167   6.301   5.081   1.445 -0.4638 -0.3411  0.3847
  753SOL    HW2 3168   6.176   5.021   1.505 -1.3880  0.0143 -1.1408
  754SOL     OW 3169   1.096   6.388   7.322  0.5845 -0.1746 -0.1624
  754SOL    HW1 3170   1.059   6.462   7.274  0.7500  0.9366  1.3479
  754SOL    HW2 3171   1.025   6.325   7.327 -0.0806  0.5603 -0.1184
  755SOL     OW 3172   2.896   0.168   5.245 -0.0100  0.7117 -0.3343
  755SOL    HW1 3173   2.941   0.252   5.235 -1.0472  1.4322  0.6764
  755SOL    HW2 3174   2.890   0.156   5.340 -0.4762 -0.1663 -0.4670
  756SOL     OW 3175   6.286   3.277   4.826 -0.6118  0.0957  0.2620
  756SOL    HW1 3176   6.237   3.224   4.889 -2.2478  0.9139 -0.2682
  756SOL    HW2 3177   6.255   3.248   4.740  0.2744  0.2309 -0.1189
  757SOL     OW 3178   6.462   0.644   4.508 -0.1351 -0.0065 -0.1222
  757SOL    HW1 3179   6.451   0.647   4.603  1.0947  0.9970  0.0147
  757SOL    HW2 3180   6.408   0.571   4.480 -1.7192  0.6040  1.1735
  758SOL     OW 3181   6.627   4.640   7.442 -0.4032  0.2052 -0.2839
  758SOL    HW1 3182   6.544   4.597   7.423  0.3347 -1.4866  0.1590
  758SOL    HW2 3183   6.642   4.624   7.535 -0.6537  2.4923  0.2212
  759SOL     OW 3184   2.251   3.069   2.817  0.3692 -0.0942  0.1320
  759SOL    HW1 3185   2.247   3.140   2.753 -0.4858 -0.0239  0.2534
  759SOL    HW2 3186   2.218   2.992   2.770  1.4066 -0.4525 -0.0369
  760SOL     OW 3187   5.136   1.881   5.985  0.0001 -0.0622 -0.7518
  760SOL    HW1 3188   5.048   1.864   6.019  0.3646 -0.4972 -0.0056
  760SOL    HW2 3189   5.187   1.805   6.012  0.7541  0.4664 -0.6674
  761SOL     OW 3190   2.707   1.348   2.672  0.9608  0.5546  0.0658
  761SOL    HW1 3191   2.622   1.336   2.630  1.4050 -0.2482 -0.6445
  761SOL    HW2 3192   2.688   1.400   2.750 -0.2564 -0.0451  0.2011
  762SOL     OW 3193   7.407   1.387   2.952 -0.4399 -0.4075 -0.0933
  762SOL    HW1 3194   7.398   1.438   3.033 -1.0724 -0.2121 -0.2889
  762SOL    HW2 3195   7.413   1.296   2.982 -0.9083 -0.3560  0.1576
  763SOL     OW 3196   3.419   7.412   1.569 -0.8510  0.4692 -0.2164
  763SOL    HW1 3197   3.356   7.382   1.504 -0.5349 -0.8827  0.0519
  763SOL    HW2 3198   3.499   7.428   1.519  0.2379 -3.1953  0.0465
  764SOL     OW 3199   1.022   1.304   2.175  0.3897 -0.1200  0.1581
  764SOL    HW1 3200   0.996   1.240   2.240  1.0183  0.5129  1.0505
  764SOL    HW2 3201   1.057   1.252   2.103  1.6153 -0.7756  1.1907
  765SOL     OW 3202   6.018   7.708   2.815 -0.1574  0.9292  0.3030
  765SOL    HW1 3203   5.956   7.756   2.759  0.1006 -0.0765 -0.8946
  765SOL    HW2 3204   6.102   7.751   2.801  0.0115  0.3658 -0.5326
  766SOL     OW 3205   7.112   0.400   2.539  0.1178 -0.1043  1.1725
  766SOL    HW1 3206   7.107   0.328   2.602 -2.4348 -0.1102  1.0707
  766SOL    HW2 3207   7.118   0.479   2.593  0.1167 -0.2296  1.3575
  767SOL     OW 3208   2.960   0.295   7.367 -0.0998 -0.1588 -0.3759
  767SOL    HW1 3209   2.934   0.319   7.278 -2.0680 -0.2420  0.1248
  767SOL    HW2 3210   2.882   0.313   7.420  1.1193  0.1811  1.3920
  768SOL     OW 3211   3.107   7.604   6.602 -0.4962  0.4427 -0.2059
  768SOL    HW1 3212   3.054   7.611   6.523 -0.1609 -0.7376 -0.5530
  768SOL    HW2 3213   3.192   7.641   6.577 -1.0858  2.3035  0.3416
  769SOL     OW 3214   0.009   3.273   2.165  0.0333  0.4300  0.5816
  769SOL    HW1 3215   0.046   3.349   2.210  1.5987  0.0958 -0.0736
  769SOL    HW2 3216   0.005   3.300   2.073  4.0343 -1.3476 -0.3649
  770SOL     OW 3217   0.064   4.112   1.265 -0.6240  0.4110 -0.1256
  770SOL    HW1 3218   0.063   4.128   1.360 -1.1412  1.7271 -0.3284
  770SOL    HW2 3219   0.105   4.026   1.256 -0.4278  0.3234  1.2845
  771SOL     OW 3220   2.662   4.910   3.222 -0.0736 -0.2645  0.5648
  771SOL    HW1 3221   2.681   4.979   3.285 -1.4029  0.8779 -0.2152
  771SOL    HW2 3222   2.637   4.835   3.275  0.7030  0.0630  1.4201
  772SOL     OW 3223   6.916   2.859   7.364  0.0732 -0.0987 -0.5310
  772SOL    HW1 3224   6.882   2.877   7.276  1.2696  0.4361 -0.9110
  772SOL    HW2 3225   6.997   2.910   7.368  1.2113 -1.8851  0.0625
  773SOL     OW 3226   7.631   3.199   7.305 -0.0908  0.3631 -0.0200
  773SOL    HW1 3227   7.692   3.200   7.231 -0.2076 -3.3077 -0.3583
  773SOL    HW2 3228   7.571   3.272   7.287  0.9435  0.6975 -2.5953
  774SOL     OW 3229   4.196   7.532   1.380  0.6260 -0.5845 -0.3372
  774SOL    HW1 3230   4.177   7.441   1.355  0.7048 -0.6635 -0.1130
  774SOL    HW2 3231   4.121   7.558   1.434 -0.1316 -0.0214 -1.6082
  775SOL     OW 3232   4.951   0.685   5.025 -0.1152  0.1072 -1.2178
  775SOL    HW1 3233   4.886   0.690   4.954  0.1146  1.2234 -1.3713
  775SOL    HW2 3234   4.960   0.775   5.055  1.3475 -0.0259 -1.1890
  776SOL     OW 3235   5.125   0.782   2.681  0.2988  0.3545  0.4877
  776SOL    HW1 3236   5.193   0.730   2.723  2.2878  0.9129 -1.8174
  776SOL    HW2 3237   5.055   0.720   2.661 -0.0559 -0.2023  3.0592
  777SOL     OW 3238   0.003   4.364   6.653  0.1809 -0.0040  0.6920
  777SOL    HW1 3239  -0.061   4.300   6.684  0.9297 -1.1415 -0.0420
  777SOL    HW2 3240  -0.002   4.358   6.557  0.9845  0.2934  0.6221
  778SOL     OW 3241   1.280   3.664   2.115  0.3459 -0.5570  0.1126
  778SOL    HW1 3242   1.200   3.675   2.167  0.0098  0.0216 -0.5157
  778SOL    HW2 3243   1.346   3.717   2.160  0.2096 -0.5233  0.2743
  779SOL     OW 3244   6.672   7.143   2.449 -0.2727  0.0657 -0.5019
  779SOL    HW1 3245   6.696   7.103   2.365 -1.4343  0.4608 -1.0518
  779SOL    HW2 3246   6.586   7.105   2.469  0.3441 -0.6553  0.9446
  780SOL     OW 3247   0.748   5.128   7.645  0.7135  0.8272 -0.6752
  780SOL    HW1 3248   0.767   5.118   7.552 -1.6724  1.9607 -1.3479
  780SOL    HW2 3249   0.742   5.038   7.678 -1.2732  0.3038 -2.2935
  781SOL     OW 3250   4.669   5.044   3.790 -0.1881  0.2560 -0.2943
  781SOL    HW1 3251   4.695   4.952   3.790  1.0319  0.5671 -1.3746
  781SOL    HW2 3252   4.749   5.091   3.767 -1.2258  1.4327 -1.7021
  782SOL     OW 3253   1.379   4.868   4.828 -0.7632  0.2654 -0.7449
  782SOL    HW1 3254   1.325   4.819   4.889 -0.3622  1.0265  0.2550
  782SOL    HW2 3255   1.408   4.803   4.764  1.0269 -1.2272  1.3768
  783SOL     OW 3256   7.582   2.058   5.251 -0.0320 -0.1184  0.2305
  783SOL    HW1 3257   7.559   2.149   5.272 -4.9942 -0.9318 -0.3720
  783SOL    HW2 3258   7.649   2.065   5.183 -0.4121  3.1062  0.0316
  784SOL     OW 3259   4.840   7.482   1.231  0.3706  0.1424  0.5105
  784SOL    HW1 3260   4.822   7.446   1.144  0.6829  0.3205  0.3747
  784SOL    HW2 3261   4.935   7.492   1.234  0.3605  0.1275  0.8763
  785SOL     OW 3262   7.398   7.723   4.736  0.1609  0.8022  0.3926
  785SOL    HW1 3263   7.354   7.691   4.657  1.0010 -0.0936  0.2606
  785SOL    HW2 3264   7.422   7.813   4.716  1.8740  0.0811 -1.0582
  786SOL     OW 3265   2.374   7.691   2.941 -0.1373 -0.2491 -0.2485
  786SOL    HW1 3266   2.408   7.625   2.880  0.3393  0.5510 -0.8707
  786SOL    HW2 3267   2.289   7.656   2.968 -0.1911 -0.8109 -1.0861
  787SOL     OW 3268   4.496   6.711   2.074  0.1174 -0.4439  0.2343
  787SOL    HW1 3269   4.433   6.643   2.100 -0.8492  0.0221 -0.7982
  787SOL    HW2 3270   4.544   6.731   2.154 -2.3775  0.5767  1.5977
  788SOL     OW 3271   4.547   1.645   6.795  0.0598  0.5089 -0.2422
  788SOL    HW1 3272   4.454   1.661   6.778 -0.4170 -2.8281 -1.5383
  788SOL    HW2 3273   4.550   1.609   6.883 -0.0971 -0.5822 -0.6655
  789SOL     OW 3274   2.739   2.553   0.643 -0.3594 -0.1316 -0.1159
  789SOL    HW1 3275   2.810   2.501   0.604 -0.6192  0.5991 -1.6264
  789SOL    HW2 3276   2.735   2.631   0.589 -0.9330  0.8208  1.2548
  790SOL     OW 3277   4.584   4.080   5.727 -0.0953  0.6793 -0.2147
  790SOL    HW1 3278   4.514   4.123   5.776 -0.2328  1.3651 -1.0015
  790SOL    HW2 3279   4.573   3.987   5.748 -1.2758  0.7706 -0.3607
  791SOL     OW 3280   4.087   1.326   3.852  0.1680 -0.2351  0.9321
  791SOL    HW1 3281   4.136   1.246   3.831 -1.4968 -1.2403  0.6583
  791SOL    HW2 3282   4.137   1.396   3.811  0.9782 -1.3013  0.0270
  792SOL     OW 3283   7.497   1.097   5.404  0.0208 -0.5093  0.2633
  792SOL    HW1 3284   7.418   1.095   5.349  1.2864  0.8610 -1.7320
  792SOL    HW2 3285   7.560   1.044   5.356  1.0360  0.3397  0.6495
  793SOL     OW 3286   4.874   2.721   4.081  0.0191  0.2097  0.0908
  793SOL    HW1 3287   4.868   2.816   4.089  1.7241  0.5703 -2.0482
  793SOL    HW2 3288   4.950   2.697   4.134  1.6475  0.5420 -1.9834
  794SOL     OW 3289   5.793   2.440   2.407  0.1158 -0.0328  0.3882
  794SOL    HW1 3290   5.745   2.495   2.469 -1.5024  0.9182 -1.5605
  794SOL    HW2 3291   5.789   2.488   2.324  1.1143 -1.7922 -0.7617
  795SOL     OW 3292   0.821   0.359   3.901  0.2847 -1.1943 -0.1989
  795SOL    HW1 3293   0.745   0.304   3.882 -1.1179  0.7252 -0.4729
  795SOL    HW2 3294   0.883   0.341   3.831 -1.2048 -0.5960 -1.7318
  796SOL     OW 3295   2.921   4.059   4.392  0.3837 -0.1509  0.0162
  796SOL    HW1 3296   3.003   4.018   4.420  0.3326  0.9232  1.9369
  796SOL    HW2 3297   2.857   3.988   4.393  0.6116 -0.3911  1.8351
  797SOL     OW 3298   2.732   7.608   1.957 -0.0233  0.1063  0.7381
  797SOL    HW1 3299   2.799   7.677   1.957 -0.7888  0.8876 -0.6636
  797SOL    HW2 3300   2.779   7.530   1.987  1.3013  0.8309  0.6421
  798SOL     OW 3301   7.028   3.552   5.727  0.2272 -0.1946  0.0729
  798SOL    HW1 3302   7.052   3.459   5.738 -0.0482 -0.1216  1.5195
  798SOL    HW2 3303   6.942   3.560   5.768  0.6896  0.8929  0.8945
  799SOL     OW 3304   2.035   4.011   1.422 -0.3890  0.1506 -0.0609
  799SOL    HW1 3305   2.022   3.938   1.362 -1.5269 -0.3600  0.7742
  799SOL    HW2 3306   2.040   3.971   1.508 -2.1529  1.0885  0.5345
  800SOL     OW 3307   4.955   1.909   6.540  0.0343 -0.1670  0.4208
  800SOL    HW1 3308   4.872   1.934   6.582 -0.5210 -0.3010 -0.5770
  800SOL    HW2 3309   5.017   1.975   6.570 -0.7922  0.8548 -0.0510
  801SOL     OW 3310   2.317   4.337   5.955 -0.1115 -0.0044 -0.0280
  801SOL    HW1 3311   2.293   4.413   6.009  0.9845  0.4270 -0.1250
  801SOL    HW2 3312   2.413   4.335   5.957 -0.0182  0.0577 -1.9846
  802SOL     OW 3313   0.292   3.287   4.660  0.0330  0.2208  1.0115
  802SOL    HW1 3314   0.231   3.237   4.605  0.3334 -0.2204  1.0736
  802SOL    HW2 3315   0.261   3.378   4.653  0.0360  0.1643  0.1495
  803SOL     OW 3316   2.862   3.243   5.309 -0.2279  0.3541 -0.0408
  803SOL    HW1 3317   2.916   3.183   5.258  0.1134  0.3772  0.2895
  803SOL    HW2 3318   2.790   3.267   5.250  1.6410  2.6083 -1.6215
  804SOL     OW 3319   2.072   3.759   4.250 -0.0058 -0.0018  0.1238
  804SOL    HW1 3320   2.163   3.776   4.227 -0.2277  0.2616 -0.5719
  804SOL    HW2 3321   2.042   3.840   4.293  0.6958 -0.8308  2.3411
  805SOL     OW 3322   0.445   7.743   5.857 -0.0183  0.3541  0.3471
  805SOL    HW1 3323   0.459   7.651   5.838  0.5761  0.4546  0.2551
  805SOL    HW2 3324   0.360   7.764   5.820  0.4639  0.1846 -0.8948
  806SOL     OW 3325   0.775   7.140   4.425 -0.0441  0.6156 -0.4449
  806SOL    HW1 3326   0.807   7.159   4.513  0.2002  0.4047 -0.4873
  806SOL    HW2 3327   0.804   7.050   4.408  0.3916  0.8445 -0.9499
  807SOL     OW 3328   5.530   1.869   0.954 -0.1444 -0.0273 -0.5081
  807SOL    HW1 3329   5.506   1.962   0.948 -0.1678 -0.0614 -0.9728
  807SOL    HW2 3330   5.595   1.857   0.886 -0.9049 -0.5840 -1.1518
  808SOL     OW 3331   1.265   0.458   1.184  0.3370 -0.0121  0.0299
  808SOL    HW1 3332   1.249   0.420   1.098 -0.6688  0.0235  0.1805
  808SOL    HW2 3333   1.237   0.390   1.246  1.1981 -0.0992  0.3313
  809SOL     OW 3334   3.794   2.584   4.178 -0.1945  0.1652 -0.8225
  809SOL    HW1 3335   3.777   2.571   4.271  2.5713 -1.1100 -0.3945
  809SOL    HW2 3336   3.711   2.564   4.135 -1.4847  0.6215  1.3290
  810SOL     OW 3337   3.950   0.354   3.219  0.4329 -0.1069 -0.0398
  810SOL    HW1 3338   3.900   0.277   3.246  0.8973  0.2995  2.1736
  810SOL    HW2 3339   4.037   0.340   3.255  0.7333  1.1033 -0.2552
  811SOL     OW 3340   2.294   7.640   4.210  0.6912  0.1618 -0.5004
  811SOL    HW1 3341   2.224   7.674   4.155  0.4047 -0.9173 -0.8296
  811SOL    HW2 3342   2.362   7.707   4.207 -1.2159  2.3974  1.7615
  812SOL     OW 3343   3.022   7.489   1.028  0.2823 -0.6147 -0.1908
  812SOL    HW1 3344   2.944   7.542   1.048  1.3089  1.3309 -0.9763
  812SOL    HW2 3345   3.019   7.479   0.933  1.1992 -0.1057 -0.2852
  813SOL     OW 3346   3.620   7.255   2.407  0.0764  0.0047  0.0012
  813SOL    HW1 3347   3.618   7.171   2.452  0.4249 -0.1475 -0.2632
  813SOL    HW2 3348   3.657   7.236   2.321  1.1764  0.6009  0.3207
  814SOL     OW 3349   2.821   7.227   6.237  0.3729  0.3168 -0.6043
  814SOL    HW1 3350   2.870   7.303   6.207  0.3612 -0.3287 -2.3397
  814SOL    HW2 3351   2.882   7.154   6.231 -0.4561 -0.3186 -1.8386
  815SOL     OW 3352   6.030   5.608   6.059 -0.0514 -0.0158  0.1043
  815SOL    HW1 3353   5.990   5.693   6.040 -0.0234  0.2099  1.0154
  815SOL    HW2 3354   6.124   5.624   6.052 -0.0540 -0.0254  0.0518
  816SOL     OW 3355   7.084   3.796   2.920  0.0692 -0.3965 -0.0057
  816SOL    HW1 3356   7.169   3.807   2.963  0.9625 -1.8788 -1.2655
  816SOL    HW2 3357   7.106   3.789   2.827 -1.7576  2.5842 -0.7971
  817SOL     OW 3358   1.249   3.447   5.050 -0.0004  0.0098 -0.0809
  817SOL    HW1 3359   1.189   3.381   5.086  0.0266 -0.4951 -0.9407
  817SOL    HW2 3360   1.294   3.482   5.127 -1.2619  0.2683  0.5595
  818SOL     OW 3361   4.846   5.481   6.509  0.1676  0.1543  0.2850
  818SOL    HW1 3362   4.773   5.538   6.534 -0.4251 -1.0664  1.4789
  818SOL    HW2 3363   4.823   5.448   6.422  0.1000  1.0482 -0.0420
  819SOL     OW 3364   2.781   4.301   0.122 -0.2097 -0.4618 -0.6435
  819SOL    HW1 3365   2.872   4.280   0.139 -0.2911 -1.7008 -1.6424
  819SOL    HW2 3366   2.732   4.224   0.151 -0.8027 -0.3905 -1.4222
  820SOL     OW 3367   7.231   6.198   2.779 -0.0923 -0.1831  0.6961
  820SOL    HW1 3368   7.271   6.199   2.866  0.2487 -2.2817  0.6349
  820SOL    HW2 3369   7.299   6.159   2.723  0.0315  1.9184 -0.7314
  821SOL     OW 3370   6.968   6.762   6.590  0.2380 -0.1476 -0.4158
  821SOL    HW1 3371   7.010   6.677   6.580 -0.2328 -0.4331 -0.0168
  821SOL    HW2 3372   6.974   6.781   6.684 -0.4017 -0.1360 -0.3713
  822SOL     OW 3373   0.552   3.972   2.388  0.0996  0.1843  0.1618
  822SOL    HW1 3374   0.547   4.055   2.435 -0.7509  0.4277 -0.3460
  822SOL    HW2 3375   0.534   3.994   2.297  2.0601 -0.2214 -0.3856
  823SOL     OW 3376   6.791   7.267   2.038  0.2342  0.2323  0.3049
  823SOL    HW1 3377   6.706   7.303   2.065 -0.3116 -0.9147  0.1781
  823SOL    HW2 3378   6.842   7.344   2.012 -1.2527  0.8420 -1.0220
  824SOL     OW 3379   0.310   2.397   3.963 -0.3686 -0.1142 -0.1273
  824SOL    HW1 3380   0.308   2.486   3.928  1.3385  0.3045  0.7283
  824SOL    HW2 3381   0.225   2.386   4.006 -0.5926  1.1043 -0.2235
  825SOL     OW 3382   6.743   4.772   1.521 -0.0808 -0.2270 -0.5460
  825SOL    HW1 3383   6.712   4.714   1.591  1.4667 -0.0607  0.3084
  825SOL    HW2 3384   6.791   4.714   1.462  1.1427  0.0936  0.1091
  826SOL     OW 3385   0.362   5.270   5.885  0.2712  0.1782 -0.0147
  826SOL    HW1 3386   0.347   5.235   5.973  1.0638 -0.7814 -0.2371
  826SOL    HW2 3387   0.292   5.334   5.872 -0.1845 -0.0720  1.0992
  827SOL     OW 3388   3.786   0.968   2.942 -0.5355  0.2562  0.6599
  827SOL    HW1 3389   3.867   1.001   2.981  1.3543 -2.3560 -0.7446
  827SOL    HW2 3390   3.775   0.882   2.982 -1.8679  0.0162 -0.1926
  828SOL     OW 3391   7.640   4.936   6.073 -0.7820 -0.3015 -0.0770
  828SOL    HW1 3392   7.677   4.885   6.000  0.9436 -1.0047  1.2248
  828SOL    HW2 3393   7.648   4.878   6.149 -1.1038  0.9950  0.9764
  829SOL     OW 3394   0.667   3.582   4.012 -0.3420 -0.3791 -0.4244
  829SOL    HW1 3395   0.654   3.667   4.053  0.8519 -0.0916 -0.6222
  829SOL    HW2 3396   0.667   3.520   4.085 -2.0947 -0.3517 -0.3445
  830SOL     OW 3397   7.217   1.865   4.435  0.0474 -0.2901 -0.0587
  830SOL    HW1 3398   7.124   1.849   4.451  0.1902 -0.9491  0.1411
  830SOL    HW2 3399   7.237   1.945   4.484 -0.6377  0.4366 -0.9179
  831SOL     OW 3400   6.419   0.465   4.299 -0.4991  0.1878 -0.2036
  831SOL    HW1 3401   6.339   0.433   4.258  1.0328 -0.6599 -2.8036
  831SOL    HW2 3402   6.444   0.396   4.361 -1.6614  0.4084  0.5440
  832SOL     OW 3403   7.488   6.445   4.076  0.8467  0.0199  0.1065
  832SOL    HW1 3404   7.567   6.470   4.028  0.0760  2.5188 -0.0120
  832SOL    HW2 3405   7.514   6.448   4.168  0.5017  2.9074  0.2106
  833SOL     OW 3406   1.830   3.002   3.389  0.1561  0.4287  0.7604
  833SOL    HW1 3407   1.775   2.966   3.321 -0.4830  1.8100  0.5117
  833SOL    HW2 3408   1.917   2.966   3.372 -0.2861 -0.3157  0.0549
  834SOL     OW 3409   6.091   3.903   5.291  0.0355  0.6731 -1.2088
  834SOL    HW1 3410   6.122   3.963   5.359 -0.1331  0.6014 -1.0698
  834SOL    HW2 3411   6.162   3.903   5.226  0.9246 -0.4858 -0.2983
  835SOL     OW 3412   1.837   5.683   0.421  0.1075  0.2251 -0.3162
  835SOL    HW1 3413   1.778   5.632   0.476  0.1402 -0.0664 -0.5461
  835SOL    HW2 3414   1.778   5.732   0.363  0.0811 -0.9980 -1.3876
  836SOL     OW 3415   3.478   2.621   5.438  0.3222 -1.0128 -0.6135
  836SOL    HW1 3416   3.524   2.692   5.482  0.5052 -0.8368 -1.0874
  836SOL    HW2 3417   3.482   2.548   5.500  0.4417 -0.7178 -0.2743
  837SOL     OW 3418   6.619   2.051   6.752 -0.3061  0.0978  0.3207
  837SOL    HW1 3419   6.620   2.138   6.792 -2.7114  0.1769  0.3691
  837SOL    HW2 3420   6.686   2.055   6.684  0.6312  1.4826  1.2668
  838SOL     OW 3421   2.113   0.024   0.843 -0.7381  0.3370 -0.2319
  838SOL    HW1 3422   2.038  -0.025   0.878 -0.0580  0.9753  2.2980
  838SOL    HW2 3423   2.074   0.100   0.801 -1.6010 -0.5301 -1.0748
  839SOL     OW 3424   2.340   2.432   0.517  0.8419  0.3254 -0.4656
  839SOL    HW1 3425   2.294   2.516   0.508  1.2944  0.5181 -1.0311
  839SOL    HW2 3426   2.393   2.443   0.596  1.0625  0.6612 -0.6535
  840SOL     OW 3427   3.897   4.089   7.735  0.1024  0.3656  0.1308
  840SOL    HW1 3428   3.974   4.133   7.698  0.9501 -0.7577  0.4754
  840SOL    HW2 3429   3.837   4.079   7.661  1.1594 -0.5552 -0.6360
  841SOL     OW 3430   4.237   1.212   5.185 -0.1597 -0.1166 -0.9040
  841SOL    HW1 3431   4.224   1.135   5.239 -1.5968  0.2582 -0.6799
  841SOL    HW2 3432   4.332   1.218   5.174  0.2205 -0.0967  1.7423
  842SOL     OW 3433   3.256   4.915   4.203  0.1211 -0.1216 -0.6358
  842SOL    HW1 3434   3.194   4.962   4.259  0.9378  0.8505 -0.5163
  842SOL    HW2 3435   3.284   4.979   4.139  0.8986 -0.5884 -0.7784
  843SOL     OW 3436   3.345   1.348   5.575 -0.3186 -0.1899  0.4994
  843SOL    HW1 3437   3.403   1.407   5.623 -2.0920  2.2755 -0.1889
  843SOL    HW2 3438   3.344   1.268   5.628  0.6706  1.0849  2.5835
  844SOL     OW 3439   1.483   6.535   2.805 -0.1146 -0.1548 -0.6443
  844SOL    HW1 3440   1.542   6.608   2.787  1.7056 -1.7971 -1.7059
  844SOL    HW2 3441   1.424   6.532   2.729 -0.4950  0.4480 -0.3826
  845SOL     OW 3442   6.705   6.167   3.570  0.0155  0.2692  0.0194
  845SOL    HW1 3443   6.759   6.157   3.492 -1.0890  0.9812 -0.8694
  845SOL    HW2 3444   6.615   6.163   3.538 -0.4926 -0.7298  1.4270
  846SOL     OW 3445   6.387   2.079   3.502 -0.1225  0.1578 -0.1018
  846SOL    HW1 3446   6.343   2.062   3.585  1.0502  0.5582  0.6263
  846SOL    HW2 3447   6.393   1.993   3.460  0.2711 -0.2461  0.7478
  847SOL     OW 3448   0.769   5.999   3.866  0.5594 -0.4886  0.0882
  847SOL    HW1 3449   0.739   6.024   3.778 -1.4008 -0.9909  0.5595
  847SOL    HW2 3450   0.840   5.937   3.851  1.1601  0.4598 -1.1213
  848SOL     OW 3451   2.312   5.788   4.666  0.5627 -0.1339 -0.7440
  848SOL    HW1 3452   2.293   5.709   4.716  0.9150 -0.3974 -1.0254
  848SOL    HW2 3453   2.348   5.849   4.731 -0.5487  0.1161 -0.3508
  849SOL     OW 3454   1.409   2.002   1.110 -0.2666  0.1874 -0.5978
  849SOL    HW1 3455   1.474   2.064   1.078  0.5000  0.2664  1.0037
  849SOL    HW2 3456   1.461   1.933   1.152 -1.1896  0.0649  0.3793
  850SOL     OW 3457   7.301   4.620   0.190  0.1368  0.3404 -0.1897
  850SOL    HW1 3458   7.339   4.549   0.138  0.0222 -0.7317  1.1567
  850SOL    HW2 3459   7.372   4.649   0.247 -0.0790  0.7267 -0.1111
  851SOL     OW 3460   5.442   6.060   5.994 -0.3494  0.2852  0.4198
  851SOL    HW1 3461   5.408   6.148   5.978  1.4545  0.8317 -0.7435
  851SOL    HW2 3462   5.380   6.002   5.950 -0.3056  1.1897 -0.9165
  852SOL     OW 3463   2.694   2.688   4.032 -0.1625  0.0355  0.4330
  852SOL    HW1 3464   2.759   2.618   4.028 -0.9938 -0.7069 -2.1083
  852SOL    HW2 3465   2.635   2.662   4.102  0.3336 -1.0959  0.4563
  853SOL     OW 3466   3.717   0.488   6.779 -0.3592 -0.2563 -0.3949
  853SOL    HW1 3467   3.768   0.407   6.780 -1.6537 -1.1016 -0.3253
  853SOL    HW2 3468   3.761   0.545   6.843 -0.4550 -1.5785  0.9155
  854SOL     OW 3469   5.509   3.178   2.205 -0.3039 -0.3391  0.1607
  854SOL    HW1 3470   5.583   3.145   2.154 -1.6119  1.0553 -2.8777
  854SOL    HW2 3471   5.461   3.099   2.231 -0.5824 -1.1257 -2.4900
  855SOL     OW 3472   0.558   1.609   0.964 -0.1103  0.3322  0.1948
  855SOL    HW1 3473   0.610   1.569   0.895  0.1020  0.5842  0.2091
  855SOL    HW2 3474   0.622   1.639   1.029 -0.3122 -0.0216  0.5710
  856SOL     OW 3475   5.211   5.083   0.278 -0.0271 -0.1677  0.0059
  856SOL    HW1 3476   5.241   5.011   0.334 -0.3660  0.6704  1.3067
  856SOL    HW2 3477   5.278   5.151   0.288 -0.0179 -0.0562 -0.7399
  857SOL     OW 3478   0.688   6.234   2.796  0.1096  0.4891 -0.3715
  857SOL    HW1 3479   0.600   6.197   2.795 -0.4242  1.7261 -0.6347
  857SOL    HW2 3480   0.746   6.158   2.801 -0.9354 -0.3795 -1.0989
  858SOL     OW 3481   1.624   5.991   0.242  0.3635  0.6584 -0.0266
  858SOL    HW1 3482   1.568   6.011   0.317 -0.7613  1.1251 -0.9442
  858SOL    HW2 3483   1.562   5.975   0.170  1.3967 -0.1757 -0.7568
  859SOL     OW 3484   1.035   1.880   6.497  0.2227 -0.0046 -0.1844
  859SOL    HW1 3485   1.034   1.796   6.452  3.0844  0.1371 -0.6554
  859SOL    HW2 3486   1.108   1.875   6.558 -0.8036  1.4435  1.2535
  860SOL     OW 3487   2.275   2.400   3.020 -0.0299 -0.3704 -0.3837
  860SOL    HW1 3488   2.314   2.415   2.934  0.3897  0.6002 -0.0337
  860SOL    HW2 3489   2.312   2.468   3.076  2.6866 -3.1802  1.5646
  861SOL     OW 3490   2.390   4.684   2.892 -1.0398 -0.8152  0.1882
  861SOL    HW1 3491   2.467   4.727   2.853 -0.2803 -0.8520  1.5916
  861SOL    HW2 3492   2.336   4.660   2.817 -0.7676  1.2310 -0.7345
  862SOL     OW 3493   2.673   0.722   4.699  0.0060  0.4111 -0.1679
  862SOL    HW1 3494   2.579   0.715   4.719 -0.0360  1.1886 -0.0603
  862SOL    HW2 3495   2.689   0.816   4.694  0.7952  0.2798 -0.1533
  863SOL     OW 3496   0.739   7.279   2.050  0.1114 -0.2535  0.2696
  863SOL    HW1 3497   0.691   7.331   2.114  0.5934  0.2832  0.2081
  863SOL    HW2 3498   0.819   7.254   2.096  0.0706 -0.5883  0.1586
  864SOL     OW 3499   6.782   2.315   1.464  0.2709 -0.2888  0.4903
  864SOL    HW1 3500   6.860   2.366   1.443 -0.3536  0.2770 -0.5688
  864SOL    HW2 3501   6.713   2.381   1.476 -0.1736 -0.8075  0.8478
  865SOL     OW 3502   3.844   4.255   5.077 -0.2249 -0.1119  0.0202
  865SOL    HW1 3503   3.814   4.345   5.067 -0.4885  0.1996  2.8762
  865SOL    HW2 3504   3.833   4.236   5.170 -0.2655 -3.1487 -0.5092
  866SOL     OW 3505   2.965   0.484   3.619  0.0487 -0.4100 -0.3335
  866SOL    HW1 3506   3.027   0.476   3.691 -1.9133 -1.2296  1.3615
  866SOL    HW2 3507   3.011   0.536   3.553  1.9167  0.3628  1.4828
  867SOL     OW 3508   4.806   4.520   6.845 -0.6222 -0.3573  0.0475
  867SOL    HW1 3509   4.731   4.518   6.785 -0.8682  0.5267  0.3199
  867SOL    HW2 3510   4.877   4.557   6.793 -0.6045 -0.3809  0.0547
  868SOL     OW 3511   3.146   5.734   1.444  0.4120 -0.5113  0.1332
  868SOL    HW1 3512   3.074   5.758   1.501  0.5909  1.3165 -0.3418
  868SOL    HW2 3513   3.123   5.771   1.358  1.7812 -0.0804 -0.0813
  869SOL     OW 3514   5.071   7.611   2.563 -0.1130 -0.2040  0.0902
  869SOL    HW1 3515   4.983   7.636   2.590 -0.4116  0.3896 -1.3532
  869SOL    HW2 3516   5.121   7.693   2.566  0.4395 -0.5555  1.0127
  870SOL     OW 3517   6.241   6.564   2.278 -0.2687  0.6225  0.5241
  870SOL    HW1 3518   6.270   6.482   2.318 -0.2078  0.5399  0.3130
  870SOL    HW2 3519   6.184   6.537   2.206 -1.0026  0.7882  1.0335
  871SOL     OW 3520   6.459   0.482   1.565  0.2821 -0.7765  0.3557
  871SOL    HW1 3521   6.476   0.513   1.476 -0.8439 -1.0249  0.0343
  871SOL    HW2 3522   6.497   0.549   1.622 -3.1565  1.9733 -0.2884
  872SOL     OW 3523   1.772   1.494   2.653  0.2260 -0.2350 -0.3706
  872SOL    HW1 3524   1.809   1.570   2.697  0.9633 -0.6381 -0.2744
  872SOL    HW2 3525   1.769   1.426   2.720  1.6143 -0.9394 -0.9569
  873SOL     OW 3526   4.451   5.413   5.828  0.2219 -0.2193 -0.4236
  873SOL    HW1 3527   4.523   5.476   5.818  0.0691  0.0655  0.2209
  873SOL    HW2 3528   4.413   5.433   5.913  1.5578 -2.5811  0.8496
  874SOL     OW 3529   6.526   3.929   5.249  0.4955  0.0543 -0.1062
  874SOL    HW1 3530   6.607   3.965   5.285 -0.2299  1.3400  0.2835
  874SOL    HW2 3531   6.505   3.855   5.306  0.3783  0.9025  0.9785
  875SOL     OW 3532   6.067   3.963   3.055  0.1545  0.4646  0.4843
  875SOL    HW1 3533   6.025   3.905   3.118 -0.9431  2.0592  1.3028
  875SOL    HW2 3534   6.128   4.015   3.108  1.0615  0.1262 -0.2130
  876SOL     OW 3535   1.451   3.179   7.356 -0.0447 -0.4695 -0.1609
  876SOL    HW1 3536   1.483   3.209   7.441 -0.9137 -0.0087  0.0129
  876SOL    HW2 3537   1.467   3.085   7.356  0.5956 -0.3687  0.2241
  877SOL     OW 3538   3.602   2.224   7.634  0.0753  0.0418 -0.0894
  877SOL    HW1 3539   3.657   2.147   7.617 -0.9869 -1.0380  1.1003
  877SOL    HW2 3540   3.527   2.212   7.577  0.1037  0.4262 -0.2073
  878SOL     OW 3541   2.251   5.226   3.314 -0.3505 -0.3407  0.4098
  878SOL    HW1 3542   2.160   5.257   3.308  0.4295  1.9135 -0.8209
  878SOL    HW2 3543   2.275   5.204   3.224  0.9447  1.1288  0.3604
  879SOL     OW 3544   3.652   2.148   4.608 -0.0149  0.7567 -0.2686
  879SOL    HW1 3545   3.742   2.150   4.641  0.2080 -0.1240 -0.7696
  879SOL    HW2 3546   3.603   2.206   4.666  0.2599 -1.0003  1.8746
  880SOL     OW 3547   0.870   0.053   1.483 -0.2284  0.0222  0.2839
  880SOL    HW1 3548   0.831   0.067   1.396 -0.2188  0.5629  0.3623
  880SOL    HW2 3549   0.876  -0.042   1.491 -4.0301 -0.3204  1.3235
  881SOL     OW 3550   5.706   0.967   4.516  0.3595 -0.5593 -0.0480
  881SOL    HW1 3551   5.771   0.961   4.586 -0.7159 -0.6641  0.9792
  881SOL    HW2 3552   5.726   1.050   4.472 -0.8136  1.1570  2.3774
  882SOL     OW 3553   6.869   2.321   7.296  0.7209 -0.3872  0.8039
  882SOL    HW1 3554   6.878   2.416   7.307  0.6353 -0.0418 -1.4477
  882SOL    HW2 3555   6.958   2.287   7.305  1.3324  0.3874 -1.4749
  883SOL     OW 3556   0.650   6.827   6.585 -0.1248  0.7766 -0.1474
  883SOL    HW1 3557   0.583   6.895   6.579 -1.0770 -0.1161  0.0897
  883SOL    HW2 3558   0.601   6.745   6.582  0.9939  0.0995 -0.3169
  884SOL     OW 3559   5.597   4.928   1.450 -0.2151  0.0231  0.4351
  884SOL    HW1 3560   5.613   4.837   1.475  1.4411  0.1893  0.0933
  884SOL    HW2 3561   5.524   4.923   1.389 -0.3690 -1.0310  0.6768
  885SOL     OW 3562   0.570   2.516   6.439 -0.6559  0.3862  0.3555
  885SOL    HW1 3563   0.562   2.604   6.403 -1.0324  0.8206  1.4724
  885SOL    HW2 3564   0.507   2.464   6.388  0.2467  0.5307 -0.9541
  886SOL     OW 3565   4.163   4.286   5.002 -0.1533 -0.0812 -0.0894
  886SOL    HW1 3566   4.108   4.298   5.079  1.0856  0.2822  0.7724
  886SOL    HW2 3567   4.247   4.256   5.037  0.4136  0.0348 -1.2989
  887SOL     OW 3568   2.650   1.023   5.706  0.1171 -0.0550 -0.0744
  887SOL    HW1 3569   2.678   0.932   5.709  2.2328  0.4934 -0.9498
  887SOL    HW2 3570   2.695   1.064   5.780 -0.0778  0.4515 -0.2325
  888SOL     OW 3571   1.974   1.467   1.742 -0.6014 -0.5194  0.2654
  888SOL    HW1 3572   1.930   1.444   1.661 -0.6994  1.1891 -0.2086
  888SOL    HW2 3573   1.917   1.433   1.811 -0.6390 -1.7643 -0.3534
  889SOL     OW 3574   4.179   2.073   7.098  0.1481  0.0320 -0.0091
  889SOL    HW1 3575   4.089   2.042   7.104  0.2536 -0.3679 -0.4062
  889SOL    HW2 3576   4.210   2.074   7.189 -0.4353  0.7407  0.1904
  890SOL     OW 3577   5.970   3.593   0.762 -0.3151  0.9800  0.1036
  890SOL    HW1 3578   5.907   3.643   0.815  1.2327  3.8877 -0.5548
  890SOL    HW2 3579   5.934   3.597   0.673  0.5163  2.3409 -0.2106
  891SOL     OW 3580   1.825   4.161   5.905 -0.0555  0.2560 -0.1049
  891SOL    HW1 3581   1.760   4.120   5.848 -0.9769  1.1771  0.2471
  891SOL    HW2 3582   1.826   4.253   5.877  1.6481  0.1257 -0.5947
  892SOL     OW 3583   4.808   2.639   6.278 -0.0350 -0.1951 -0.6376
  892SOL    HW1 3584   4.748   2.617   6.207 -1.1149 -1.7155  0.6647
  892SOL    HW2 3585   4.758   2.624   6.358  0.7477  2.5713  0.5106
  893SOL     OW 3586   2.603   6.701   0.400  0.3203 -0.2066  0.0735
  893SOL    HW1 3587   2.699   6.702   0.396  0.2962 -0.3791 -2.3051
  893SOL    HW2 3588   2.581   6.624   0.452  1.4776 -0.6409 -0.0518
  894SOL     OW 3589   2.212   3.162   1.993 -0.6528 -0.0800 -0.7433
  894SOL    HW1 3590   2.228   3.140   2.085 -1.0995 -0.3956 -0.7363
  894SOL    HW2 3591   2.186   3.080   1.952 -0.3366  0.0340 -1.1844
  895SOL     OW 3592   4.392   6.003   1.194 -0.0428 -1.4601  0.7899
  895SOL    HW1 3593   4.436   5.919   1.208  1.8180 -0.6309  0.2672
  895SOL    HW2 3594   4.446   6.048   1.129 -1.9282 -0.5057 -0.2239
  896SOL     OW 3595   3.937   6.797   1.565 -0.3126 -0.2701  0.3116
  896SOL    HW1 3596   3.910   6.872   1.513 -0.8170 -0.3981  0.3747
  896SOL    HW2 3597   3.941   6.829   1.655  1.2926  0.1380  0.1130
  897SOL     OW 3598   2.830   6.887   5.976  0.5137 -0.3376  0.0919
  897SOL    HW1 3599   2.741   6.880   5.939 -0.2388  1.4992  1.4384
  897SOL    HW2 3600   2.886   6.851   5.907 -1.0042  1.0067 -2.0044
  898SOL     OW 3601   1.690   2.083   2.571  0.5023  0.5328  0.0298
  898SOL    HW1 3602   1.637   2.153   2.609  0.8773  0.7746  0.1094
  898SOL    HW2 3603   1.724   2.034   2.646  1.3150  1.0645  0.0105
  899SOL     OW 3604   3.932   3.686   5.685 -0.1236  0.1403 -0.2761
  899SOL    HW1 3605   3.915   3.593   5.701  0.0516  0.0059 -0.8255
  899SOL    HW2 3606   3.848   3.729   5.700 -0.3435 -0.1850 -0.5611
  900SOL     OW 3607   1.950   0.095   2.241 -0.3450 -0.1136  0.2123
  900SOL    HW1 3608   1.859   0.069   2.233 -0.5915  0.4829  0.9627
  900SOL    HW2 3609   1.954   0.147   2.321  0.1518  1.9392 -1.0464
  901SOL     OW 3610   7.193   4.196   6.023 -0.0224 -0.4082 -0.1109
  901SOL    HW1 3611   7.158   4.122   5.972 -0.2132  1.4608 -2.9245
  901SOL    HW2 3612   7.250   4.242   5.961  1.0283  1.1587  1.9258
  902SOL     OW 3613   2.089   2.030   1.611  0.0409 -0.1158  0.2524
  902SOL    HW1 3614   2.174   2.021   1.569 -0.2213  2.2314 -0.9650
  902SOL    HW2 3615   2.104   2.090   1.684 -0.4003 -0.3437  0.5346
  903SOL     OW 3616   0.428   6.511   4.907  0.0332 -0.0240  0.3363
  903SOL    HW1 3617   0.444   6.601   4.879  0.8963 -0.1811  0.2788
  903SOL    HW2 3618   0.447   6.512   5.001 -0.5672 -0.0114  0.4593
  904SOL     OW 3619   2.466   4.734   6.756 -0.4859  0.1652  0.0296
  904SOL    HW1 3620   2.403   4.794   6.796 -0.9968 -0.4796  0.1990
  904SOL    HW2 3621   2.444   4.733   6.663  1.5354  2.7021 -0.5902
  905SOL     OW 3622   5.507   0.365   1.200 -0.0415 -0.3892 -0.4231
  905SOL    HW1 3623   5.485   0.443   1.149 -3.2776  0.3560  1.7946
  905SOL    HW2 3624   5.431   0.307   1.190 -1.1340  0.0206  3.7130
  906SOL     OW 3625   2.107   5.299   5.909  0.5478  0.1136 -0.1895
  906SOL    HW1 3626   2.098   5.343   5.824  0.3976  1.0788  0.3247
  906SOL    HW2 3627   2.047   5.344   5.967  1.6330  0.3522  0.7934
  907SOL     OW 3628   6.223   5.206   2.118 -0.3780  0.0425 -0.1513
  907SOL    HW1 3629   6.197   5.275   2.179 -1.0576 -0.1689 -0.1958
  907SOL    HW2 3630   6.229   5.127   2.171  0.0167  0.0498 -0.1759
  908SOL     OW 3631   7.119   2.898   4.821  0.7532 -0.0748 -0.0905
  908SOL    HW1 3632   7.178   2.898   4.746 -0.5205  1.5416 -1.1769
  908SOL    HW2 3633   7.176   2.904   4.897  2.0323 -0.3657 -0.9929
  909SOL     OW 3634   1.146   7.691   2.372 -0.0923  0.0566 -0.3722
  909SOL    HW1 3635   1.055   7.722   2.371 -0.3892 -0.7235  0.6054
  909SOL    HW2 3636   1.196   7.761   2.331 -0.9574  1.0917  0.2842
  910SOL     OW 3637   2.813   0.269   0.917  0.2804  0.4426 -0.2507
  910SOL    HW1 3638   2.749   0.285   0.848 -0.5456  0.3457  0.4789
  910SOL    HW2 3639   2.856   0.187   0.891  0.3589  0.6897 -0.9212
  911SOL     OW 3640   5.641   3.381   5.067  0.3565  0.2089  0.3181
  911SOL    HW1 3641   5.545   3.386   5.062  0.2042  0.3285  2.4003
  911SOL    HW2 3642   5.672   3.451   5.010 -0.8926  1.9033  1.6164
  912SOL     OW 3643   7.099   0.936   0.310  0.3851  0.9180 -0.0313
  912SOL    HW1 3644   7.175   0.894   0.349  0.7820  0.0196 -1.6826
  912SOL    HW2 3645   7.099   0.906   0.219 -1.1966  1.9404 -0.4074
  913SOL     OW 3646   2.325   6.896   5.720  0.0309 -0.0359  0.2183
  913SOL    HW1 3647   2.278   6.820   5.755  0.4613 -0.2850  0.2638
  913SOL    HW2 3648   2.261   6.967   5.723 -0.3390 -0.3681  0.2876
  914SOL     OW 3649   3.028   3.598   5.506 -1.1741  0.2982 -0.1584
  914SOL    HW1 3650   3.071   3.568   5.426  1.3405  0.2826  1.0968
  914SOL    HW2 3651   2.971   3.526   5.531 -1.6057  0.0987 -1.6380
  915SOL     OW 3652   6.278   3.743   1.167  0.3395  0.3296  0.2811
  915SOL    HW1 3653   6.247   3.766   1.255 -0.7317  0.2889 -0.0672
  915SOL    HW2 3654   6.331   3.818   1.140  3.6167 -1.0554  2.2604
  916SOL     OW 3655   2.047   7.353   1.368 -0.1077  0.1931 -0.4029
  916SOL    HW1 3656   2.010   7.441   1.359 -0.7196  0.0268  0.3245
  916SOL    HW2 3657   2.068   7.327   1.279 -1.4707  0.4357 -0.8173
  917SOL     OW 3658   2.766   0.543   5.199 -0.2823 -0.0851  0.1095
  917SOL    HW1 3659   2.827   0.569   5.129  1.3248  0.3409  1.5913
  917SOL    HW2 3660   2.816   0.483   5.253 -0.4699  1.7002  2.4411
  918SOL     OW 3661   7.624   1.599   3.369 -0.0544  0.2702 -0.7131
  918SOL    HW1 3662   7.670   1.675   3.332  0.0799  0.1729 -0.7489
  918SOL    HW2 3663   7.679   1.524   3.344  1.2292  0.3798  1.5201
  919SOL     OW 3664   3.309   0.213   1.091  0.1708  0.0524  0.0755
  919SOL    HW1 3665   3.219   0.181   1.085 -0.1017  0.9329 -0.8393
  919SOL    HW2 3666   3.337   0.224   0.999  1.6380 -1.3566  0.3041
  920SOL     OW 3667   1.901   4.793   2.406 -0.3747 -0.2328 -0.3326
  920SOL    HW1 3668   1.940   4.708   2.424  0.5960  0.4809  1.1429
  920SOL    HW2 3669   1.956   4.831   2.337  0.3124 -0.0545  0.3108
  921SOL     OW 3670   4.811   4.648   6.156 -0.0372 -0.2588 -0.1692
  921SOL    HW1 3671   4.876   4.654   6.227 -1.2766  2.3198  0.8679
  921SOL    HW2 3672   4.758   4.571   6.178  0.1641 -0.0199  1.2255
  922SOL     OW 3673   4.424   0.848   3.916 -0.5652  0.6677 -0.5149
  922SOL    HW1 3674   4.330   0.850   3.935 -0.4911  0.4872 -0.0997
  922SOL    HW2 3675   4.464   0.823   4.000 -0.1496  0.7308 -0.6932
  923SOL     OW 3676   4.816   5.500   7.292  0.4239 -0.5337 -0.3514
  923SOL    HW1 3677   4.795   5.474   7.382  1.0609 -0.8615 -0.2904
  923SOL    HW2 3678   4.835   5.417   7.248 -0.9609 -0.4886 -1.0908
  924SOL     OW 3679   2.498   5.690   5.556 -0.0993  0.1700  0.0380
  924SOL    HW1 3680   2.582   5.676   5.512 -1.5648 -0.7619 -2.7074
  924SOL    HW2 3681   2.453   5.753   5.501 -2.3572 -1.6616 -0.3429
  925SOL     OW 3682   4.598   2.872   2.191 -0.4163  0.4638 -0.2738
  925SOL    HW1 3683   4.689   2.887   2.165 -0.7478 -0.3265 -2.0205
  925SOL    HW2 3684   4.579   2.943   2.253  1.8223 -0.2195  1.2977
  926SOL     OW 3685   2.090   4.713   4.995 -0.3002  0.8396  0.4540
  926SOL    HW1 3686   2.026   4.759   4.940 -0.2665  1.2581  0.7608
  926SOL    HW2 3687   2.136   4.783   5.042  0.0061  0.5115  0.6474
  927SOL     OW 3688   5.877   6.222   7.209  0.6581 -0.4015 -0.3710
  927SOL    HW1 3689   5.873   6.285   7.137  1.0740  1.8441  1.4393
  927SOL    HW2 3690   5.959   6.175   7.195  0.0987 -0.9379 -2.0349
  928SOL     OW 3691   2.278   0.973   6.266  1.0849 -0.3143  0.5806
  928SOL    HW1 3692   2.226   0.899   6.236  1.8119 -0.6774  0.1817
  928SOL    HW2 3693   2.328   0.939   6.340  0.0487  0.3043  1.6015
  929SOL     OW 3694   0.409   2.945   6.478 -0.5688  0.5014  0.6190
  929SOL    HW1 3695   0.491   2.957   6.430 -0.8769  1.9330  0.4248
  929SOL    HW2 3696   0.436   2.934   6.569 -0.1179  0.0524  0.4379
  930SOL     OW 3697   3.400   7.622   2.417 -0.1433  0.4747  0.1205
  930SOL    HW1 3698   3.361   7.570   2.347 -1.4489  0.6833  0.6575
  930SOL    HW2 3699   3.370   7.711   2.400 -0.3550  0.5534  0.8434
  931SOL     OW 3700   0.445   3.326   1.082 -0.3395 -0.5999  0.5410
  931SOL    HW1 3701   0.363   3.290   1.047 -0.3914 -0.7790  0.8460
  931SOL    HW2 3702   0.423   3.354   1.171 -0.5697  1.1053 -0.0049
  932SOL     OW 3703   3.731   2.250   0.621  0.1188 -0.1051  0.4786
  932SOL    HW1 3704   3.776   2.169   0.597  1.2094  0.6765 -0.2282
  932SOL    HW2 3705   3.770   2.317   0.565 -0.7355  0.9280  1.0641
  933SOL     OW 3706   3.596   0.536   2.861  0.3690  0.0837 -0.2346
  933SOL    HW1 3707   3.656   0.486   2.916  1.2373  0.9691 -0.3269
  933SOL    HW2 3708   3.642   0.543   2.777  0.2580  0.9655 -0.2360
  934SOL     OW 3709   1.687   7.315   0.967 -0.2987 -0.1145  0.4293
  934SOL    HW1 3710   1.669   7.390   0.910 -2.1033 -0.4037  0.5519
  934SOL    HW2 3711   1.652   7.239   0.919 -0.3866 -0.5832  1.2134
  935SOL     OW 3712   6.307   6.758   3.902  0.0855 -0.0386  0.1881
  935SOL    HW1 3713   6.250   6.745   3.827  0.4569 -0.1948 -0.0717
  935SOL    HW2 3714   6.389   6.791   3.864  0.1940  0.1130  0.5472
  936SOL     OW 3715   5.728   6.383   7.652 -0.4041  0.4537 -0.4447
  936SOL    HW1 3716   5.672   6.456   7.626 -0.0320  0.4508 -1.3222
  936SOL    HW2 3717   5.698   6.309   7.598 -0.4546  0.0924  0.0746
  937SOL     OW 3718   0.302   4.357   4.144  0.0121 -0.0963 -0.3570
  937SOL    HW1 3719   0.269   4.432   4.093 -2.6597 -0.8233  0.1165
  937SOL    HW2 3720   0.265   4.371   4.232  2.3846 -0.2166  0.7379
  938SOL     OW 3721   2.295   0.201   2.402  0.1879  0.5628 -0.3155
  938SOL    HW1 3722   2.216   0.246   2.433  0.3049  0.3642  0.2862
  938SOL    HW2 3723   2.322   0.146   2.476 -1.4737 -2.6332 -1.8827
  939SOL     OW 3724   1.611   7.586   5.385 -0.3082 -0.2402 -0.2389
  939SOL    HW1 3725   1.518   7.577   5.365 -0.3996 -0.9933  0.5022
  939SOL    HW2 3726   1.638   7.500   5.418  0.7024 -0.0947 -0.6409
  940SOL     OW 3727   5.331   7.604   5.831  0.2307 -0.0053  0.4886
  940SOL    HW1 3728   5.261   7.670   5.835  1.5044  1.3402  1.6548
  940SOL    HW2 3729   5.288   7.526   5.795 -1.5290  1.1876 -0.1422
  941SOL     OW 3730   4.786   1.053   3.307 -0.2734  0.1378  0.4483
  941SOL    HW1 3731   4.834   1.111   3.247 -0.2527 -0.8403 -0.5169
  941SOL    HW2 3732   4.731   1.113   3.358  1.0990  1.1708  0.7839
  942SOL     OW 3733   7.319   7.396   4.675  0.5364 -0.2423  0.3695
  942SOL    HW1 3734   7.343   7.471   4.620 -0.0758  0.1901  0.6742
  942SOL    HW2 3735   7.378   7.326   4.647  1.4623  0.4920  0.4333
  943SOL     OW 3736   6.391   5.209   1.544  0.0125  0.2011 -0.2824
  943SOL    HW1 3737   6.312   5.263   1.546  0.8717  1.5039  2.4201
  943SOL    HW2 3738   6.457   5.263   1.500  0.5089  0.8689  1.2344
  944SOL     OW 3739   5.374   2.996   3.305 -0.1348  0.1638 -0.2302
  944SOL    HW1 3740   5.384   3.089   3.326 -0.6297  0.0930  0.3812
  944SOL    HW2 3741   5.442   2.952   3.357  0.3371  0.2163 -0.8036
  945SOL     OW 3742   4.764   1.189   6.452 -0.3451  0.4874  0.9636
  945SOL    HW1 3743   4.821   1.263   6.472  0.3165  0.1550  0.3765
  945SOL    HW2 3744   4.736   1.155   6.537  2.0467 -0.6462  1.3764
  946SOL     OW 3745   6.670   7.377   0.452 -0.5085 -0.2515 -0.6114
  946SOL    HW1 3746   6.699   7.426   0.529  0.6037 -1.0322 -0.5194
  946SOL    HW2 3747   6.733   7.399   0.384 -1.4856  0.4269 -1.3209
  947SOL     OW 3748   2.151   1.025   3.800 -0.3879 -0.0807 -0.5410
  947SOL    HW1 3749   2.197   0.993   3.721 -0.5790 -0.2958 -0.5679
  947SOL    HW2 3750   2.059   1.006   3.782 -0.3663 -0.7166  0.0066
  948SOL     OW 3751   5.546   0.868   2.630  0.3415 -0.4367  0.3986
  948SOL    HW1 3752   5.477   0.916   2.676  1.0014  1.0586 -0.1447
  948SOL    HW2 3753   5.625   0.919   2.644  1.0136 -1.2221 -0.4294
  949SOL     OW 3754   4.301   6.714   5.157 -0.0162  0.2651 -0.4645
  949SOL    HW1 3755   4.213   6.698   5.191  0.2272  0.9009  0.5026
  949SOL    HW2 3756   4.303   6.806   5.134  0.4714  0.3142 -0.2481
  950SOL     OW 3757   5.613   0.899   5.279  0.1963  0.3739  0.3922
  950SOL    HW1 3758   5.686   0.958   5.259  0.7195 -0.2956  0.2712
  950SOL    HW2 3759   5.655   0.819   5.311 -0.5204  0.2521  1.0541
  951SOL     OW 3760   4.825   1.135   4.847 -0.1286 -0.0815  0.0046
  951SOL    HW1 3761   4.880   1.068   4.806  1.2950  0.1087  1.4998
  951SOL    HW2 3762   4.838   1.123   4.941  0.5157  2.5609  0.3342
  952SOL     OW 3763   3.166   0.359   5.226 -0.0852  0.2263 -0.2716
  952SOL    HW1 3764   3.134   0.377   5.314 -0.7067  0.5828 -0.5655
  952SOL    HW2 3765   3.229   0.287   5.237  0.6341  0.9717  0.5975
  953SOL     OW 3766   3.484   2.401   7.383 -0.1453  0.4402  0.2005
  953SOL    HW1 3767   3.434   2.324   7.409  2.4097 -0.8567  1.7165
  953SOL    HW2 3768   3.543   2.417   7.457  0.7192  2.6806 -0.8897
  954SOL     OW 3769   3.755   0.232   1.777  0.0264  0.5916  0.2553
  954SOL    HW1 3770   3.828   0.201   1.830 -1.0348  0.1295  1.4998
  954SOL    HW2 3771   3.756   0.177   1.698 -0.2401 -0.8612  1.2361
  955SOL     OW 3772   0.921   7.394   2.412  0.0266 -0.1813  0.0889
  955SOL    HW1 3773   0.829   7.375   2.428 -0.3954  0.9726 -0.8226
  955SOL    HW2 3774   0.965   7.364   2.492 -1.2082 -0.2407  0.7835
  956SOL     OW 3775   4.900   3.529   1.463 -0.2453  0.5414 -0.0722
  956SOL    HW1 3776   4.918   3.526   1.369 -1.9513  1.4915 -0.4686
  956SOL    HW2 3777   4.880   3.438   1.486  2.4130 -0.1315 -0.0802
  957SOL     OW 3778   5.799   1.541   5.568 -0.1603  0.5443  0.0976
  957SOL    HW1 3779   5.850   1.618   5.595 -1.2915  1.3065  0.1592
  957SOL    HW2 3780   5.709   1.574   5.560 -0.6352 -0.7394 -0.0714
  958SOL     OW 3781   0.208   2.402   2.567  0.5668  0.2575 -0.1870
  958SOL    HW1 3782   0.243   2.453   2.494 -0.8560 -0.3174 -1.3283
  958SOL    HW2 3783   0.251   2.437   2.645 -0.1623  3.0580 -0.9458
  959SOL     OW 3784   2.068   7.470   2.297  0.2442  0.1766  0.5658
  959SOL    HW1 3785   2.052   7.377   2.313  2.2899 -0.3215  0.0423
  959SOL    HW2 3786   2.069   7.478   2.201 -0.3897  0.8448  0.6073
  960SOL     OW 3787   6.713   2.055   5.088  0.4921 -0.6398 -0.1232
  960SOL    HW1 3788   6.796   2.008   5.079  0.3421 -0.7207 -1.2636
  960SOL    HW2 3789   6.738   2.143   5.115  0.8182 -1.1707  1.4098
  961SOL     OW 3790   5.136   2.567   5.018 -0.0495 -0.2704 -0.1605
  961SOL    HW1 3791   5.222   2.531   4.997 -0.6054 -2.0920  0.4802
  961SOL    HW2 3792   5.148   2.610   5.104  0.2931 -0.1840 -0.2507
  962SOL     OW 3793   3.224   6.239   2.220 -0.0193  0.2870  0.2893
  962SOL    HW1 3794   3.207   6.333   2.221 -0.4121  0.2169  0.4140
  962SOL    HW2 3795   3.251   6.219   2.131 -1.8582  0.1854 -0.2808
  963SOL     OW 3796   2.939   3.376   4.102 -0.6030  0.2867  0.5813
  963SOL    HW1 3797   2.931   3.470   4.119 -2.1353  0.1261  0.9191
  963SOL    HW2 3798   2.871   3.336   4.157 -1.7050 -0.7971 -1.4615
  964SOL     OW 3799   5.850   2.316   4.888 -0.2767 -0.1422 -0.0325
  964SOL    HW1 3800   5.935   2.349   4.915  0.6004 -0.7848 -1.8221
  964SOL    HW2 3801   5.839   2.234   4.934 -0.2777  0.2985  0.7634
  965SOL     OW 3802   2.694   4.747   1.757  0.0737  0.6460  0.2458
  965SOL    HW1 3803   2.758   4.769   1.824  1.1582 -0.5855 -0.3407
  965SOL    HW2 3804   2.731   4.783   1.676 -1.1973  2.0793  0.2626
  966SOL     OW 3805   2.056   2.866   7.204  0.6141 -0.6559  0.0261
  966SOL    HW1 3806   2.073   2.861   7.298  2.0581  1.4425 -0.0485
  966SOL    HW2 3807   2.098   2.789   7.167 -0.1475 -1.6097  1.0927
  967SOL     OW 3808   0.181   2.142   4.478  0.0202 -0.5952  0.1103
  967SOL    HW1 3809   0.139   2.151   4.392  0.0462  1.9724  0.2920
  967SOL    HW2 3810   0.267   2.106   4.460  0.0712  0.0411 -0.9716
  968SOL     OW 3811   5.837   4.868   2.583  0.0628 -0.5699 -0.3759
  968SOL    HW1 3812   5.831   4.861   2.488  0.7699 -2.2104 -0.3334
  968SOL    HW2 3813   5.802   4.785   2.616  2.4231 -1.2650  0.6350
  969SOL     OW 3814   6.371   5.138   4.612 -0.1185  0.0949  0.1282
  969SOL    HW1 3815   6.454   5.147   4.565  0.1845 -3.4932 -0.2856
  969SOL    HW2 3816   6.307   5.115   4.544 -0.7855 -0.2446  0.8558
  970SOL     OW 3817   0.377   0.143   3.165 -0.1378  0.0356 -0.0259
  970SOL    HW1 3818   0.302   0.086   3.146 -0.4261  0.3059  0.2983
  970SOL    HW2 3819   0.420   0.101   3.240  0.1040 -0.1856 -0.2893
  971SOL     OW 3820   4.815   3.677   6.665  0.2401  0.8344  0.8055
  971SOL    HW1 3821   4.852   3.692   6.578  4.3860 -1.5627  1.9081
  971SOL    HW2 3822   4.770   3.592   6.658  0.5644  0.6467  0.9859
  972SOL     OW 3823   3.515   3.253   6.207 -0.2898 -0.3337  0.0325
  972SOL    HW1 3824   3.597   3.237   6.253 -0.1933  0.1913  0.0585
  972SOL    HW2 3825   3.492   3.343   6.231 -2.2321 -1.2701  2.1529
  973SOL     OW 3826   4.073   3.834   1.819  0.2778  0.3684 -0.2295
  973SOL    HW1 3827   4.159   3.876   1.813  0.1315  0.9251  1.0786
  973SOL    HW2 3828   4.091   3.749   1.858  0.1145  1.1323  1.6445
  974SOL     OW 3829   6.900   7.676   6.032 -0.6338  0.1102  0.1062
  974SOL    HW1 3830   6.932   7.623   5.960 -0.3102 -1.8759  1.6244
  974SOL    HW2 3831   6.809   7.647   6.044 -0.8207  0.7350  0.2215
  975SOL     OW 3832   2.452   3.049   2.994  0.0164  0.0748  0.0588
  975SOL    HW1 3833   2.523   3.096   2.950 -0.6786  0.5440 -0.5872
  975SOL    HW2 3834   2.383   3.041   2.928 -0.6964 -0.0150  0.7880
  976SOL     OW 3835   0.140   7.662   1.915  0.8741  0.0692 -0.0491
  976SOL    HW1 3836   0.185   7.594   1.964  0.3792  0.8243  1.5090
  976SOL    HW2 3837   0.201   7.686   1.845  1.8501 -0.5986  0.5606
  977SOL     OW 3838   3.025   1.852   1.029 -0.5563 -0.1619 -0.0614
  977SOL    HW1 3839   3.015   1.809   0.945 -0.8237 -0.4261  0.1034
  977SOL    HW2 3840   3.032   1.780   1.092  0.6756  0.0179  0.0340
  978SOL     OW 3841   0.275   2.767   1.507 -0.1479  0.5112  0.4584
  978SOL    HW1 3842   0.218   2.724   1.443 -0.5465  0.6265  0.7337
  978SOL    HW2 3843   0.224   2.842   1.538  1.5124  2.8399 -1.9958
  979SOL     OW 3844   4.576   4.980   4.598  0.4457  0.4538 -0.4757
  979SOL    HW1 3845   4.562   4.992   4.692  0.7828  0.7023 -0.4530
  979SOL    HW2 3846   4.608   5.065   4.568  0.5818  0.3003 -0.7675
  980SOL     OW 3847   5.543   2.837   3.480  0.0918  0.3055  0.0051
  980SOL    HW1 3848   5.485   2.771   3.518 -0.8137 -0.1700 -2.0628
  980SOL    HW2 3849   5.630   2.799   3.486 -0.5645 -1.8768 -2.5303
  981SOL     OW 3850   0.420   5.125   1.688 -0.8678 -0.4582  0.1725
  981SOL    HW1 3851   0.382   5.039   1.705 -1.9978  0.1491  0.7769
  981SOL    HW2 3852   0.352   5.188   1.712  0.1420  0.6380  0.3018
  982SOL     OW 3853   1.131   1.260   0.074 -1.0844 -0.3927 -0.1052
  982SOL    HW1 3854   1.054   1.312   0.096 -1.7708 -1.2193 -0.5266
  982SOL    HW2 3855   1.101   1.169   0.078  0.0561 -0.7618  0.4670
  983SOL     OW 3856   7.414   7.106   7.456 -0.2287  0.9435 -0.1081
  983SOL    HW1 3857   7.349   7.038   7.438  2.3481 -1.1188 -2.4610
  983SOL    HW2 3858   7.375   7.186   7.422 -1.8037 -0.0879 -0.8557
  984SOL     OW 3859   5.873   7.074   2.781 -0.0648  0.5030 -0.8508
  984SOL    HW1 3860   5.825   7.066   2.863  1.8110  0.0532  0.2703
  984SOL    HW2 3861   5.832   7.010   2.723  0.6180 -1.5992  0.8373
  985SOL     OW 3862   5.290   7.220   4.589 -0.2564 -0.6330 -0.2052
  985SOL    HW1 3863   5.294   7.291   4.525 -0.4072  0.6409  1.1401
  985SOL    HW2 3864   5.236   7.255   4.660 -0.2442 -2.0672  0.5554
  986SOL     OW 3865   0.829   3.812   1.254 -0.8214 -0.2505  0.7654
  986SOL    HW1 3866   0.787   3.859   1.182 -3.6032 -1.1655  1.6560
  986SOL    HW2 3867   0.888   3.750   1.210  0.8287  2.0539 -0.4990
  987SOL     OW 3868   3.449   1.209   4.129  0.7374 -0.2045  0.4975
  987SOL    HW1 3869   3.410   1.135   4.174  0.9313 -1.3963 -1.2036
  987SOL    HW2 3870   3.540   1.182   4.113  0.7259  0.2669 -0.4205
  988SOL     OW 3871   4.560   4.712   3.049 -0.0577  0.3456  0.1733
  988SOL    HW1 3872   4.641   4.759   3.029  1.7784 -2.4824  0.4451
  988SOL    HW2 3873   4.564   4.695   3.143 -0.0765 -1.2370 -0.0744
  989SOL     OW 3874   4.078   0.670   6.147  0.9463  0.1497 -0.0048
  989SOL    HW1 3875   4.073   0.631   6.060  0.5712 -1.8142  0.8276
  989SOL    HW2 3876   4.139   0.612   6.195  2.9196  2.4334  0.4568
  990SOL     OW 3877   5.848   2.918   7.455 -0.3622  0.0761  0.1397
  990SOL    HW1 3878   5.844   2.824   7.472 -0.2011 -0.3718 -2.0228
  990SOL    HW2 3879   5.940   2.941   7.462 -0.1346 -0.3541 -1.2514
  991SOL     OW 3880   7.323   4.156   6.936  0.0871  0.8411  0.0123
  991SOL    HW1 3881   7.282   4.240   6.958  1.2933  1.8998 -1.5584
  991SOL    HW2 3882   7.402   4.180   6.888  0.8841 -1.2005  0.2023
  992SOL     OW 3883   7.338   5.495   7.612  0.4882  0.3383 -0.6855
  992SOL    HW1 3884   7.269   5.442   7.571  0.6367  1.1039 -1.9643
  992SOL    HW2 3885   7.417   5.470   7.565  0.9516  0.0853  0.2120
  993SOL     OW 3886   4.530   0.745   7.333  0.4603 -0.0166 -0.3821
  993SOL    HW1 3887   4.578   0.816   7.292  1.3038  0.7280  1.7516
  993SOL    HW2 3888   4.438   0.766   7.319  0.6770 -0.4778 -2.8984
  994SOL     OW 3889   2.302   0.062   1.925  0.3330 -0.9004  0.0275
  994SOL    HW1 3890   2.396   0.076   1.931  0.4942 -0.5388 -2.3344
  994SOL    HW2 3891   2.277   0.028   2.011  2.0415  2.0352  1.8565
  995SOL     OW 3892   6.150   3.085   0.486  0.0971  0.2212  0.2244
  995SOL    HW1 3893   6.101   3.112   0.564 -0.0690  0.0990  0.1618
  995SOL    HW2 3894   6.241   3.107   0.507  0.0808 -0.0011  0.5389
  996SOL     OW 3895   0.227   3.435   5.772  0.4478 -0.1557 -0.2053
  996SOL    HW1 3896   0.156   3.372   5.782 -0.0030  0.7012  4.9583
  996SOL    HW2 3897   0.307   3.384   5.783  0.4217 -0.4836 -1.4133
  997SOL     OW 3898   2.572   3.477   5.180  0.0896  0.9067 -0.0291
  997SOL    HW1 3899   2.477   3.478   5.186  0.0317  2.0454 -0.8483
  997SOL    HW2 3900   2.592   3.403   5.123 -0.2819  0.5380  0.3140
  998SOL     OW 3901   2.114   6.146   0.103  0.1332 -0.1533  0.2261
  998SOL    HW1 3902   2.162   6.095   0.038 -1.6210  0.0019 -1.2750
  998SOL    HW2 3903   2.122   6.096   0.184  0.4830 -1.5593 -0.6372
  999SOL     OW 3904   7.135   5.785   3.329  0.7036  0.2336  0.5651
  999SOL    HW1 3905   7.169   5.862   3.283  1.6030 -0.1012  0.6506
  999SOL    HW2 3906   7.185   5.712   3.293 -0.4990 -0.3809  0.1256
 1000SOL     OW 3907   5.339   5.825   4.340 -0.5564  0.0685 -0.5221
 1000SOL    HW1 3908   5.259   5.868   4.309 -0.8505 -0.0443  0.0781
 1000SOL    HW2 3909   5.372   5.778   4.263 -2.3071 -1.7788 -0.2172
 1001SOL     OW 3910   5.369   4.070   5.420 -0.2804  0.1921 -0.0359
 1001SOL    HW1 3911   5.366   4.088   5.326  0.1931 -0.5799 -0.2084
 1001SOL    HW2 3912   5.285   4.102   5.453 -0.6084  0.1347 -0.7849
 1002SOL     OW 3913   5.728   1.318   0.313  0.3286  0.1648 -0.3730
 1002SOL    HW1 3914   5.738   1.411   0.293  0.5112  0.3023  0.3062
 1002SOL    HW2 3915   5.642   1.294   0.279 -0.2975  0.9217  0.6479
 1003SOL     OW 3916   4.583   1.328   3.307  0.3737 -0.5596 -0.0127
 1003SOL    HW1 3917   4.628   1.380   3.241  0.4642 -0.1854  0.3428
 1003SOL    HW2 3918   4.652   1.303   3.369 -0.0777  1.0518  1.2142
 1004SOL     OW 3919   7.038   0.513   1.915  0.5687  0.0356  0.1645
 1004SOL    HW1 3920   7.031   0.481   1.825 -0.6314  0.5854  0.0374
 1004SOL    HW2 3921   7.106   0.579   1.912  2.7833 -2.0902  0.3426
 1005SOL     OW 3922   5.467   3.857   2.352 -0.2479  0.0249  0.0733
 1005SOL    HW1 3923   5.423   3.839   2.435  0.5630 -0.8299  0.3359
 1005SOL    HW2 3924   5.513   3.776   2.330  0.8165  0.7223 -0.4216
 1006SOL     OW 3925   3.223   7.430   3.812 -0.2563  0.2286  0.8907
 1006SOL    HW1 3926   3.208   7.516   3.854  1.0233  0.4623  0.9155
 1006SOL    HW2 3927   3.317   7.427   3.798  0.4647 -2.8911  4.6922
 1007SOL     OW 3928   0.453   4.428   1.667  0.6097  0.5564  0.3423
 1007SOL    HW1 3929   0.368   4.392   1.642  0.2226  1.1345  0.7935
 1007SOL    HW2 3930   0.477   4.381   1.747 -0.5536  2.1954  1.7372
 1008SOL     OW 3931   4.261   2.857   6.800 -0.4166 -0.0872 -0.2119
 1008SOL    HW1 3932   4.342   2.828   6.757 -0.3388 -1.4152  0.7599
 1008SOL    HW2 3933   4.195   2.852   6.731 -0.2163 -1.7973 -0.3238
 1009SOL     OW 3934   3.277   1.671   5.112 -0.0316  0.0784  0.2970
 1009SOL    HW1 3935   3.309   1.627   5.033  0.6295  2.4385 -0.8411
 1009SOL    HW2 3936   3.200   1.621   5.138  1.0353 -2.1016 -0.4885
 1010SOL     OW 3937   5.663   5.863   5.893 -0.3084 -0.0043  0.1121
 1010SOL    HW1 3938   5.627   5.775   5.884 -0.1457  0.0159 -0.8749
 1010SOL    HW2 3939   5.589   5.916   5.924 -0.9642 -0.1194 -1.1387
 1011SOL     OW 3940   5.930   4.297   2.242 -0.0768 -0.2674  0.3421
 1011SOL    HW1 3941   5.956   4.383   2.274 -1.0961 -0.4529  1.7515
 1011SOL    HW2 3942   5.931   4.307   2.146  0.7521  1.0046  0.4475
 1012SOL     OW 3943   0.422   5.359   3.915 -0.1809 -0.1375  0.0131
 1012SOL    HW1 3944   0.476   5.432   3.945  0.3247  0.0607 -1.3282
 1012SOL    HW2 3945   0.377   5.392   3.838 -0.9776 -0.8333  0.1610
 1013SOL     OW 3946   4.268   7.323   2.639 -0.4351 -0.0571 -0.0364
 1013SOL    HW1 3947   4.182   7.285   2.653 -0.5098 -0.1965 -0.8491
 1013SOL    HW2 3948   4.327   7.248   2.633 -0.4648 -0.0208 -0.8432
 1014SOL     OW 3949   7.069   7.016   3.746  0.0005 -0.6340 -0.3873
 1014SOL    HW1 3950   7.003   7.001   3.814 -1.6412  1.0744 -1.5179
 1014SOL    HW2 3951   7.152   7.025   3.794 -1.2146  1.3031  1.5146
 1015SOL     OW 3952   0.434   4.236   6.592  0.1330 -0.2519 -0.5719
 1015SOL    HW1 3953   0.501   4.175   6.564 -0.6072 -1.0847 -0.5876
 1015SOL    HW2 3954   0.482   4.314   6.621  1.2637 -1.6923  1.6925
 1016SOL     OW 3955   5.187   4.452   7.293  0.2328 -0.0160  0.0137
 1016SOL    HW1 3956   5.202   4.511   7.218 -1.0785  0.1747 -0.1208
 1016SOL    HW2 3957   5.261   4.391   7.290  1.8023  1.7830  0.3390
 1017SOL     OW 3958   0.811   5.179   0.367 -0.4003 -0.2300  0.1069
 1017SOL    HW1 3959   0.727   5.134   0.378 -1.1884  1.1202 -0.0816
 1017SOL    HW2 3960   0.807   5.251   0.430  0.3054  0.2873 -0.4335
 1018SOL     OW 3961   3.312   5.617   6.578  0.2332 -0.5042  0.1577
 1018SOL    HW1 3962   3.217   5.628   6.575  0.2517 -0.5927 -1.3999
 1018SOL    HW2 3963   3.343   5.655   6.496  1.6573  0.4159  1.0751
 1019SOL     OW 3964   0.697   0.393   0.130 -0.2474 -0.2599 -0.0128
 1019SOL    HW1 3965   0.614   0.348   0.144 -0.3586 -0.0526 -0.0018
 1019SOL    HW2 3966   0.745   0.382   0.212 -0.1834 -0.5503 -0.0898
 1020SOL     OW 3967   2.188   3.735   3.800 -0.1742 -0.0406  0.2427
 1020SOL    HW1 3968   2.165   3.681   3.877  1.0592  0.5582  1.0753
 1020SOL    HW2 3969   2.157   3.822   3.822  0.0059  0.0923 -0.0348
 1021SOL     OW 3970   4.266   4.277   4.365 -0.2728  0.2327  0.4583
 1021SOL    HW1 3971   4.170   4.281   4.365 -0.2872 -0.0500  0.2064
 1021SOL    HW2 3972   4.289   4.260   4.456 -0.5404 -1.1869  0.2826
 1022SOL     OW 3973   0.401   7.398   4.667 -0.4465  0.4896 -0.1302
 1022SOL    HW1 3974   0.461   7.407   4.593 -0.3403  0.1569 -0.0880
 1022SOL    HW2 3975   0.350   7.320   4.647  1.0431 -0.8944  1.1415
 1023SOL     OW 3976   0.251   6.082   7.003 -0.4386 -1.2219 -0.3357
 1023SOL    HW1 3977   0.313   6.023   7.045 -0.3622 -2.0875 -1.6037
 1023SOL    HW2 3978   0.166   6.059   7.042  0.0915  0.7874  2.2979
 1024SOL     OW 3979   1.692   6.779   7.299 -0.5131  0.1209 -0.4080
 1024SOL    HW1 3980   1.608   6.806   7.338  0.3817  0.7856  1.1466
 1024SOL    HW2 3981   1.694   6.825   7.215 -1.2995  0.8435 -0.0568
 1025SOL     OW 3982   1.467   6.286   2.197 -0.3422  0.2117  0.0551
 1025SOL    HW1 3983   1.505   6.361   2.244 -0.3267  1.0969 -1.3049
 1025SOL    HW2 3984   1.375   6.309   2.186 -0.4352 -0.1800  0.0065
 1026SOL     OW 3985   2.316   4.917   0.254 -0.2616  0.4517  0.3235
 1026SOL    HW1 3986   2.379   4.946   0.189  0.2326  0.7012  0.9090
 1026SOL    HW2 3987   2.369   4.892   0.330 -0.5148 -3.0194 -0.4715
 1027SOL     OW 3988   2.243   5.766   3.699  0.6937 -0.5295 -0.0093
 1027SOL    HW1 3989   2.193   5.690   3.669 -0.0839  0.7150 -2.0645
 1027SOL    HW2 3990   2.301   5.787   3.626  1.3022  0.5261  0.7397
 1028SOL     OW 3991   5.611   5.318   6.915 -0.5100  0.6013  0.5413
 1028SOL    HW1 3992   5.662   5.322   6.834  1.7473  0.9680  1.8884
 1028SOL    HW2 3993   5.630   5.231   6.952  0.0851  1.1738  1.6310
 1029SOL     OW 3994   3.366   7.533   5.902 -0.0218 -0.4947  0.4448
 1029SOL    HW1 3995   3.452   7.574   5.917 -0.3220  0.1144  0.5151
 1029SOL    HW2 3996   3.350   7.482   5.982  0.1116 -0.3254  0.5784
 1030SOL     OW 3997   1.222   5.140   2.008  0.5127 -0.1581 -0.1936
 1030SOL    HW1 3998   1.130   5.164   2.005  0.2496 -1.1927 -0.8012
 1030SOL    HW2 3999   1.249   5.160   2.097 -0.5787 -0.8184  0.3023
 1031SOL     OW 4000   3.668   7.080   0.986  0.1622  0.1347  0.1685
 1031SOL    HW1 4001   3.622   7.150   0.940  0.8941 -0.3313 -1.3322
 1031SOL    HW2 4002   3.702   7.024   0.916  0.5439 -1.0983  1.3154
 1032SOL     OW 4003   3.378   2.338   3.771  0.5761 -0.2460 -0.2143
 1032SOL    HW1 4004   3.390   2.258   3.822 -0.3441 -0.5500 -0.4577
 1032SOL    HW2 4005   3.295   2.374   3.803  0.8598  0.4900 -0.2767
 1033SOL     OW 4006   3.173   4.696   0.534 -0.4902 -0.2624  0.1118
 1033SOL    HW1 4007   3.086   4.735   0.548 -0.5250 -0.2900 -0.0321
 1033SOL    HW2 4008   3.191   4.710   0.441  0.5075  1.5325  0.5226
 1034SOL     OW 4009   6.470   0.080   1.848  0.7091 -0.3833 -0.3220
 1034SOL    HW1 4010   6.525   0.112   1.919 -2.3901  3.8195  0.5785
 1034SOL    HW2 4011   6.490   0.137   1.774  0.0936 -1.1830 -1.1397
 1035SOL     OW 4012   3.865   1.386   5.571  0.6629 -0.5223 -0.4251
 1035SOL    HW1 4013   3.856   1.471   5.528 -0.7052 -0.1068  0.6065
 1035SOL    HW2 4014   3.810   1.327   5.519  0.6509 -0.4936 -0.4453
 1036SOL     OW 4015   6.861   2.637   5.844 -0.0987  0.5561  0.1073
 1036SOL    HW1 4016   6.929   2.677   5.790 -0.0528  1.5725  0.8681
 1036SOL    HW2 4017   6.818   2.574   5.787  0.0905  1.4318 -1.0275
 1037SOL     OW 4018   0.642   7.743   0.749 -0.3504  0.2547 -0.3303
 1037SOL    HW1 4019   0.650   7.824   0.698 -0.7961  1.2332  1.0782
 1037SOL    HW2 4020   0.559   7.752   0.795  0.2206 -0.3948  0.8765
 1038SOL     OW 4021   3.113   2.279   4.631  0.0591  0.4884 -0.2402
 1038SOL    HW1 4022   3.189   2.296   4.576 -1.3038  0.9274 -2.0944
 1038SOL    HW2 4023   3.041   2.264   4.569 -0.4881 -4.9963  1.2011
 1039SOL     OW 4024   3.780   1.862   6.163 -0.1673  0.4661 -0.0100
 1039SOL    HW1 4025   3.801   1.873   6.256 -0.7122  0.8226  0.0775
 1039SOL    HW2 4026   3.802   1.770   6.144  0.7314  0.6141  0.2539
 1040SOL     OW 4027   6.384   6.328   4.649  0.4545 -0.3529 -0.0978
 1040SOL    HW1 4028   6.342   6.249   4.615  0.0434 -0.3734  0.4506
 1040SOL    HW2 4029   6.345   6.399   4.597  0.0230 -0.4105  0.1391
 1041SOL     OW 4030   7.625   0.413   7.287 -0.0542  0.2157 -0.3173
 1041SOL    HW1 4031   7.709   0.459   7.287  0.4116 -0.5915  0.6078
 1041SOL    HW2 4032   7.571   0.462   7.225  0.9683  0.9797 -0.6393
 1042SOL     OW 4033   4.181   3.640   0.192 -0.3599 -0.0324 -0.3979
 1042SOL    HW1 4034   4.106   3.648   0.133 -0.0316 -0.2031 -0.8439
 1042SOL    HW2 4035   4.227   3.723   0.183 -0.8255  0.3164  0.3434
 1043SOL     OW 4036   7.198   2.108   0.882  0.0968  0.5298  0.8862
 1043SOL    HW1 4037   7.246   2.161   0.945  0.3187  0.3489  0.8732
 1043SOL    HW2 4038   7.263   2.045   0.849  0.0015  0.6681  0.4248
 1044SOL     OW 4039   6.972   4.914   3.651  0.1766 -0.4220  0.2093
 1044SOL    HW1 4040   7.015   4.993   3.684  0.2919 -1.0897  1.7262
 1044SOL    HW2 4041   6.999   4.845   3.712  0.7976 -1.8417 -1.5844
 1045SOL     OW 4042   1.680   6.761   0.328 -0.7248 -0.0847 -0.2255
 1045SOL    HW1 4043   1.636   6.838   0.290  1.7826  1.3362 -0.4405
 1045SOL    HW2 4044   1.722   6.794   0.407  1.4705 -0.8739 -0.9947
 1046SOL     OW 4045   0.047   4.459   1.275 -0.4419 -0.5170  0.6598
 1046SOL    HW1 4046   0.072   4.507   1.354 -0.2288 -0.4853  0.5732
 1046SOL    HW2 4047  -0.032   4.411   1.300 -0.4448 -0.4118  0.8561
 1047SOL     OW 4048   0.939   3.866   3.117  0.0654  0.4330 -0.1782
 1047SOL    HW1 4049   0.965   3.958   3.117 -0.8187  0.6914 -0.8154
 1047SOL    HW2 4050   0.976   3.830   3.036  1.0617  0.0211  0.4380
 1048SOL     OW 4051   4.245   2.214   0.842  0.2618  0.2760 -0.5772
 1048SOL    HW1 4052   4.305   2.217   0.769  1.0733 -1.5977 -0.0405
 1048SOL    HW2 4053   4.231   2.121   0.858 -1.2404  0.6571  0.5645
 1049SOL     OW 4054   7.154   7.302   6.645  0.2309 -0.3327 -0.0869
 1049SOL    HW1 4055   7.062   7.326   6.635  0.5916  1.5545  0.6972
 1049SOL    HW2 4056   7.153   7.220   6.695 -1.0197 -0.8727 -0.9605
 1050SOL     OW 4057   0.967   5.927   1.985  0.8049 -0.5497 -0.3679
 1050SOL    HW1 4058   1.023   5.889   2.052  0.5919  0.0287  0.1483
 1050SOL    HW2 4059   1.027   5.952   1.915  1.3367  0.8726  0.5411
 1051SOL     OW 4060   3.692   1.180   4.117  0.2860 -0.4653  0.5304
 1051SOL    HW1 4061   3.706   1.098   4.070  0.7867 -0.2509  0.3029
 1051SOL    HW2 4062   3.728   1.248   4.059 -0.8798  0.0169  0.3187
 1052SOL     OW 4063   1.864   1.143   6.932 -0.2220 -0.6101 -0.0682
 1052SOL    HW1 4064   1.942   1.194   6.957  1.7139 -2.8880 -1.0825
 1052SOL    HW2 4065   1.846   1.088   7.008 -0.3391 -0.6967 -0.1592
 1053SOL     OW 4066   3.203   1.187   5.946  0.3151  0.4821  0.2862
 1053SOL    HW1 4067   3.121   1.197   5.994  1.3575  0.4998  2.1401
 1053SOL    HW2 4068   3.223   1.276   5.915  0.0543  0.6284  0.5298
 1054SOL     OW 4069   2.092   3.096   5.738  0.1054 -0.5778  0.2252
 1054SOL    HW1 4070   2.074   3.036   5.666 -0.9538 -0.9645  0.7868
 1054SOL    HW2 4071   2.184   3.120   5.727 -0.0260 -0.6432 -1.2313
 1055SOL     OW 4072   3.623   1.886   4.522  0.4044 -0.1965 -0.0060
 1055SOL    HW1 4073   3.620   1.973   4.560 -0.6347 -0.2243  0.0102
 1055SOL    HW2 4074   3.689   1.892   4.453  0.4603  0.5524  0.1054
 1056SOL     OW 4075   7.088   2.619   4.774 -0.3193 -0.1943 -0.6403
 1056SOL    HW1 4076   7.135   2.585   4.699 -0.6903 -1.0206 -0.5126
 1056SOL    HW2 4077   7.126   2.706   4.790 -1.0785  0.5238 -2.5328
 1057SOL     OW 4078   5.563   1.351   3.310  0.0107  0.2575  0.4035
 1057SOL    HW1 4079   5.529   1.353   3.221 -1.8958  0.0484  1.0640
 1057SOL    HW2 4080   5.563   1.443   3.337  0.5652  0.3184  0.2051
 1058SOL     OW 4081   5.184   3.651   1.303  0.6188  0.0294 -0.6738
 1058SOL    HW1 4082   5.197   3.596   1.380  1.0051 -0.7309 -1.2602
 1058SOL    HW2 4083   5.193   3.740   1.334 -2.8687  0.0099  0.9176
 1059SOL     OW 4084   6.174   2.732   0.919 -0.2280 -0.1058 -0.0356
 1059SOL    HW1 4085   6.235   2.782   0.865 -1.0658  1.4443  0.3898
 1059SOL    HW2 4086   6.171   2.779   1.002 -2.1065 -0.0286 -0.1011
 1060SOL     OW 4087   5.297   5.240   6.438 -0.1014  0.6869 -0.6025
 1060SOL    HW1 4088   5.266   5.328   6.458  1.1676  0.6567  1.8977
 1060SOL    HW2 4089   5.218   5.191   6.414 -1.1911  1.8810  0.4425
 1061SOL     OW 4090   5.613   1.464   2.294 -0.4150  0.0260  0.0178
 1061SOL    HW1 4091   5.567   1.514   2.361  1.4746  0.5138  1.0348
 1061SOL    HW2 4092   5.566   1.483   2.213 -0.0402  3.2339  0.4106
 1062SOL     OW 4093   5.564   6.586   2.749  0.4769 -0.3049  0.3636
 1062SOL    HW1 4094   5.621   6.559   2.820  2.6969  0.0968 -1.1785
 1062SOL    HW2 4095   5.501   6.514   2.740  0.9325 -0.9268  1.8781
 1063SOL     OW 4096   7.050   4.688   0.137  0.7390  0.0754  0.0451
 1063SOL    HW1 4097   7.033   4.768   0.188 -0.5341 -0.3477  0.3165
 1063SOL    HW2 4098   7.137   4.660   0.166  0.3785  0.2867  1.4107
 1064SOL     OW 4099   0.403   6.485   0.740 -0.3854 -0.3439 -0.2599
 1064SOL    HW1 4100   0.476   6.440   0.782 -0.3218  0.8854  1.0061
 1064SOL    HW2 4101   0.410   6.575   0.770 -1.0826  0.3142 -1.9600
 1065SOL     OW 4102   1.964   0.879   3.128 -0.0943  1.0217  0.6561
 1065SOL    HW1 4103   1.943   0.971   3.116 -1.2533  0.5422 -1.6934
 1065SOL    HW2 4104   2.058   0.873   3.115 -0.0707  1.8325  0.4445
 1066SOL     OW 4105   1.040   3.126   0.825 -0.1283  0.3344 -0.0195
 1066SOL    HW1 4106   1.017   3.120   0.918  1.7763  1.0989  0.5356
 1066SOL    HW2 4107   0.959   3.155   0.783 -1.0125  0.0313  1.3877
 1067SOL     OW 4108   0.037   0.276   1.304 -0.1879  0.2795  0.0351
 1067SOL    HW1 4109   0.042   0.187   1.269 -1.4537  0.5103 -0.8038
 1067SOL    HW2 4110  -0.002   0.327   1.233 -1.0448  1.1617  1.1166
 1068SOL     OW 4111   3.650   3.544   6.049  0.3623 -0.0817 -0.0224
 1068SOL    HW1 4112   3.709   3.606   6.091 -0.9921  1.5219 -0.3773
 1068SOL    HW2 4113   3.577   3.597   6.018 -0.9197 -1.8853 -0.2612
 1069SOL     OW 4114   1.727   2.236   5.420 -0.6323  0.1035 -0.8909
 1069SOL    HW1 4115   1.820   2.257   5.410 -0.6607  0.2336 -0.8864
 1069SOL    HW2 4116   1.711   2.168   5.355 -0.7016  0.5991 -1.4000
 1070SOL     OW 4117   6.360   0.590   3.642 -0.2136 -0.0722 -0.0267
 1070SOL    HW1 4118   6.407   0.654   3.588  0.8787 -0.9927 -0.1999
 1070SOL    HW2 4119   6.390   0.607   3.731  1.8262 -1.7297 -0.3169
 1071SOL     OW 4120   4.876   0.974   0.743 -0.0204  0.6180  0.2084
 1071SOL    HW1 4121   4.968   0.973   0.771 -0.0580  1.5427  0.4071
 1071SOL    HW2 4122   4.847   1.064   0.760 -0.9149  0.3806 -0.0136
 1072SOL     OW 4123   6.402   3.143   2.489 -0.0588 -0.1652  0.2751
 1072SOL    HW1 4124   6.401   3.232   2.454  2.2014  0.0530  0.5854
 1072SOL    HW2 4125   6.369   3.151   2.579 -0.2069  0.2913  0.1793
 1073SOL     OW 4126   1.384   1.186   0.136 -0.1871 -0.6684 -0.1831
 1073SOL    HW1 4127   1.355   1.103   0.175  0.1695 -0.6416  0.1534
 1073SOL    HW2 4128   1.304   1.228   0.106 -0.2657 -1.7407 -1.5842
 1074SOL     OW 4129   0.436   3.425   0.617  0.5797  0.0231  0.1014
 1074SOL    HW1 4130   0.388   3.381   0.547  0.8322  0.6374 -0.4713
 1074SOL    HW2 4131   0.470   3.504   0.576  1.2469  0.0867  0.7604
 1075SOL     OW 4132   4.848   3.537   0.792 -0.1863 -0.0521 -0.0023
 1075SOL    HW1 4133   4.827   3.449   0.824  0.5155 -0.7416 -1.3304
 1075SOL    HW2 4134   4.919   3.567   0.849  0.6043 -0.9870 -0.4635
 1076SOL     OW 4135   7.473   1.959   3.502  0.0643 -0.5312 -0.4996
 1076SOL    HW1 4136   7.467   2.044   3.546 -0.4958 -1.2591  0.9038
 1076SOL    HW2 4137   7.498   1.980   3.412  0.2914  1.0894 -0.0912
 1077SOL     OW 4138   4.275   0.933   5.282 -0.0002 -0.2324  0.4195
 1077SOL    HW1 4139   4.218   0.860   5.255 -1.2062 -1.0480  4.4932
 1077SOL    HW2 4140   4.364   0.898   5.271 -0.5288 -1.9769  1.1879
 1078SOL     OW 4141   2.990   3.753   4.658  0.4182 -0.3154  0.1537
 1078SOL    HW1 4142   3.001   3.743   4.753  0.4796  1.7141  0.4229
 1078SOL    HW2 4143   2.896   3.749   4.644  0.3550  0.1443  0.4225
 1079SOL     OW 4144   6.881   2.828   7.075  0.0907 -0.0594  0.2101
 1079SOL    HW1 4145   6.868   2.874   6.992  2.0783  2.3256  1.1162
 1079SOL    HW2 4146   6.974   2.804   7.075 -0.1836 -1.2150  1.1941
 1080SOL     OW 4147   4.518   1.655   3.017 -0.3962  0.7095  0.0249
 1080SOL    HW1 4148   4.537   1.614   2.933  0.3286  0.2052  0.4272
 1080SOL    HW2 4149   4.448   1.602   3.055  1.5161 -1.1283  1.1983
 1081SOL     OW 4150   3.688   6.739   4.988  0.7976  0.3631  0.2253
 1081SOL    HW1 4151   3.754   6.766   5.052  0.5025 -0.9491  1.1310
 1081SOL    HW2 4152   3.621   6.695   5.041  0.9881 -1.5797 -1.0515
 1082SOL     OW 4153   0.428   5.395   1.936 -0.1779 -0.4629  0.2989
 1082SOL    HW1 4154   0.448   5.332   2.006 -0.4142 -1.1939 -0.2755
 1082SOL    HW2 4155   0.388   5.469   1.982 -0.0188 -0.7845  0.9764
 1083SOL     OW 4156   5.494   6.342   4.199 -0.3267  0.4433 -0.2560
 1083SOL    HW1 4157   5.480   6.355   4.106  1.8986  1.0639 -0.5608
 1083SOL    HW2 4158   5.411   6.307   4.232 -2.1189  2.8907 -1.9045
 1084SOL     OW 4159   0.034   6.569   6.218 -0.1368 -0.3056 -0.1474
 1084SOL    HW1 4160   0.060   6.523   6.298 -0.0339  2.6876  1.7168
 1084SOL    HW2 4161  -0.061   6.577   6.224 -0.1320 -0.0902 -0.3075
 1085SOL     OW 4162   2.969   6.382   3.815 -0.1242  0.0718  0.2617
 1085SOL    HW1 4163   2.971   6.475   3.792  0.3978 -0.2765 -1.2657
 1085SOL    HW2 4164   3.061   6.361   3.833 -0.5006  0.3074  2.8022
 1086SOL     OW 4165   5.608   3.471   6.001 -0.4555  0.7182  0.5870
 1086SOL    HW1 4166   5.570   3.491   6.087 -1.5554 -2.4939  0.9685
 1086SOL    HW2 4167   5.533   3.468   5.942  0.0254  0.7320 -0.0289
 1087SOL     OW 4168   4.988   1.389   2.235  0.4855  0.4193 -0.1324
 1087SOL    HW1 4169   4.955   1.381   2.145  3.0897 -1.2277 -1.0665
 1087SOL    HW2 4170   4.932   1.331   2.286 -1.3748  1.7838 -0.5452
 1088SOL     OW 4171   5.568   3.260   0.352 -0.1347  0.0781  0.4910
 1088SOL    HW1 4172   5.566   3.261   0.257  1.1035 -1.8315  0.4070
 1088SOL    HW2 4173   5.661   3.261   0.375 -0.3973 -0.1655  1.6693
 1089SOL     OW 4174   1.844   0.634   3.733  0.3450 -0.6242 -0.0385
 1089SOL    HW1 4175   1.807   0.645   3.821  2.1530 -1.4725  0.8751
 1089SOL    HW2 4176   1.814   0.548   3.704  1.3749 -1.2124  0.6054
 1090SOL     OW 4177   2.486   1.875   3.954 -0.2854 -0.2524  0.2179
 1090SOL    HW1 4178   2.442   1.819   4.017 -0.1696 -0.1620  0.3788
 1090SOL    HW2 4179   2.420   1.892   3.886 -0.1302 -1.0844 -0.1456
 1091SOL     OW 4180   4.318   1.321   2.394  0.2152 -0.1527  0.0693
 1091SOL    HW1 4181   4.261   1.314   2.471  0.3693  0.5731  0.2580
 1091SOL    HW2 4182   4.370   1.399   2.410 -0.5990  0.7167 -1.3422
 1092SOL     OW 4183   2.406   0.389   4.315 -0.2605 -0.3510 -0.6309
 1092SOL    HW1 4184   2.336   0.440   4.355  1.0245  1.2674 -0.3400
 1092SOL    HW2 4185   2.455   0.353   4.388 -0.0529 -0.4283 -0.8048
 1093SOL     OW 4186   6.401   0.642   4.767  0.0975 -0.2226  0.2161
 1093SOL    HW1 4187   6.414   0.601   4.853 -1.2341 -0.2284  0.4385
 1093SOL    HW2 4188   6.340   0.714   4.784  1.1050  0.8285 -0.4582
 1094SOL     OW 4189   0.728   6.956   1.951 -0.2681 -0.5085 -0.2500
 1094SOL    HW1 4190   0.745   6.984   1.862  1.2593  0.9397  0.4635
 1094SOL    HW2 4191   0.811   6.968   1.997 -1.1984 -0.5678  1.5280
 1095SOL     OW 4192   2.940   4.145   2.306 -0.4064 -0.3837  0.3565
 1095SOL    HW1 4193   2.961   4.065   2.355 -1.2610 -0.5299  0.5073
 1095SOL    HW2 4194   3.001   4.144   2.232 -1.0342 -1.6974 -0.1774
 1096SOL     OW 4195   3.186   5.918   1.777 -0.0697  0.1223 -0.5122
 1096SOL    HW1 4196   3.123   5.851   1.753 -0.9572  0.0702  1.7098
 1096SOL    HW2 4197   3.262   5.870   1.810 -0.8521  0.1145  1.4385
 1097SOL     OW 4198   2.595   5.000   2.315  0.1686 -0.3015  0.0655
 1097SOL    HW1 4199   2.551   4.919   2.340 -2.3938  1.0452  0.2344
 1097SOL    HW2 4200   2.664   5.010   2.380 -1.4173 -0.8437  1.9328
 1098SOL     OW 4201   6.117   3.511   2.413 -0.0479 -0.0222  0.2436
 1098SOL    HW1 4202   6.050   3.517   2.481 -0.1715 -0.3277  0.1512
 1098SOL    HW2 4203   6.088   3.439   2.358 -0.3784  0.7574 -0.6147
 1099SOL     OW 4204   5.259   3.758   4.667 -0.2667  0.1069 -0.5500
 1099SOL    HW1 4205   5.276   3.848   4.696  0.1510  0.2889 -1.3455
 1099SOL    HW2 4206   5.210   3.719   4.740 -0.8653  1.1091 -0.3957
 1100SOL     OW 4207   3.424   7.251   5.849 -0.3931  0.4488 -0.1327
 1100SOL    HW1 4208   3.348   7.271   5.795 -0.3654  2.1992  0.4355
 1100SOL    HW2 4209   3.391   7.254   5.939  0.3513  1.3510  0.1264
 1101SOL     OW 4210   2.068   0.576   1.564  0.0142 -0.3904 -0.2168
 1101SOL    HW1 4211   2.143   0.523   1.539  0.3351 -0.8920  1.6296
 1101SOL    HW2 4212   2.001   0.555   1.499  0.9849 -1.0565 -1.0404
 1102SOL     OW 4213   5.794   0.181   3.187 -0.1615 -0.5266  0.3222
 1102SOL    HW1 4214   5.741   0.261   3.192  1.7191  0.6812  2.5998
 1102SOL    HW2 4215   5.831   0.183   3.099 -1.9191 -0.1458 -0.4636
 1103SOL     OW 4216   7.498   0.201   7.138  0.7270 -0.1750  0.4144
 1103SOL    HW1 4217   7.543   0.225   7.057 -2.1306  1.9911 -0.7220
 1103SOL    HW2 4218   7.536   0.258   7.205  1.6082 -0.4088  0.1166
 1104SOL     OW 4219   5.704   6.819   5.073  0.0800  0.4958  0.0181
 1104SOL    HW1 4220   5.668   6.758   5.009 -1.7391  2.1792 -0.6596
 1104SOL    HW2 4221   5.767   6.767   5.123 -1.4072 -1.9418 -0.4833
 1105SOL     OW 4222   0.180   2.727   3.581 -0.4396 -0.0797  0.2181
 1105SOL    HW1 4223   0.097   2.681   3.594 -1.2297  1.0746 -0.5016
 1105SOL    HW2 4224   0.155   2.807   3.533  1.0825  0.3093  0.0388
 1106SOL     OW 4225   3.647   4.885   0.594 -0.1073  0.0666  0.2526
 1106SOL    HW1 4226   3.689   4.829   0.529  1.5849 -0.4758  1.7243
 1106SOL    HW2 4227   3.630   4.828   0.669 -0.9404  0.9211  0.7563
 1107SOL     OW 4228   1.645   5.717   4.978 -0.2169 -0.5298  0.6796
 1107SOL    HW1 4229   1.571   5.778   4.973  0.7444  0.6211 -0.2398
 1107SOL    HW2 4230   1.697   5.749   5.052  1.3003  1.0430 -0.9642
 1108SOL     OW 4231   2.168   7.701   3.212  0.2832 -0.0894  0.1127
 1108SOL    HW1 4232   2.223   7.634   3.252  3.7395  0.3024 -3.3924
 1108SOL    HW2 4233   2.224   7.780   3.211 -1.7306  1.4058 -0.4294
 1109SOL     OW 4234   0.866   1.126   6.245 -0.1432 -0.4258 -0.0981
 1109SOL    HW1 4235   0.785   1.079   6.261 -0.3086 -0.2324 -0.3560
 1109SOL    HW2 4236   0.908   1.078   6.173 -0.9411  0.5587 -1.2792
 1110SOL     OW 4237   0.851   0.549   5.141  0.2048 -0.6319  0.3495
 1110SOL    HW1 4238   0.864   0.620   5.205 -0.8367 -1.9950  2.1788
 1110SOL    HW2 4239   0.937   0.509   5.132  0.8487  0.9267 -0.8397
 1111SOL     OW 4240   3.053   0.504   7.636 -0.3663  0.1269 -0.4250
 1111SOL    HW1 4241   3.024   0.576   7.692 -0.4493 -0.3021  0.0874
 1111SOL    HW2 4242   2.974   0.452   7.621 -0.4683  0.5372 -1.4043
 1112SOL     OW 4243   3.539   4.021   6.732 -0.0676  0.4063  1.4228
 1112SOL    HW1 4244   3.488   3.949   6.695 -0.0365  0.9410  0.2797
 1112SOL    HW2 4245   3.611   3.978   6.778  0.5197 -0.3038 -0.0935
 1113SOL     OW 4246   1.499   1.049   5.781 -0.2627 -0.1919  0.5276
 1113SOL    HW1 4247   1.495   1.140   5.809 -2.4438  1.0333 -3.0635
 1113SOL    HW2 4248   1.410   1.028   5.753  0.4989 -2.9227 -0.2024
 1114SOL     OW 4249   4.115   1.705   0.166  0.1113 -0.0906 -0.1053
 1114SOL    HW1 4250   4.157   1.620   0.150 -1.0542 -0.4241 -1.5771
 1114SOL    HW2 4251   4.098   1.740   0.078 -0.5816  1.0854  0.4808
 1115SOL     OW 4252   7.295   7.655   4.500 -0.3530  0.3991 -0.1122
 1115SOL    HW1 4253   7.323   7.590   4.435  0.5099  2.5902 -2.1088
 1115SOL    HW2 4254   7.200   7.642   4.506 -0.0556 -1.9307  0.6845
 1116SOL     OW 4255   0.194   6.672   6.032  0.8186 -0.0743 -0.0365
 1116SOL    HW1 4256   0.138   6.650   6.107 -1.4872  0.6516 -1.4237
 1116SOL    HW2 4257   0.167   6.761   6.008  0.2180 -0.8753 -2.7253
 1117SOL     OW 4258   3.525   2.274   1.996  0.3508  0.1427 -0.4145
 1117SOL    HW1 4259   3.609   2.241   2.029  1.1418  0.1618 -2.2822
 1117SOL    HW2 4260   3.512   2.357   2.042 -0.2662 -1.3019  2.2398
 1118SOL     OW 4261   1.711   2.169   7.682 -0.3203 -0.6375 -0.1787
 1118SOL    HW1 4262   1.663   2.100   7.637 -1.6415 -0.7923  1.3650
 1118SOL    HW2 4263   1.644   2.233   7.705  0.6680  0.4833 -0.3483
 1119SOL     OW 4264   3.037   2.969   3.883  0.0717 -0.6524  0.0035
 1119SOL    HW1 4265   2.960   3.025   3.889 -0.9753 -2.0210 -0.2294
 1119SOL    HW2 4266   3.067   2.979   3.792 -0.7491 -1.2488 -0.3500
 1120SOL     OW 4267   5.123   6.943   4.639 -0.2046 -0.0970  0.3040
 1120SOL    HW1 4268   5.077   6.992   4.707  0.0893  0.5778  0.0372
 1120SOL    HW2 4269   5.212   6.932   4.673  0.2160  1.0822 -0.3479
 1121SOL     OW 4270   3.490   5.202   3.619 -0.4031 -0.2593 -0.3950
 1121SOL    HW1 4271   3.497   5.266   3.548 -0.2671  0.0851 -0.0732
 1121SOL    HW2 4272   3.575   5.206   3.664 -1.6514  2.1401  2.0083
 1122SOL     OW 4273   7.629   0.063   4.909 -0.2185  0.7041  0.0048
 1122SOL    HW1 4274   7.549   0.050   4.859 -3.1529 -0.5129  4.5041
 1122SOL    HW2 4275   7.634   0.158   4.921 -1.3486  0.7495  0.2029
 1123SOL     OW 4276   7.148   4.352   4.937 -0.0087  0.4791  0.3118
 1123SOL    HW1 4277   7.223   4.391   4.892 -0.7097  0.3709 -1.0117
 1123SOL    HW2 4278   7.169   4.259   4.944 -1.2271 -0.1664 -2.8420
 1124SOL     OW 4279   6.366   3.924   2.486 -0.2033 -0.5642 -0.2081
 1124SOL    HW1 4280   6.285   3.874   2.474 -0.6119 -0.0530  0.4000
 1124SOL    HW2 4281   6.337   4.014   2.503  0.4593 -0.5580  0.9670
 1125SOL     OW 4282   1.400   2.462   2.939 -0.5504  0.4129 -0.1484
 1125SOL    HW1 4283   1.343   2.523   2.891  1.0859  0.3865 -2.2649
 1125SOL    HW2 4284   1.340   2.412   2.995 -2.2734  2.0290 -0.4695
 1126SOL     OW 4285   1.239   2.883   5.970  0.3891  0.4930 -0.2730
 1126SOL    HW1 4286   1.279   2.811   5.920  0.4537  0.8835 -0.7941
 1126SOL    HW2 4287   1.311   2.943   5.986  0.0340  1.1981 -1.2079
 1127SOL     OW 4288   2.183   2.141   5.417 -0.0207 -0.1053 -0.1329
 1127SOL    HW1 4289   2.154   2.050   5.407 -0.4768 -0.3354  2.6216
 1127SOL    HW2 4290   2.275   2.140   5.390 -0.4079 -1.0273 -1.5435
 1128SOL     OW 4291   5.962   6.248   1.525  0.0085  0.0238  0.3978
 1128SOL    HW1 4292   6.036   6.212   1.574 -0.1546  1.0204  1.4090
 1128SOL    HW2 4293   5.895   6.265   1.591 -0.5962  0.4610 -0.3123
 1129SOL     OW 4294   5.888   6.969   2.444  0.1202 -0.7502 -0.2090
 1129SOL    HW1 4295   5.845   7.035   2.499  0.3221 -1.4889  0.8687
 1129SOL    HW2 4296   5.816   6.922   2.403 -0.0332 -0.1146 -0.6828
 1130SOL     OW 4297   5.169   1.488   5.199 -0.9035 -0.4894  0.3657
 1130SOL    HW1 4298   5.223   1.555   5.155  0.0527 -1.6312 -0.2616
 1130SOL    HW2 4299   5.230   1.417   5.218 -2.3412 -2.2411 -1.2335
 1131SOL     OW 4300   6.506   3.340   5.559 -0.4621  0.3448 -0.4792
 1131SOL    HW1 4301   6.437   3.385   5.609 -1.1521 -0.8871 -0.2830
 1131SOL    HW2 4302   6.557   3.411   5.519 -1.6597  1.2952 -0.3794
 1132SOL     OW 4303   2.024   7.129   1.131 -0.0908 -0.1816  0.2419
 1132SOL    HW1 4304   1.933   7.112   1.154 -0.4617 -0.7735 -1.4932
 1132SOL    HW2 4305   2.073   7.113   1.211 -1.2038 -2.7954  0.4882
 1133SOL     OW 4306   6.604   1.761   3.742  0.7169 -0.0649 -0.2729
 1133SOL    HW1 4307   6.593   1.856   3.752  2.2818  0.0815  0.3640
 1133SOL    HW2 4308   6.653   1.752   3.660  0.0453 -0.3709 -0.6443
 1134SOL     OW 4309   1.126   4.104   5.303 -0.6447 -0.5431 -0.0158
 1134SOL    HW1 4310   1.109   4.192   5.335 -2.3412 -0.5780 -0.6994
 1134SOL    HW2 4311   1.108   4.047   5.378 -1.2579 -0.4117 -0.0611
 1135SOL     OW 4312   0.449   6.083   2.171 -0.3235  0.1835 -0.4775
 1135SOL    HW1 4313   0.539   6.051   2.160 -0.2433 -0.1827  0.9829
 1135SOL    HW2 4314   0.457   6.178   2.164  0.1526  0.1386 -0.5968
 1136SOL     OW 4315   2.832   0.556   4.409 -0.2811 -0.5468  0.0482
 1136SOL    HW1 4316   2.798   0.533   4.495  0.2956  0.3133  0.5199
 1136SOL    HW2 4317   2.788   0.496   4.348  0.1589 -1.9421  1.0622
 1137SOL     OW 4318   4.329   4.714   5.903 -0.3963  0.1139 -0.1488
 1137SOL    HW1 4319   4.327   4.790   5.961  0.2465  0.6471 -0.7942
 1137SOL    HW2 4320   4.422   4.694   5.893 -0.5719 -0.9640  0.2576
 1138SOL     OW 4321   1.848   4.057   6.356  0.2588  0.0051  0.0987
 1138SOL    HW1 4322   1.805   3.995   6.296 -1.4611  1.7180 -0.5727
 1138SOL    HW2 4323   1.931   4.077   6.314 -0.8886  1.1304 -1.8043
 1139SOL     OW 4324   6.385   0.715   4.166 -0.1138  0.6355  0.3259
 1139SOL    HW1 4325   6.451   0.777   4.197  0.2411  0.3223  0.2160
 1139SOL    HW2 4326   6.403   0.635   4.215 -1.7300  1.1344  1.8141
 1140SOL     OW 4327   4.472   5.033   6.814  0.2140 -0.5232  0.2909
 1140SOL    HW1 4328   4.377   5.024   6.821  0.1346 -0.0951 -0.1364
 1140SOL    HW2 4329   4.484   5.109   6.756  0.8147 -0.2348  0.7820
 1141SOL     OW 4330   5.291   6.455   4.566  0.0304  0.0697  0.3083
 1141SOL    HW1 4331   5.306   6.497   4.482 -0.3679  0.1079  0.2523
 1141SOL    HW2 4332   5.291   6.526   4.630 -0.4928  0.1431  0.2329
 1142SOL     OW 4333   1.350   0.488   4.739 -0.5811 -0.2125  0.8531
 1142SOL    HW1 4334   1.360   0.474   4.645 -0.5178 -2.6918  1.1667
 1142SOL    HW2 4335   1.405   0.564   4.758  0.5085 -0.5088 -0.8934
 1143SOL     OW 4336   7.369   0.384   0.088 -0.3951  0.5444  0.2220
 1143SOL    HW1 4337   7.346   0.308   0.141  0.9777  0.2663  0.4691
 1143SOL    HW2 4338   7.290   0.437   0.085 -1.7906 -1.4501 -0.9709
 1144SOL     OW 4339   0.985   6.886   2.453 -0.6709  0.3059  0.2088
 1144SOL    HW1 4340   1.040   6.853   2.382 -0.7202  0.3835  0.1343
 1144SOL    HW2 4341   0.922   6.816   2.468  0.2032 -0.3059  1.1254
 1145SOL     OW 4342   3.666   6.966   1.378  0.1215  0.0509 -0.1653
 1145SOL    HW1 4343   3.624   7.026   1.317  0.1946  0.2102 -0.0601
 1145SOL    HW2 4344   3.759   6.972   1.358  0.4008  1.7452  1.3874
 1146SOL     OW 4345   1.911   1.147   4.553 -0.3323  0.5892 -0.0620
 1146SOL    HW1 4346   1.926   1.069   4.499  2.3156  0.6670  0.4459
 1146SOL    HW2 4347   1.896   1.217   4.490 -1.3503 -0.0538 -0.5595
 1147SOL     OW 4348   1.917   5.418   1.104 -0.0480  0.1374  0.7399
 1147SOL    HW1 4349   2.007   5.430   1.072 -0.9730 -0.0430 -2.2402
 1147SOL    HW2 4350   1.907   5.324   1.112 -0.2228  0.1062  0.1960
 1148SOL     OW 4351   1.232   0.191   6.469  0.2772  0.1466  0.0220
 1148SOL    HW1 4352   1.204   0.245   6.395 -0.5109 -1.0178 -0.5613
 1148SOL    HW2 4353   1.325   0.211   6.480  0.4416  0.2186 -1.3994
 1149SOL     OW 4354   4.384   5.182   4.862  0.1327  0.2938  0.5007
 1149SOL    HW1 4355   4.302   5.215   4.825 -0.1721  0.7605  1.5404
 1149SOL    HW2 4356   4.446   5.182   4.789 -1.1444 -1.4439 -0.6620
 1150SOL     OW 4357   6.063   7.692   6.534 -0.2787 -0.2582 -0.6659
 1150SOL    HW1 4358   6.128   7.702   6.465 -0.7448 -0.0166 -1.0758
 1150SOL    HW2 4359   6.011   7.617   6.508 -1.2295  0.5758 -1.2222
 1151SOL     OW 4360   6.611   3.333   1.917  0.1665  0.2715  0.2368
 1151SOL    HW1 4361   6.611   3.237   1.919  1.2253  0.2608  1.9711
 1151SOL    HW2 4362   6.666   3.355   1.842  2.4852 -0.5498  1.6090
 1152SOL     OW 4363   0.286   7.661   3.679 -0.5691 -0.2851 -0.1578
 1152SOL    HW1 4364   0.339   7.686   3.755  1.7069 -3.0109 -0.6665
 1152SOL    HW2 4365   0.196   7.667   3.710  0.0477  2.3689  1.4873
 1153SOL     OW 4366   3.055   3.974   2.480  0.1718 -0.2208  0.9537
 1153SOL    HW1 4367   3.037   4.013   2.566 -0.0052 -0.1461  0.8831
 1153SOL    HW2 4368   3.147   3.993   2.463  0.1182  0.0549  0.9772
 1154SOL     OW 4369   3.026   6.772   5.545  0.1305 -0.4550 -0.1276
 1154SOL    HW1 4370   3.044   6.701   5.483 -1.6333 -0.0348 -1.2018
 1154SOL    HW2 4371   3.056   6.851   5.500 -0.4830 -0.2254 -0.1400
 1155SOL     OW 4372   0.146   0.165   1.601 -0.2259 -0.4932 -0.4443
 1155SOL    HW1 4373   0.157   0.124   1.516 -1.4827 -0.0796 -0.8367
 1155SOL    HW2 4374   0.199   0.113   1.661 -1.2679 -2.3175 -1.0435
 1156SOL     OW 4375   5.282   1.024   6.482  0.5780  0.3628  0.6341
 1156SOL    HW1 4376   5.279   0.934   6.449  0.3663 -0.9466  3.8211
 1156SOL    HW2 4377   5.308   1.015   6.574 -1.2308  3.4169  1.6131
 1157SOL     OW 4378   1.441   3.908   2.037 -0.0090 -0.1457  0.1370
 1157SOL    HW1 4379   1.350   3.928   2.058 -0.1085 -0.5875  0.1477
 1157SOL    HW2 4380   1.488   3.922   2.120  0.1306  1.1944 -0.1527
 1158SOL     OW 4381   6.419   5.938   2.902 -0.8930  0.2423 -0.2112
 1158SOL    HW1 4382   6.453   5.873   2.964 -1.9121 -1.0071 -0.9165
 1158SOL    HW2 4383   6.450   6.022   2.936 -0.5712 -0.4966  1.4131
 1159SOL     OW 4384   7.667   3.089   6.230  0.3987 -0.0221 -0.0077
 1159SOL    HW1 4385   7.707   3.093   6.317  0.8190 -1.2204 -0.1273
 1159SOL    HW2 4386   7.626   3.175   6.218  0.3654  0.1681  1.3506
 1160SOL     OW 4387   2.564   6.494   1.807  0.0354  0.0151 -0.9236
 1160SOL    HW1 4388   2.645   6.445   1.822  0.1233  0.2869 -0.5008
 1160SOL    HW2 4389   2.592   6.576   1.765  0.2705  1.2571  1.5185
 1161SOL     OW 4390   7.140   4.758   1.293  0.0654  0.2373  0.0625
 1161SOL    HW1 4391   7.133   4.837   1.240  1.1693  0.7341  0.6192
 1161SOL    HW2 4392   7.103   4.782   1.378  0.9301  0.3624  0.4187
 1162SOL     OW 4393   4.086   4.647   3.226  0.0879  0.8570  0.2390
 1162SOL    HW1 4394   4.001   4.646   3.271  0.7502  1.9107  1.6097
 1162SOL    HW2 4395   4.140   4.587   3.277 -0.1666 -0.9020 -1.4444
 1163SOL     OW 4396   3.008   4.005   3.522  0.1988 -0.3427 -0.2458
 1163SOL    HW1 4397   2.956   4.085   3.516  0.3791 -0.1632  0.4807
 1163SOL    HW2 4398   2.945   3.935   3.505 -0.1851 -0.0988  0.1528
 1164SOL     OW 4399   2.830   1.335   4.558 -0.0174  0.1701 -0.1799
 1164SOL    HW1 4400   2.739   1.316   4.582 -0.0696  1.4480  0.7226
 1164SOL    HW2 4401   2.826   1.417   4.509  0.5539 -0.3148 -1.0684
 1165SOL     OW 4402   3.458   4.608   7.707 -0.1991 -0.0300 -0.3232
 1165SOL    HW1 4403   3.447   4.601   7.612 -0.7845  0.4924 -0.2970
 1165SOL    HW2 4404   3.379   4.570   7.744 -0.3378  0.5134 -0.0585
 1166SOL     OW 4405   0.065   5.857   5.907  0.6501  0.1432 -0.5680
 1166SOL    HW1 4406   0.061   5.770   5.868 -0.4371 -0.0501 -0.0665
 1166SOL    HW2 4407   0.071   5.841   6.001  0.0650  0.5979 -0.4472
 1167SOL     OW 4408   1.757   6.872   0.583  0.3618  0.1918  0.3760
 1167SOL    HW1 4409   1.785   6.962   0.599 -0.0638  0.3046  0.4930
 1167SOL    HW2 4410   1.669   6.866   0.621 -0.7683  0.4992 -1.9591
 1168SOL     OW 4411   5.789   4.894   7.143  0.1389 -0.2376 -0.4073
 1168SOL    HW1 4412   5.709   4.847   7.122  0.0043 -0.4863  0.5813
 1168SOL    HW2 4413   5.842   4.889   7.063 -0.2207 -1.3521 -0.6021
 1169SOL     OW 4414   4.054   1.870   2.653 -0.1412  0.2136  0.1108
 1169SOL    HW1 4415   4.003   1.854   2.733  1.0747  1.1837  1.1153
 1169SOL    HW2 4416   4.136   1.906   2.684  0.0990  1.2711 -1.6376
 1170SOL     OW 4417   3.143   0.480   0.496 -0.0220 -0.3739  0.2774
 1170SOL    HW1 4418   3.134   0.542   0.424 -0.8601 -1.7919 -0.8889
 1170SOL    HW2 4419   3.230   0.442   0.485  0.9283  1.2621  1.6096
 1171SOL     OW 4420   2.470   1.754   5.586 -0.4442  0.1208 -0.3365
 1171SOL    HW1 4421   2.426   1.679   5.626 -0.0060 -0.2049 -0.4593
 1171SOL    HW2 4422   2.517   1.717   5.511  0.5340  0.3609  0.1458
 1172SOL     OW 4423   4.961   2.610   4.810  0.3159  0.3248  0.2268
 1172SOL    HW1 4424   5.031   2.618   4.745 -0.3542 -0.4624 -0.6212
 1172SOL    HW2 4425   5.004   2.571   4.886  1.0593  1.0440  0.1888
 1173SOL     OW 4426   6.982   2.279   2.115  0.6825  0.0316  0.2254
 1173SOL    HW1 4427   7.015   2.223   2.044 -0.1935  2.2511 -2.0678
 1173SOL    HW2 4428   6.888   2.260   2.119  0.4519  1.0068 -0.2992
 1174SOL     OW 4429   5.597   2.684   1.181  0.4323  0.1262 -0.0451
 1174SOL    HW1 4430   5.662   2.619   1.210  0.3403  0.3846  0.7818
 1174SOL    HW2 4431   5.598   2.751   1.250 -0.8589  0.0342  0.0830
 1175SOL     OW 4432   1.873   3.987   3.463  0.0544 -0.5439  0.0445
 1175SOL    HW1 4433   1.953   4.021   3.422 -0.2882 -0.1829 -0.3309
 1175SOL    HW2 4434   1.802   4.026   3.413 -0.3619 -1.7882 -0.3792
 1176SOL     OW 4435   6.016   0.111   4.566  0.0928 -0.6380 -0.0296
 1176SOL    HW1 4436   5.988   0.168   4.494  2.9012 -0.4042 -1.0863
 1176SOL    HW2 4437   6.071   0.045   4.523 -2.1230 -3.6155  1.2874
 1177SOL     OW 4438   3.311   5.247   5.911  0.0278 -0.1833 -0.8010
 1177SOL    HW1 4439   3.400   5.238   5.946 -0.4037 -1.2177  0.0957
 1177SOL    HW2 4440   3.296   5.165   5.863 -0.9586 -0.6673  0.2945
 1178SOL     OW 4441   4.545   6.024   0.017 -0.2404  0.4822 -0.5391
 1178SOL    HW1 4442   4.628   5.986  -0.011 -0.0511 -0.1411  0.7654
 1178SOL    HW2 4443   4.488   5.948   0.033 -0.3452  0.7924  0.6505
 1179SOL     OW 4444   1.117   4.554   2.639  0.3003 -0.5805  0.1641
 1179SOL    HW1 4445   1.057   4.622   2.672  1.2183  0.2683  0.1382
 1179SOL    HW2 4446   1.059   4.485   2.607 -0.6632 -0.8117  2.2186
 1180SOL     OW 4447   0.846   6.952   3.410  0.2844  0.6381  0.7319
 1180SOL    HW1 4448   0.856   6.965   3.505 -1.5592  1.0292  0.9166
 1180SOL    HW2 4449   0.828   6.858   3.401  0.6167  0.5719  0.7504
 1181SOL     OW 4450   4.997   4.018   6.756 -0.0633 -0.2714 -0.0841
 1181SOL    HW1 4451   4.951   4.101   6.745 -0.9010 -0.7235 -0.0737
 1181SOL    HW2 4452   5.018   3.990   6.667 -0.7937 -0.5982 -0.1605
 1182SOL     OW 4453   0.726   4.696   4.317 -0.3485  0.0944 -0.4708
 1182SOL    HW1 4454   0.724   4.702   4.413 -2.3733 -1.3288 -0.3707
 1182SOL    HW2 4455   0.806   4.646   4.299 -1.6801 -2.7451  0.7867
 1183SOL     OW 4456   5.382   3.431   5.811 -0.1986  0.4305 -0.1786
 1183SOL    HW1 4457   5.399   3.344   5.776 -0.2905 -0.1979  1.2390
 1183SOL    HW2 4458   5.438   3.490   5.761  0.6888 -0.6058 -0.4260
 1184SOL     OW 4459   3.056   3.721   5.904 -0.2215  0.0720 -0.1258
 1184SOL    HW1 4460   3.059   3.812   5.877 -1.4071 -0.3000 -1.6456
 1184SOL    HW2 4461   2.980   3.685   5.858 -0.7358 -1.2917  1.6792
 1185SOL     OW 4462   6.286   1.545   3.061  0.5238 -0.4136  0.0714
 1185SOL    HW1 4463   6.378   1.545   3.089  0.7451 -1.9826 -0.5380
 1185SOL    HW2 4464   6.290   1.558   2.966  0.2251 -1.6321 -0.1334
 1186SOL     OW 4465   5.075   1.395   1.867  0.3233 -0.1095  0.2698
 1186SOL    HW1 4466   4.988   1.382   1.904 -0.0986  0.0500 -0.6591
 1186SOL    HW2 4467   5.070   1.360   1.778  1.5464 -1.1899  0.5832
 1187SOL     OW 4468   5.913   3.583   3.968 -1.1075 -0.3162  0.2763
 1187SOL    HW1 4469   5.904   3.654   3.904 -2.0236  1.4713  2.2592
 1187SOL    HW2 4470   5.839   3.525   3.950 -0.0768 -1.1236 -1.6857
 1188SOL     OW 4471   7.506   5.730   0.599  0.3153 -0.0189  0.5892
 1188SOL    HW1 4472   7.467   5.753   0.683 -2.1345  1.4698 -0.8234
 1188SOL    HW2 4473   7.568   5.801   0.581  2.4223 -1.4106  1.9881
 1189SOL     OW 4474   4.449   3.849   5.815 -0.0807  0.3759  0.1214
 1189SOL    HW1 4475   4.438   3.837   5.909 -0.0019  0.4870  0.1459
 1189SOL    HW2 4476   4.364   3.827   5.777  0.3012 -1.1289  0.0749
 1190SOL     OW 4477   7.032   7.274   1.292 -0.1457 -0.0018  0.5469
 1190SOL    HW1 4478   7.035   7.179   1.283  0.9659  0.1248 -0.7468
 1190SOL    HW2 4479   7.109   7.305   1.244 -1.2490  1.6373 -0.2524
 1191SOL     OW 4480   2.240   6.933   3.526 -0.3762 -0.1050  0.1241
 1191SOL    HW1 4481   2.256   6.863   3.462 -1.4059 -0.7515  0.5389
 1191SOL    HW2 4482   2.151   6.963   3.508 -0.1288  0.7543  0.2874
 1192SOL     OW 4483   0.479   7.082   4.481 -0.0567  0.3079 -0.0485
 1192SOL    HW1 4484   0.414   7.121   4.539  0.0852 -0.0206  0.3333
 1192SOL    HW2 4485   0.544   7.151   4.468  0.9696 -0.2383  1.8167
 1193SOL     OW 4486   3.763   2.436   1.383  0.0380 -0.7912 -0.0015
 1193SOL    HW1 4487   3.839   2.435   1.441  0.8438 -2.8605 -1.0054
 1193SOL    HW2 4488   3.799   2.458   1.297 -0.9985  1.2685  0.0444
 1194SOL     OW 4489   6.235   0.136   1.542 -0.6480  0.1417 -0.1269
 1194SOL    HW1 4490   6.319   0.117   1.502 -1.7567 -0.0841 -2.5245
 1194SOL    HW2 4491   6.190   0.051   1.544 -0.7821  0.2255  1.2981
 1195SOL     OW 4492   1.645   4.900   0.132  0.0154 -0.1206 -0.2733
 1195SOL    HW1 4493   1.622   4.827   0.075 -0.1104  0.1547 -0.5809
 1195SOL    HW2 4494   1.576   4.902   0.198 -0.0648 -0.1865 -0.3549
 1196SOL     OW 4495   5.381   2.366   4.659  0.0760  0.2938  0.1123
 1196SOL    HW1 4496   5.386   2.271   4.669 -2.5895  0.1730  0.9357
 1196SOL    HW2 4497   5.472   2.395   4.663  0.9746 -2.2133 -0.2985
 1197SOL     OW 4498   6.341   5.387   6.067  0.3171 -0.7526 -0.2119
 1197SOL    HW1 4499   6.249   5.372   6.046  0.7162 -2.9725 -0.5387
 1197SOL    HW2 4500   6.353   5.481   6.052 -1.7956 -0.4700 -0.4692
 1198SOL     OW 4501   6.813   3.852   2.839  0.8311 -0.0630  0.0982
 1198SOL    HW1 4502   6.908   3.837   2.847  0.9805  0.8853  0.2522
 1198SOL    HW2 4503   6.791   3.823   2.751  1.4020  0.3661 -0.1907
 1199SOL     OW 4504   3.876   4.227   3.342  0.4042 -0.5109 -0.1146
 1199SOL    HW1 4505   3.841   4.231   3.431 -0.8405 -0.2455 -0.6025
 1199SOL    HW2 4506   3.813   4.276   3.289  2.3613  1.4956 -0.7627
 1200SOL     OW 4507   7.398   5.576   4.087 -0.6008 -0.3234  0.8884
 1200SOL    HW1 4508   7.329   5.590   4.022 -0.2266 -1.1624  0.2854
 1200SOL    HW2 4509   7.407   5.661   4.131 -0.7233  0.3474 -0.3114
 1201SOL     OW 4510   4.589   5.469   2.358 -0.7836  0.3281  0.0306
 1201SOL    HW1 4511   4.626   5.396   2.408 -1.1105  0.1525  0.0232
 1201SOL    HW2 4512   4.504   5.436   2.329 -1.2447  0.9742  0.6288
 1202SOL     OW 4513   5.807   5.029   1.293  0.0664 -0.2229 -0.2466
 1202SOL    HW1 4514   5.738   4.991   1.347 -1.2088  1.8102 -0.3283
 1202SOL    HW2 4515   5.851   5.092   1.350 -0.3664  0.9280 -1.1434
 1203SOL     OW 4516   0.556   5.168   4.994 -0.6117  0.3266 -0.5515
 1203SOL    HW1 4517   0.481   5.109   5.000 -0.8184  0.5592 -0.8309
 1203SOL    HW2 4518   0.519   5.255   5.006 -0.2524  0.3744  0.2648
 1204SOL     OW 4519   6.729   2.164   1.087  0.1091 -0.1096  0.2173
 1204SOL    HW1 4520   6.807   2.135   1.136 -0.4083 -1.0114  0.5359
 1204SOL    HW2 4521   6.663   2.178   1.155 -1.4945 -4.0634 -0.2888
 1205SOL     OW 4522   3.308   2.387   6.727 -0.2499 -0.1713  0.5878
 1205SOL    HW1 4523   3.272   2.303   6.698 -1.2151  1.1456 -2.3991
 1205SOL    HW2 4524   3.238   2.450   6.712  1.1512  1.5072  0.7169
 1206SOL     OW 4525   0.373   1.140   0.276  0.0413 -0.3436  0.4347
 1206SOL    HW1 4526   0.318   1.152   0.199  0.1550  0.7198  0.5009
 1206SOL    HW2 4527   0.368   1.046   0.295 -2.1204 -0.2266  0.7197
 1207SOL     OW 4528   6.815   4.667   2.083 -0.2961  0.2424  0.7491
 1207SOL    HW1 4529   6.738   4.610   2.076  0.8288 -1.1516 -0.9335
 1207SOL    HW2 4530   6.805   4.729   2.011  0.0044  0.2395  0.7047
 1208SOL     OW 4531   5.679   2.285   4.533  0.0400  0.3463 -0.4477
 1208SOL    HW1 4532   5.725   2.351   4.483  0.7083  1.1186  1.1231
 1208SOL    HW2 4533   5.676   2.319   4.623 -1.4450 -0.7927 -0.0081
 1209SOL     OW 4534   4.916   6.825   0.669  0.2555 -0.0543  0.2690
 1209SOL    HW1 4535   4.996   6.801   0.716  0.4911  0.3698  0.0921
 1209SOL    HW2 4536   4.930   6.916   0.643  0.1692 -0.3170 -0.7148
 1210SOL     OW 4537   5.939   1.134   1.348 -0.0691 -0.4370 -0.4530
 1210SOL    HW1 4538   5.844   1.135   1.359 -0.2194  0.8537 -1.5946
 1210SOL    HW2 4539   5.958   1.054   1.300 -0.5213 -0.9026  0.1367
 1211SOL     OW 4540   0.640   0.937   3.911  0.6151  0.1246 -0.2527
 1211SOL    HW1 4541   0.574   0.982   3.859  1.0890 -0.3814 -1.3139
 1211SOL    HW2 4542   0.601   0.852   3.932 -0.1126  0.8225  1.3971
 1212SOL     OW 4543   2.833   4.460   1.584 -0.2930 -0.1426 -0.0872
 1212SOL    HW1 4544   2.815   4.395   1.652 -0.8325  0.7688  0.6721
 1212SOL    HW2 4545   2.879   4.531   1.631 -0.9033  0.6107 -0.6117
 1213SOL     OW 4546   1.570   1.066   1.537 -0.4425 -0.0542  0.1519
 1213SOL    HW1 4547   1.620   1.080   1.617  1.3355 -0.1014 -0.8921
 1213SOL    HW2 4548   1.539   0.976   1.544  0.7563 -0.4860  0.2714
 1214SOL     OW 4549   5.167   6.569   0.423 -0.0258 -0.1936 -0.3063
 1214SOL    HW1 4550   5.176   6.579   0.328 -0.3661  1.0836 -0.2195
 1214SOL    HW2 4551   5.164   6.659   0.457 -0.7229 -0.6182  0.8302
 1215SOL     OW 4552   1.460   7.201   5.179  0.0649  0.2070 -0.1186
 1215SOL    HW1 4553   1.440   7.109   5.196 -1.1367 -0.1526 -2.8662
 1215SOL    HW2 4554   1.556   7.206   5.183  0.2879 -1.6468 -1.7107
 1216SOL     OW 4555   5.150   2.712   4.616 -0.1912 -0.2966  0.0176
 1216SOL    HW1 4556   5.106   2.774   4.559  1.9168 -0.2080 -1.6391
 1216SOL    HW2 4557   5.188   2.647   4.557  2.4282  0.0032  1.1983
 1217SOL     OW 4558   4.600   6.027   0.643  0.5572  0.2891  0.4266
 1217SOL    HW1 4559   4.577   5.947   0.596  0.3335  0.8106 -0.3702
 1217SOL    HW2 4560   4.693   6.038   0.628  0.7542 -0.2320  1.1918
 1218SOL     OW 4561   4.561   5.050   2.312 -0.3667  0.3344 -0.3025
 1218SOL    HW1 4562   4.479   5.026   2.355  0.4232 -3.1436 -0.4737
 1218SOL    HW2 4563   4.624   5.056   2.383  0.0037 -0.8617 -0.5211
 1219SOL     OW 4564   6.236   2.271   6.227 -0.1742  0.7646 -0.2746
 1219SOL    HW1 4565   6.140   2.268   6.231 -0.3569 -0.4008 -3.2438
 1219SOL    HW2 4566   6.260   2.194   6.175  2.1101  2.8452 -2.5204
 1220SOL     OW 4567   0.206   3.929   5.088 -0.1203 -0.0932 -0.1860
 1220SOL    HW1 4568   0.291   3.933   5.045 -0.7225  0.1986 -1.4133
 1220SOL    HW2 4569   0.212   3.854   5.148  1.2207  0.3650  0.2950
 1221SOL     OW 4570   0.098   2.692   1.304  0.2867  0.1983  0.1132
 1221SOL    HW1 4571   0.012   2.682   1.263  1.0733 -1.8244 -1.1705
 1221SOL    HW2 4572   0.160   2.690   1.232  1.4528  2.6597  0.9115
 1222SOL     OW 4573   6.911   7.534   3.997  0.5425  0.5120 -0.6235
 1222SOL    HW1 4574   6.969   7.572   4.063 -0.1767  0.9743 -0.2603
 1222SOL    HW2 4575   6.832   7.510   4.044  0.1638  0.4978 -1.2519
 1223SOL     OW 4576   2.410   6.167   7.079  0.2801  0.4227  0.4054
 1223SOL    HW1 4577   2.389   6.234   7.013 -0.6767 -0.4644 -0.2007
 1223SOL    HW2 4578   2.335   6.108   7.080  1.1141 -0.6706  0.9194
 1224SOL     OW 4579   2.372   7.686   0.902  0.3207 -0.0962 -0.0753
 1224SOL    HW1 4580   2.303   7.740   0.862 -0.0347 -0.4589  0.0429
 1224SOL    HW2 4581   2.325   7.630   0.964  0.6213 -0.9129 -0.5729
 1225SOL     OW 4582   6.737   1.430   4.557 -0.1370  0.0617 -1.0095
 1225SOL    HW1 4583   6.707   1.401   4.643  0.1256  0.7763 -0.6655
 1225SOL    HW2 4584   6.725   1.354   4.501 -0.5578 -0.3354 -0.4009
 1226SOL     OW 4585   1.229   6.252   6.058 -0.1911  0.3972 -0.5020
 1226SOL    HW1 4586   1.255   6.234   6.148 -2.9774  0.4229  0.3856
 1226SOL    HW2 4587   1.144   6.294   6.065 -0.6846  0.0278 -3.1760
 1227SOL     OW 4588   3.382   1.772   1.237 -0.0876  0.2621 -0.6116
 1227SOL    HW1 4589   3.399   1.862   1.210  1.7306  0.1491  0.0307
 1227SOL    HW2 4590   3.469   1.732   1.244 -0.7913 -1.2163  0.2218
 1228SOL     OW 4591   4.714   6.449   0.370  0.1990  0.6435 -0.3361
 1228SOL    HW1 4592   4.757   6.535   0.379  0.2114  0.6591 -0.5250
 1228SOL    HW2 4593   4.686   6.427   0.458 -1.3072  1.6147 -0.5339
 1229SOL     OW 4594   1.951   6.387   0.802  0.1275  0.0919 -0.0322
 1229SOL    HW1 4595   2.044   6.371   0.789  0.0055 -0.6149 -0.0467
 1229SOL    HW2 4596   1.927   6.446   0.730  0.5024  0.0621 -0.1830
 1230SOL     OW 4597   3.421   4.841   6.181 -0.2073  0.0334  0.0039
 1230SOL    HW1 4598   3.338   4.825   6.137  0.7955 -2.0922 -1.2948
 1230SOL    HW2 4599   3.447   4.756   6.216  1.9871  0.3341 -0.7096
 1231SOL     OW 4600   2.965   6.154   5.542  0.3893 -0.1906 -0.5912
 1231SOL    HW1 4601   2.918   6.080   5.581  0.8157  0.5685  1.4830
 1231SOL    HW2 4602   3.043   6.115   5.504  0.9230 -0.7916  1.0257
 1232SOL     OW 4603   5.798   5.441   3.374 -0.2974  0.2867  0.1496
 1232SOL    HW1 4604   5.784   5.359   3.326  1.9376  0.4490 -0.9324
 1232SOL    HW2 4605   5.724   5.496   3.349 -1.3821 -1.0856  0.2214
 1233SOL     OW 4606   4.578   7.282   5.229 -0.3157  1.0462  0.1064
 1233SOL    HW1 4607   4.609   7.285   5.138  0.5186  1.6180  0.4003
 1233SOL    HW2 4608   4.541   7.194   5.239 -3.0526  1.8808 -1.6186
 1234SOL     OW 4609   5.025   4.861   4.944 -0.1017 -0.2691  0.1145
 1234SOL    HW1 4610   5.109   4.888   4.980 -0.2278  0.8509 -0.4010
 1234SOL    HW2 4611   4.980   4.818   5.018  1.0578 -1.2512  0.2771
 1235SOL     OW 4612   3.208   0.444   3.036  0.5693 -0.1314 -0.5171
 1235SOL    HW1 4613   3.151   0.373   3.067  0.1594  0.6641  0.6441
 1235SOL    HW2 4614   3.242   0.413   2.953  0.4776 -1.7427  0.0024
 1236SOL     OW 4615   1.166   1.998   6.863  0.0566  0.3691 -0.1063
 1236SOL    HW1 4616   1.173   2.093   6.878  1.2150  0.3273 -0.3165
 1236SOL    HW2 4617   1.212   1.983   6.780  2.2961 -0.7190  1.2399
 1237SOL     OW 4618   0.220   6.443   5.320 -0.1981 -0.9070 -0.3543
 1237SOL    HW1 4619   0.286   6.511   5.335 -1.2681  0.2961 -0.9797
 1237SOL    HW2 4620   0.185   6.462   5.233 -1.3106 -1.5753 -0.0724
 1238SOL     OW 4621   1.516   0.168   3.654  0.6178 -0.6059 -0.5412
 1238SOL    HW1 4622   1.455   0.198   3.586 -0.2085  0.3541  0.5671
 1238SOL    HW2 4623   1.459   0.135   3.723  1.4606 -1.9693 -0.4819
 1239SOL     OW 4624   7.217   5.865   7.331 -0.7554 -0.1900  0.1349
 1239SOL    HW1 4625   7.173   5.846   7.414 -1.4831  2.2596  0.4011
 1239SOL    HW2 4626   7.187   5.796   7.272 -0.3472 -1.8966  1.8115
 1240SOL     OW 4627   6.649   0.377   7.583 -0.3965 -0.0150 -0.6217
 1240SOL    HW1 4628   6.674   0.297   7.536 -0.7104  0.4700 -1.6338
 1240SOL    HW2 4629   6.554   0.379   7.578 -0.5943 -0.8353  1.5408
 1241SOL     OW 4630   5.735   5.636   3.048 -0.1909  0.0757  0.2297
 1241SOL    HW1 4631   5.688   5.669   3.124 -1.8255  0.6197 -0.9435
 1241SOL    HW2 4632   5.683   5.562   3.018  1.4914 -1.3598  0.7388
 1242SOL     OW 4633   0.622   6.201   3.988  0.1600 -0.1975  0.1820
 1242SOL    HW1 4634   0.605   6.280   3.937 -0.7654 -1.3082 -1.2891
 1242SOL    HW2 4635   0.682   6.149   3.935  0.7831 -0.5086  1.1437
 1243SOL     OW 4636   2.331   4.258   1.531  0.6264  0.4252 -0.5854
 1243SOL    HW1 4637   2.416   4.278   1.570  0.4181 -2.0764  1.3768
 1243SOL    HW2 4638   2.271   4.253   1.606 -0.3128 -2.1689 -1.4052
 1244SOL     OW 4639   5.589   6.377   7.060 -0.1210  0.4710 -0.0750
 1244SOL    HW1 4640   5.657   6.309   7.060  0.8341  1.4026  0.0883
 1244SOL    HW2 4641   5.627   6.448   7.111 -1.5269  0.7317  0.6456
 1245SOL     OW 4642   2.194   0.729   7.659  0.1783 -0.1439  0.0180
 1245SOL    HW1 4643   2.146   0.657   7.618 -0.1612  0.2715 -0.3284
 1245SOL    HW2 4644   2.138   0.805   7.648  1.5458  0.6853 -1.7412
 1246SOL     OW 4645   5.798   1.542   6.678 -0.7488  0.4559  0.2904
 1246SOL    HW1 4646   5.719   1.587   6.647 -0.0467  1.9362  0.5316
 1246SOL    HW2 4647   5.861   1.552   6.606 -0.6731 -0.4517  0.2189
 1247SOL     OW 4648   3.823   1.306   3.885  0.0699 -0.2841  0.0384
 1247SOL    HW1 4649   3.916   1.300   3.865  0.3790 -0.4938  1.4830
 1247SOL    HW2 4650   3.780   1.265   3.809  1.0956  0.3678 -0.9318
 1248SOL     OW 4651   6.678   2.716   0.491 -0.1505  0.1820  0.3965
 1248SOL    HW1 4652   6.606   2.679   0.542 -0.0717  1.0871  1.1923
 1248SOL    HW2 4653   6.640   2.794   0.451  0.4142  0.7290  0.9180
 1249SOL     OW 4654   1.179   6.074   2.943 -0.0954  0.3173  0.0674
 1249SOL    HW1 4655   1.121   6.112   3.009  0.8943  1.9247  0.0868
 1249SOL    HW2 4656   1.200   6.148   2.886  1.8216 -0.2253  0.0108
 1250SOL     OW 4657   0.712   2.192   5.307 -0.0245 -0.3944 -0.2856
 1250SOL    HW1 4658   0.761   2.271   5.287 -0.3173  0.2044  1.1945
 1250SOL    HW2 4659   0.759   2.152   5.381 -1.2588 -0.2426  0.6180
 1251SOL     OW 4660   0.553   1.247   3.450  0.0043  0.5107 -0.3933
 1251SOL    HW1 4661   0.555   1.299   3.530 -0.9771  1.5851 -1.0352
 1251SOL    HW2 4662   0.507   1.302   3.387 -1.6126 -1.3627 -0.9519
 1252SOL     OW 4663   1.503   6.976   6.829 -0.4812 -0.6207  0.5801
 1252SOL    HW1 4664   1.498   6.882   6.843 -3.4328 -0.5059  0.9194
 1252SOL    HW2 4665   1.490   6.988   6.735  1.8246 -0.5765  0.2154
 1253SOL     OW 4666   3.085   2.287   3.180 -0.1790 -0.2320 -0.1443
 1253SOL    HW1 4667   3.127   2.344   3.244  0.6648 -1.1668  0.1789
 1253SOL    HW2 4668   3.089   2.200   3.219 -0.5089 -0.6767 -1.0571
 1254SOL     OW 4669   1.091   6.080   5.738 -0.2008 -0.7123 -0.5652
 1254SOL    HW1 4670   1.086   6.017   5.810  0.1503 -0.2163 -0.0982
 1254SOL    HW2 4671   1.000   6.106   5.723 -0.1639  0.1438  0.5736
 1255SOL     OW 4672   5.795   2.780   3.459  0.2994  0.9271  0.0146
 1255SOL    HW1 4673   5.839   2.705   3.500 -2.0991 -0.3692  0.3551
 1255SOL    HW2 4674   5.815   2.772   3.366 -1.5425 -1.3687 -0.2550
 1256SOL     OW 4675   1.062   5.912   4.483 -0.3646 -0.6790 -0.3409
 1256SOL    HW1 4676   0.968   5.918   4.470 -0.3484  0.0720 -0.1498
 1256SOL    HW2 4677   1.074   5.904   4.577 -0.2281 -0.5117 -0.3431
 1257SOL     OW 4678   1.061   4.900   5.950 -0.0435  0.4646 -0.0154
 1257SOL    HW1 4679   1.007   4.855   6.014 -0.3245  1.8981  0.7955
 1257SOL    HW2 4680   1.001   4.919   5.878  0.1256 -0.5989 -0.4557
 1258SOL     OW 4681   6.264   4.045   3.502 -0.2266 -0.2925 -0.1946
 1258SOL    HW1 4682   6.305   4.127   3.530  0.8496 -0.9393  0.2059
 1258SOL    HW2 4683   6.333   4.000   3.452 -1.1291 -0.5233 -1.2699
 1259SOL     OW 4684   6.789   0.288   1.972 -0.2665  0.2225  0.0301
 1259SOL    HW1 4685   6.838   0.283   2.054 -0.7067  0.5100  0.3134
 1259SOL    HW2 4686   6.781   0.382   1.955  1.3826  0.1604 -1.2883
 1260SOL     OW 4687   1.796   6.606   7.490  0.4047 -0.0980  0.5943
 1260SOL    HW1 4688   1.756   6.663   7.423 -0.9151 -0.1404  1.3229
 1260SOL    HW2 4689   1.797   6.519   7.450  0.6716  0.0799  0.2050
 1261SOL     OW 4690   1.556   3.564   6.146  0.5221 -0.3641  0.2680
 1261SOL    HW1 4691   1.568   3.631   6.079 -1.6047 -1.2077 -1.0805
 1261SOL    HW2 4692   1.478   3.592   6.194 -0.8515 -2.1162 -0.7812
 1262SOL     OW 4693   2.056   6.220   1.276 -0.2508  0.3095 -0.3716
 1262SOL    HW1 4694   2.097   6.146   1.320 -0.6358 -0.1431 -0.7717
 1262SOL    HW2 4695   1.969   6.189   1.251 -0.2271  0.7170 -0.9991
 1263SOL     OW 4696   1.145   0.174   6.192  0.3715 -0.1962 -0.5438
 1263SOL    HW1 4697   1.160   0.082   6.211 -0.2784  0.0893  1.5335
 1263SOL    HW2 4698   1.050   0.186   6.202  0.2924  0.5104 -1.8288
 1264SOL     OW 4699   3.267   0.704   1.592 -0.7953 -0.2590  0.0371
 1264SOL    HW1 4700   3.176   0.674   1.599 -1.5300  0.4096 -4.1241
 1264SOL    HW2 4701   3.260   0.799   1.581  0.6072  0.0235  1.2474
 1265SOL     OW 4702   1.703   7.727   4.036  0.1832  0.1330  0.2816
 1265SOL    HW1 4703   1.659   7.646   4.062  1.3122 -0.1543  1.3491
 1265SOL    HW2 4704   1.677   7.739   3.945 -1.9346 -0.1321  0.7851
 1266SOL     OW 4705   0.532   6.737   2.207  0.0986 -0.2963 -0.0833
 1266SOL    HW1 4706   0.556   6.732   2.300 -0.1353 -2.5835 -0.0868
 1266SOL    HW2 4707   0.613   6.715   2.161 -0.2188 -0.9101 -0.3503
 1267SOL     OW 4708   6.495   0.099   5.609  0.8731 -0.5334  0.4414
 1267SOL    HW1 4709   6.443   0.023   5.636 -0.3393  0.4832  1.1072
 1267SOL    HW2 4710   6.451   0.173   5.650  1.7602  0.5863 -0.5643
 1268SOL     OW 4711   7.586   7.550   5.943  0.0968  0.0627 -0.2935
 1268SOL    HW1 4712   7.514   7.494   5.914 -2.0005  3.3416 -2.0332
 1268SOL    HW2 4713   7.661   7.491   5.951 -2.0829 -3.0645 -1.1827
 1269SOL     OW 4714   1.302   7.577   1.240 -0.5283 -0.1818 -0.2422
 1269SOL    HW1 4715   1.373   7.515   1.256 -1.7692 -1.5774  0.0460
 1269SOL    HW2 4716   1.307   7.638   1.314  0.9199  0.3138 -0.7120
 1270SOL     OW 4717   2.126   0.118   1.694  0.0281 -0.4789  0.3857
 1270SOL    HW1 4718   2.186   0.105   1.767 -0.8023 -0.9448  1.0112
 1270SOL    HW2 4719   2.072   0.193   1.719  0.8993  0.5054 -0.5673
 1271SOL     OW 4720   1.528   1.335   2.564 -0.2241  0.3512 -0.5899
 1271SOL    HW1 4721   1.611   1.380   2.550  0.0247  0.1513  0.1677
 1271SOL    HW2 4722   1.466   1.379   2.507  0.4508  0.3676 -1.3219
 1272SOL     OW 4723   0.964   7.129   3.265 -0.1897  0.4624  0.5301
 1272SOL    HW1 4724   1.034   7.078   3.224  0.6018 -0.0420  2.4068
 1272SOL    HW2 4725   0.921   7.068   3.324  0.9470  1.9280  3.0249
 1273SOL     OW 4726   7.097   6.407   3.868 -0.4074  0.3909  0.1050
 1273SOL    HW1 4727   7.020   6.424   3.922 -1.1150  0.6306 -0.9418
 1273SOL    HW2 4728   7.119   6.491   3.829 -1.0298 -0.0910 -1.3787
 1274SOL     OW 4729   6.308   3.729   3.822 -0.2274  0.1471  0.2876
 1274SOL    HW1 4730   6.251   3.666   3.867  0.6131 -0.0718  1.0844
 1274SOL    HW2 4731   6.275   3.732   3.732 -0.4642 -1.2091  0.3167
 1275SOL     OW 4732   3.028   2.134   3.415 -0.1160  0.4085  0.0395
 1275SOL    HW1 4733   3.052   2.211   3.467 -0.8898  0.6995 -0.0192
 1275SOL    HW2 4734   2.996   2.071   3.479 -1.1721  0.8065 -0.0651
 1276SOL     OW 4735   2.483   5.633   5.915 -0.1181 -0.4976 -0.1376
 1276SOL    HW1 4736   2.402   5.673   5.884  0.5927  0.8678 -0.3070
 1276SOL    HW2 4737   2.541   5.707   5.934  0.4461 -1.3797  1.8015
 1277SOL     OW 4738   5.979   6.678   1.604  0.5870 -0.4696 -0.2352
 1277SOL    HW1 4739   6.064   6.697   1.643  1.0082 -1.0528 -0.8547
 1277SOL    HW2 4740   5.931   6.630   1.672  0.4553  0.5224  0.3963
 1278SOL     OW 4741   2.131   5.672   0.116  0.0615 -0.1113  0.2614
 1278SOL    HW1 4742   2.072   5.747   0.104  0.6039  0.0858 -1.3944
 1278SOL    HW2 4743   2.104   5.633   0.199 -1.2378  1.0104  0.3938
 1279SOL     OW 4744   2.198   1.914   6.654  0.8399 -0.2729  0.0141
 1279SOL    HW1 4745   2.202   1.949   6.565  0.3187  0.0994  0.1350
 1279SOL    HW2 4746   2.273   1.954   6.699 -1.2485  2.9861  0.9473
 1280SOL     OW 4747   6.136   4.161   4.589  0.1256  0.3011  0.3666
 1280SOL    HW1 4748   6.205   4.227   4.577  0.7156 -0.7485 -3.1199
 1280SOL    HW2 4749   6.087   4.162   4.507 -2.1390 -1.1553  1.5883
 1281SOL     OW 4750   7.535   1.824   6.786 -0.0797  0.1153  0.3274
 1281SOL    HW1 4751   7.570   1.768   6.717  1.0074  0.6135  0.4541
 1281SOL    HW2 4752   7.551   1.775   6.867  0.6153  0.4720  0.4123
 1282SOL     OW 4753   1.491   1.414   2.229 -0.3201  0.2832  0.1531
 1282SOL    HW1 4754   1.463   1.490   2.178 -0.7591 -0.3864 -0.6170
 1282SOL    HW2 4755   1.474   1.440   2.320  0.6526  1.5503 -0.0072
 1283SOL     OW 4756   7.579   3.423   6.533 -0.5910 -0.4572  0.6873
 1283SOL    HW1 4757   7.632   3.343   6.535 -3.7325 -2.7513  0.0233
 1283SOL    HW2 4758   7.617   3.479   6.601  1.8240 -2.4326  1.0972
 1284SOL     OW 4759   3.580   2.482   6.580 -0.0526 -0.0884 -0.0347
 1284SOL    HW1 4760   3.495   2.454   6.616 -0.7604 -0.4910 -1.9107
 1284SOL    HW2 4761   3.597   2.420   6.509  1.3046  0.6596 -0.3880
 1285SOL     OW 4762   0.865   4.172   7.150 -0.2508  0.1733  0.2935
 1285SOL    HW1 4763   0.891   4.244   7.208  0.4937  0.2557 -0.1286
 1285SOL    HW2 4764   0.837   4.102   7.209  2.3401 -0.4843  0.8822
 1286SOL     OW 4765   4.602   2.083   7.355 -0.4897 -0.5785 -0.6018
 1286SOL    HW1 4766   4.687   2.053   7.388 -1.3409 -1.0705  1.3001
 1286SOL    HW2 4767   4.604   2.062   7.262  1.7582  0.1482 -0.7762
 1287SOL     OW 4768   7.535   5.205   5.736  0.1590 -0.0499  0.5634
 1287SOL    HW1 4769   7.622   5.175   5.709  0.4053  1.3456 -0.3048
 1287SOL    HW2 4770   7.476   5.134   5.713  1.1144 -1.1807  1.5245
 1288SOL     OW 4771   6.022   0.986   7.667  0.1815  0.1657  0.1121
 1288SOL    HW1 4772   6.079   0.982   7.591  2.0667  1.1441  1.4112
 1288SOL    HW2 4773   6.023   0.898   7.703  0.9436  0.1994  0.1714
 1289SOL     OW 4774   2.250   5.498   2.440 -0.3844  0.2504  0.1129
 1289SOL    HW1 4775   2.324   5.469   2.493 -0.8443 -0.0219  0.6144
 1289SOL    HW2 4776   2.177   5.504   2.502 -1.4764 -2.0644 -0.8123
 1290SOL     OW 4777   5.341   1.523   4.143 -0.2714  0.1877 -0.1892
 1290SOL    HW1 4778   5.413   1.518   4.080  1.2781  0.5532  1.4727
 1290SOL    HW2 4779   5.263   1.504   4.091  1.0703 -0.9480 -1.9399
 1291SOL     OW 4780   0.699   2.100   0.025  0.0094 -0.1272  0.3330
 1291SOL    HW1 4781   0.775   2.055  -0.012 -0.0376  0.9978 -1.2076
 1291SOL    HW2 4782   0.667   2.040   0.093  2.0851 -0.7426  0.8331
 1292SOL     OW 4783   4.730   2.589   2.528  0.5886  0.6415  0.3072
 1292SOL    HW1 4784   4.643   2.551   2.540  0.2669  1.5217  0.8577
 1292SOL    HW2 4785   4.714   2.679   2.499  1.3307  0.5297 -0.4909
 1293SOL     OW 4786   0.198   7.252   2.883  0.2409  0.0781 -0.2003
 1293SOL    HW1 4787   0.139   7.263   2.958  0.2370  1.4035 -0.3795
 1293SOL    HW2 4788   0.285   7.246   2.922  0.0736 -1.2789  0.0234
 1294SOL     OW 4789   4.708   3.045   6.556  0.0110 -1.1907  0.5186
 1294SOL    HW1 4790   4.748   3.125   6.590 -0.2825 -0.9469  0.2991
 1294SOL    HW2 4791   4.653   3.013   6.628 -0.0215 -1.0883  0.5395
 1295SOL     OW 4792   2.374   2.072   1.594  0.2083  0.3864 -0.0999
 1295SOL    HW1 4793   2.347   2.161   1.616 -0.6881 -0.2060  1.3653
 1295SOL    HW2 4794   2.462   2.064   1.631 -0.3857  0.1465  1.3369
 1296SOL     OW 4795   3.869   5.035   7.010  0.6795 -0.1252 -0.3015
 1296SOL    HW1 4796   3.876   5.069   6.921 -1.8778 -0.8890 -0.8897
 1296SOL    HW2 4797   3.856   4.941   6.999  0.3768 -0.2363  0.8537
 1297SOL     OW 4798   0.403   6.316   0.142 -0.0050  0.5064  0.6723
 1297SOL    HW1 4799   0.440   6.269   0.216 -0.1501  0.2633  0.5901
 1297SOL    HW2 4800   0.309   6.321   0.159 -0.4573 -1.8528 -0.7294
 1298SOL     OW 4801   1.746   0.996   1.733  0.1317 -0.1947  0.8206
 1298SOL    HW1 4802   1.717   0.905   1.741  2.0312 -1.2513 -2.5196
 1298SOL    HW2 4803   1.823   1.002   1.790  0.9419 -1.2224 -0.1112
 1299SOL     OW 4804   6.950   0.749   5.471 -0.3691  0.3106  0.2009
 1299SOL    HW1 4805   6.885   0.682   5.448  0.1193 -0.6202  1.4040
 1299SOL    HW2 4806   6.920   0.783   5.555  0.5906 -0.0179  0.6923
 1300SOL     OW 4807   0.003   3.038   2.340 -0.6116 -0.2367  0.2416
 1300SOL    HW1 4808  -0.060   2.969   2.323  0.0786 -0.6583 -0.7026
 1300SOL    HW2 4809   0.002   3.092   2.261  0.0659 -0.1372  0.2936
 1301SOL     OW 4810   5.800   0.436   6.857 -0.6864  0.7344  0.4860
 1301SOL    HW1 4811   5.817   0.457   6.765 -0.3819  0.1196  0.3977
 1301SOL    HW2 4812   5.714   0.393   6.856 -0.4999  0.3594  0.4335
 1302SOL     OW 4813   5.122   7.349   2.044 -0.3379  0.3002  0.0958
 1302SOL    HW1 4814   5.094   7.326   1.955 -1.6751  0.0471  0.5482
 1302SOL    HW2 4815   5.050   7.403   2.078 -0.7494 -1.1564  1.6593
 1303SOL     OW 4816   0.967   1.847   5.368  0.0306  0.2789  0.2415
 1303SOL    HW1 4817   1.017   1.827   5.289  0.1135  0.3960  0.2646
 1303SOL    HW2 4818   1.033   1.861   5.436 -0.0347  0.3758  0.2851
 1304SOL     OW 4819   4.569   7.157   2.859  0.1408 -0.1885  0.6817
 1304SOL    HW1 4820   4.526   7.111   2.787  1.5131 -0.9131  0.2948
 1304SOL    HW2 4821   4.554   7.101   2.935  0.8480 -0.7242  0.4363
 1305SOL     OW 4822   5.963   1.958   6.755 -0.2222  0.1583 -0.0444
 1305SOL    HW1 4823   5.970   1.944   6.661 -0.7792 -0.3607 -0.0148
 1305SOL    HW2 4824   5.876   1.995   6.768  0.3610  1.5229  0.1336
 1306SOL     OW 4825   6.298   0.909   7.098  0.0265 -0.2714  0.2827
 1306SOL    HW1 4826   6.257   0.926   7.013 -0.0599 -0.7430  0.2272
 1306SOL    HW2 4827   6.302   0.995   7.140 -0.9755 -0.2055  0.2643
 1307SOL     OW 4828   3.867   3.170   7.302  0.4624  0.4506 -0.1021
 1307SOL    HW1 4829   3.916   3.127   7.233  0.7042 -0.5520  0.6714
 1307SOL    HW2 4830   3.931   3.181   7.373  0.3577  1.9069 -0.1987
 1308SOL     OW 4831   1.051   4.458   4.958  0.0561  0.1563 -0.2040
 1308SOL    HW1 4832   0.958   4.437   4.966  0.3813 -1.3674 -0.1639
 1308SOL    HW2 4833   1.096   4.375   4.970  1.4878  1.0069  0.7076
 1309SOL     OW 4834   6.644   0.527   6.183  0.7232 -0.2820  0.0711
 1309SOL    HW1 4835   6.642   0.623   6.173 -1.0320 -0.4248 -1.3223
 1309SOL    HW2 4836   6.613   0.512   6.272 -0.0554  0.4167 -0.0691
 1310SOL     OW 4837   1.225   7.131   4.974  0.3081 -0.5843 -0.2346
 1310SOL    HW1 4838   1.312   7.167   4.959  0.2651 -0.1090  0.5736
 1310SOL    HW2 4839   1.220   7.121   5.070  0.4092 -2.9681 -0.4179
 1311SOL     OW 4840   1.374   0.951   7.578 -0.7748  0.0947  0.0959
 1311SOL    HW1 4841   1.335   0.901   7.650 -1.0281  0.6317  0.3402
 1311SOL    HW2 4842   1.390   0.887   7.509  0.7648 -0.7028  1.1312
 1312SOL     OW 4843   6.524   7.742   2.601 -0.4514 -0.1799 -0.1763
 1312SOL    HW1 4844   6.591   7.781   2.545  1.4283 -0.0241  2.0372
 1312SOL    HW2 4845   6.525   7.795   2.681 -2.1179 -1.1512  0.5441
 1313SOL     OW 4846   6.997   2.424   7.612 -0.0195 -0.3509  0.0273
 1313SOL    HW1 4847   6.989   2.492   7.679 -2.7504 -0.4764 -0.0455
 1313SOL    HW2 4848   6.985   2.470   7.529  1.9412 -0.4125 -0.3397
 1314SOL     OW 4849   0.145   5.845   2.443  0.8617  0.4325  0.1867
 1314SOL    HW1 4850   0.115   5.755   2.458  0.1428  0.7164  0.4668
 1314SOL    HW2 4851   0.210   5.836   2.373 -0.4206 -0.1004 -0.9845
 1315SOL     OW 4852   1.336   6.641   7.290  0.0441 -0.2960  0.5049
 1315SOL    HW1 4853   1.384   6.568   7.330 -1.2388 -0.6301  1.4946
 1315SOL    HW2 4854   1.346   6.713   7.353  0.2778  0.0240  0.1121
 1316SOL     OW 4855   0.179   0.297   5.398 -0.0704  0.1005 -0.4551
 1316SOL    HW1 4856   0.267   0.332   5.384  1.5015 -2.8827  0.8474
 1316SOL    HW2 4857   0.130   0.368   5.439  1.8383  1.7258 -0.8452
 1317SOL     OW 4858   2.611   7.080   4.739  0.1918  0.2485 -0.2568
 1317SOL    HW1 4859   2.689   7.112   4.695  0.0906  0.9744  0.0830
 1317SOL    HW2 4860   2.634   6.990   4.765  0.0072 -0.4485 -2.3504
 1318SOL     OW 4861   4.452   5.329   7.273  0.0749  0.3716  0.1576
 1318SOL    HW1 4862   4.390   5.385   7.319  0.0791 -0.6323  1.4464
 1318SOL    HW2 4863   4.500   5.284   7.343 -0.1454 -1.4761 -0.8218
 1319SOL     OW 4864   6.233   0.814   4.410 -0.1888 -0.3773 -0.0953
 1319SOL    HW1 4865   6.324   0.816   4.380  0.0308  0.0317  0.5774
 1319SOL    HW2 4866   6.212   0.721   4.417  0.3657 -0.4754  0.3045
 1320SOL     OW 4867   2.936   2.961   6.447  0.3530 -0.3919  0.1747
 1320SOL    HW1 4868   2.901   2.952   6.358 -0.7618 -0.4768  0.6093
 1320SOL    HW2 4869   2.904   2.884   6.493  1.3688 -0.6175  0.5236
 1321SOL     OW 4870   4.161   6.341   1.919  0.2253  0.6791  0.4105
 1321SOL    HW1 4871   4.101   6.332   1.845  1.1351  3.9244 -0.8853
 1321SOL    HW2 4872   4.105   6.338   1.996 -0.6880 -3.5052 -0.1466
 1322SOL     OW 4873   1.291   6.310   3.620  0.0171  0.1939  0.6238
 1322SOL    HW1 4874   1.361   6.340   3.563 -0.3877 -0.4277 -0.2094
 1322SOL    HW2 4875   1.321   6.332   3.709  2.4215 -2.3519  0.5406
 1323SOL     OW 4876   6.459   3.410   6.311 -0.2654  0.2053 -0.5224
 1323SOL    HW1 4877   6.443   3.426   6.404  1.5900  2.1157 -0.4491
 1323SOL    HW2 4878   6.511   3.330   6.309 -2.2957 -1.2058 -0.1663
 1324SOL     OW 4879   7.508   6.189   4.309  0.3521  0.7898  0.0341
 1324SOL    HW1 4880   7.489   6.116   4.368  2.6498 -1.1330 -1.3985
 1324SOL    HW2 4881   7.461   6.167   4.228  1.7445  0.4029 -0.6921
 1325SOL     OW 4882   4.348   6.541   1.743 -0.3856  0.4215 -0.6084
 1325SOL    HW1 4883   4.297   6.591   1.806 -0.5057  0.3938 -0.6828
 1325SOL    HW2 4884   4.291   6.535   1.666 -0.9780 -1.0866 -0.0928
 1326SOL     OW 4885   6.602   1.072   2.310  0.5546 -0.3339  0.4253
 1326SOL    HW1 4886   6.656   1.145   2.280  1.9587 -1.4987  0.0601
 1326SOL    HW2 4887   6.575   1.098   2.399 -0.5824  1.4614 -0.3622
 1327SOL     OW 4888   7.075   1.514   1.269  0.4156 -0.4660  0.3170
 1327SOL    HW1 4889   7.155   1.473   1.303  0.4629  1.3277  2.6332
 1327SOL    HW2 4890   7.004   1.460   1.305  0.5405 -0.3195  0.7979
 1328SOL     OW 4891   1.562   0.542   5.796 -0.5612 -0.2510 -0.0767
 1328SOL    HW1 4892   1.627   0.485   5.837 -1.2432 -1.6744 -0.8870
 1328SOL    HW2 4893   1.609   0.581   5.722 -0.4888 -0.9532 -0.4144
 1329SOL     OW 4894   7.432   2.365   2.796  0.1242  0.0127  0.0519
 1329SOL    HW1 4895   7.416   2.282   2.841 -0.7904  0.0042 -0.2615
 1329SOL    HW2 4896   7.470   2.339   2.712  0.8954 -0.0219  0.4045
 1330SOL     OW 4897   1.921   2.972   6.993 -0.1222  0.2124 -0.4041
 1330SOL    HW1 4898   1.974   2.928   7.060  0.1659 -0.8262 -1.2805
 1330SOL    HW2 4899   1.832   2.939   7.007 -0.7220  2.3809  1.4258
 1331SOL     OW 4900   6.754   7.044   5.390 -0.4669 -0.7824 -0.2278
 1331SOL    HW1 4901   6.814   7.073   5.322  0.2633 -0.0087  0.7122
 1331SOL    HW2 4902   6.810   7.001   5.455 -1.2051 -1.9213 -0.3277
 1332SOL     OW 4903   1.396   1.940   1.822 -0.7926 -0.0953  0.5172
 1332SOL    HW1 4904   1.489   1.961   1.832 -0.8079  0.1662  0.1498
 1332SOL    HW2 4905   1.382   1.864   1.878 -0.4400  0.0883  0.8594
 1333SOL     OW 4906   3.812   4.765   7.043 -0.1403 -0.0236 -0.1162
 1333SOL    HW1 4907   3.845   4.716   7.119  0.1635 -0.7008 -0.6695
 1333SOL    HW2 4908   3.733   4.718   7.017 -1.0598  1.0568  0.6437
 1334SOL     OW 4909   5.401   6.344   4.796 -0.0558 -0.2526  0.6209
 1334SOL    HW1 4910   5.405   6.249   4.802 -0.9165 -0.3241  0.2651
 1334SOL    HW2 4911   5.348   6.361   4.718  0.9103  0.5335  0.1153
 1335SOL     OW 4912   6.345   7.391   6.556  0.4795  0.0100  0.4747
 1335SOL    HW1 4913   6.368   7.473   6.513  2.9363 -2.1033 -2.7546
 1335SOL    HW2 4914   6.323   7.331   6.485  3.1560 -3.3236  2.0965
 1336SOL     OW 4915   4.714   1.439   2.401  0.2687 -0.7712 -0.3943
 1336SOL    HW1 4916   4.675   1.458   2.315 -0.7531  1.7972  0.5487
 1336SOL    HW2 4917   4.772   1.513   2.418  1.6594 -1.9940  0.5261
 1337SOL     OW 4918   3.772   1.610   0.181  0.5527  0.2095  0.3630
 1337SOL    HW1 4919   3.740   1.525   0.211 -0.9698  0.5267 -0.2662
 1337SOL    HW2 4920   3.820   1.590   0.100  1.8103 -0.2430  1.1904
 1338SOL     OW 4921   7.678   5.681   2.216  0.0027  1.3531  0.2684
 1338SOL    HW1 4922   7.707   5.590   2.216  1.3753  1.7349 -1.3445
 1338SOL    HW2 4923   7.590   5.678   2.254 -1.0212 -1.0179 -1.9309
 1339SOL     OW 4924   0.341   2.771   4.129 -0.4534  0.7139  0.6573
 1339SOL    HW1 4925   0.267   2.716   4.102  0.4621 -0.5360  0.5955
 1339SOL    HW2 4926   0.340   2.768   4.224  1.1672 -1.7502  0.7154
 1340SOL     OW 4927   6.194   6.416   3.116 -0.1324  0.2255  0.3944
 1340SOL    HW1 4928   6.247   6.337   3.126  1.6372  0.8235 -2.7251
 1340SOL    HW2 4929   6.148   6.403   3.033  1.9097  3.1881 -1.4198
 1341SOL     OW 4930   3.347   4.276   6.784  0.5948 -0.7225  0.1834
 1341SOL    HW1 4931   3.301   4.226   6.716  0.4047 -1.4435  0.8168
 1341SOL    HW2 4932   3.295   4.355   6.794  0.3862 -0.8029 -0.2145
 1342SOL     OW 4933   7.740   4.737   1.151 -0.4954  0.2714  0.1967
 1342SOL    HW1 4934   7.755   4.817   1.101 -2.1489  0.1924 -0.4720
 1342SOL    HW2 4935   7.809   4.738   1.218  1.2473  0.8092 -1.5171
 1343SOL     OW 4936   6.180   3.767   4.247  0.2386 -0.3797 -0.2131
 1343SOL    HW1 4937   6.089   3.796   4.236  0.6615  0.3425 -2.3290
 1343SOL    HW2 4938   6.220   3.836   4.301 -0.4595 -0.7596  0.8293
 1344SOL     OW 4939   2.065   3.864   6.516 -0.3083 -0.3555  0.6181
 1344SOL    HW1 4940   2.152   3.836   6.488 -0.2218 -1.6273  2.0223
 1344SOL    HW2 4941   2.013   3.865   6.436  0.6783 -0.7804 -0.0540
 1345SOL     OW 4942   6.110   0.041   1.260 -0.0987  0.9592 -0.5301
 1345SOL    HW1 4943   6.084  -0.010   1.336 -1.0688  0.1423 -1.3665
 1345SOL    HW2 4944   6.093   0.132   1.285  1.3736  0.8853  0.8712
 1346SOL     OW 4945   5.510   3.161   0.821 -0.2501  0.7050  0.4039
 1346SOL    HW1 4946   5.554   3.086   0.861 -0.7267 -0.0811 -0.5212
 1346SOL    HW2 4947   5.480   3.213   0.896  0.3774  0.1552  1.0558
 1347SOL     OW 4948   6.394   5.336   4.314 -0.0188 -0.5448 -0.5264
 1347SOL    HW1 4949   6.426   5.384   4.238 -0.7638  0.8377  0.0004
 1347SOL    HW2 4950   6.467   5.334   4.375 -0.1247  0.3648 -0.3587
 1348SOL     OW 4951   6.078   1.759   2.659 -0.2063  0.4534  0.3183
 1348SOL    HW1 4952   6.011   1.827   2.657 -0.3338  0.3291  0.3043
 1348SOL    HW2 4953   6.058   1.704   2.583 -1.3111 -0.7351  1.4167
 1349SOL     OW 4954   3.200   5.995   3.557  0.0810  0.0751  0.2577
 1349SOL    HW1 4955   3.111   6.020   3.533  0.3364  1.2248  0.4529
 1349SOL    HW2 4956   3.255   6.035   3.490  0.5043  0.0113  0.5637
 1350SOL     OW 4957   3.033   5.000   1.920  0.3878  0.0284 -0.6090
 1350SOL    HW1 4958   3.043   5.072   1.982  0.4155  0.2849 -0.9117
 1350SOL    HW2 4959   3.107   5.009   1.860  0.9667 -0.8456 -0.0509
 1351SOL     OW 4960   4.628   6.306   3.414  0.5724  0.3495 -0.8039
 1351SOL    HW1 4961   4.596   6.396   3.423 -4.1055 -1.2138  1.3087
 1351SOL    HW2 4962   4.646   6.278   3.504 -0.0777 -1.4032 -1.1743
 1352SOL     OW 4963   5.711   3.204   2.583  0.1982  0.0703 -0.3437
 1352SOL    HW1 4964   5.793   3.163   2.610 -1.0972 -0.8918  2.6904
 1352SOL    HW2 4965   5.645   3.135   2.596 -1.4149  1.5990 -0.0382
 1353SOL     OW 4966   2.083   4.837   6.423  0.0131  0.2472  0.1697
 1353SOL    HW1 4967   2.046   4.878   6.345 -0.0603  0.4762  0.3260
 1353SOL    HW2 4968   2.136   4.905   6.463 -1.0216  0.5560  1.0565
 1354SOL     OW 4969   2.547   5.667   4.533 -0.1018  0.6023  0.1606
 1354SOL    HW1 4970   2.538   5.725   4.608  2.0901  0.2352  0.8077
 1354SOL    HW2 4971   2.596   5.718   4.469  0.0830  0.1533 -0.0636
 1355SOL     OW 4972   4.249   1.942   6.873  0.1308  0.3585 -0.1313
 1355SOL    HW1 4973   4.163   1.912   6.842  0.7381 -0.1011 -1.4544
 1355SOL    HW2 4974   4.229   1.997   6.948 -1.3055 -0.0224 -0.1976
 1356SOL     OW 4975   1.838   0.430   5.864  0.4545 -0.1990 -0.7124
 1356SOL    HW1 4976   1.809   0.398   5.778  1.6656  1.1975 -1.6799
 1356SOL    HW2 4977   1.822   0.524   5.861 -0.0656 -0.2140  0.8630
 1357SOL     OW 4978   5.667   0.632   5.539 -0.1770 -0.0610 -0.3941
 1357SOL    HW1 4979   5.705   0.626   5.451  0.1442 -1.5737 -0.1853
 1357SOL    HW2 4980   5.581   0.591   5.530 -0.8542  1.2882 -0.3473
 1358SOL     OW 4981   1.042   7.724   4.554  0.0495  0.1913 -0.5287
 1358SOL    HW1 4982   1.004   7.808   4.578 -0.3303 -0.4604  1.2451
 1358SOL    HW2 4983   1.113   7.710   4.617  1.7325  0.2679 -2.2947
 1359SOL     OW 4984   3.928   3.980   4.037 -0.3622  0.1921  0.3105
 1359SOL    HW1 4985   3.840   3.945   4.050 -0.8384  1.6458  1.2223
 1359SOL    HW2 4986   3.966   3.985   4.125  0.5878 -0.2798 -0.0555
 1360SOL     OW 4987   5.714   3.854   1.479  0.2304 -0.2471 -0.1022
 1360SOL    HW1 4988   5.802   3.885   1.500  0.9604 -1.6548 -0.9761
 1360SOL    HW2 4989   5.715   3.761   1.502 -0.1517 -0.9354 -2.6283
 1361SOL     OW 4990   3.742   3.182   1.117  0.1906  0.5112 -0.4299
 1361SOL    HW1 4991   3.759   3.113   1.181  0.3566  1.1449  0.2167
 1361SOL    HW2 4992   3.826   3.196   1.073  0.0061 -0.1267 -0.9971
 1362SOL     OW 4993   5.853   7.501   7.530  0.0255 -0.1080  0.2997
 1362SOL    HW1 4994   5.814   7.457   7.606 -0.1465  1.1079  0.9594
 1362SOL    HW2 4995   5.933   7.542   7.565  1.7256 -2.1762 -0.9294
 1363SOL     OW 4996   3.569   6.022   0.511  0.6917 -0.1630  0.4043
 1363SOL    HW1 4997   3.493   6.002   0.457  0.5295 -0.0981  0.6126
 1363SOL    HW2 4998   3.583   5.944   0.564  1.1747 -0.4362 -0.1115
 1364SOL     OW 4999   4.035   0.681   2.946 -0.2581 -0.0928 -0.4123
 1364SOL    HW1 5000   3.979   0.724   2.881 -0.0600 -0.4780 -0.8506
 1364SOL    HW2 5001   4.050   0.594   2.909 -1.5595 -0.9514  0.9704
 1365SOL     OW 5002   6.436   0.305   7.256  0.4514 -0.8525  0.0440
 1365SOL    HW1 5003   6.371   0.265   7.198  1.6327 -1.4037 -0.9591
 1365SOL    HW2 5004   6.413   0.274   7.343 -0.8601 -0.7025 -0.2348
 1366SOL     OW 5005   0.208   7.305   0.625  0.0529  0.0915 -0.5512
 1366SOL    HW1 5006   0.263   7.232   0.597  0.2810 -0.0751  0.3024
 1366SOL    HW2 5007   0.131   7.263   0.663 -0.8672  0.3243 -2.0884
 1367SOL     OW 5008   6.680   1.597   1.264  0.1734 -0.0493  0.4490
 1367SOL    HW1 5009   6.718   1.679   1.233 -2.2892  1.8192  1.9528
 1367SOL    HW2 5010   6.602   1.584   1.209 -0.2182 -0.6262  1.1135
 1368SOL     OW 5011   4.642   7.496   2.019  0.2463 -0.6010 -0.1710
 1368SOL    HW1 5012   4.614   7.585   1.996 -1.9960 -1.2604 -0.2037
 1368SOL    HW2 5013   4.639   7.448   1.937  0.3116 -1.0005  0.0588
 1369SOL     OW 5014   0.890   6.506   6.462  0.2784 -0.3013 -0.6572
 1369SOL    HW1 5015   0.867   6.530   6.372 -1.9230 -0.2363 -0.1404
 1369SOL    HW2 5016   0.806   6.486   6.503  1.2689 -0.6377  1.3114
 1370SOL     OW 5017   3.061   4.687   7.577  0.0689 -0.2308  0.4693
 1370SOL    HW1 5018   3.118   4.758   7.547 -0.5108  0.0360 -0.0162
 1370SOL    HW2 5019   2.994   4.679   7.509 -0.5743 -0.4278  1.1076
 1371SOL     OW 5020   1.099   1.156   1.975 -0.2021 -0.8120 -0.1652
 1371SOL    HW1 5021   1.181   1.160   1.927 -0.3348 -1.7458 -0.4874
 1371SOL    HW2 5022   1.098   1.069   2.015 -0.9828 -0.7757 -0.0859
 1372SOL     OW 5023   2.285   5.808   7.268  0.2307  0.5754 -0.3557
 1372SOL    HW1 5024   2.320   5.874   7.329  0.3867  0.2262 -0.0620
 1372SOL    HW2 5025   2.345   5.810   7.193 -1.1902  2.5778 -1.5392
 1373SOL     OW 5026   0.648   6.821   6.260 -0.3922  0.4698  0.6265
 1373SOL    HW1 5027   0.710   6.835   6.331  0.7997 -2.2304  0.2277
 1373SOL    HW2 5028   0.690   6.859   6.183  0.5531 -0.8154  0.4786
 1374SOL     OW 5029   5.803   6.912   7.405 -0.2322  0.1310 -0.0420
 1374SOL    HW1 5030   5.870   6.909   7.337  0.1980 -1.8708  0.4044
 1374SOL    HW2 5031   5.720   6.915   7.357  0.0272 -1.9964 -0.7623
 1375SOL     OW 5032   0.947   5.825   7.125  0.4378  0.3404 -0.2196
 1375SOL    HW1 5033   0.861   5.826   7.166 -0.6046 -2.3090 -2.0812
 1375SOL    HW2 5034   0.976   5.734   7.129  0.8826  0.1546 -3.8681
 1376SOL     OW 5035   6.334   5.064   0.157  0.0246  0.2812  0.0438
 1376SOL    HW1 5036   6.277   5.117   0.102  0.1141 -0.8067 -1.1686
 1376SOL    HW2 5037   6.401   5.031   0.096 -0.0662 -1.2366  0.7100
 1377SOL     OW 5038   5.718   7.672   6.217 -0.6525  0.3006 -0.3361
 1377SOL    HW1 5039   5.743   7.645   6.129  0.9986 -1.7300  0.6915
 1377SOL    HW2 5040   5.703   7.767   6.210 -0.5922  0.1816 -2.7618
 1378SOL     OW 5041   0.681   1.498   4.933  0.2953  0.5243  0.1121
 1378SOL    HW1 5042   0.586   1.504   4.929  0.2214 -0.2725  0.4308
 1378SOL    HW2 5043   0.705   1.440   4.861  0.5361  0.6440  0.0929
 1379SOL     OW 5044   2.922   5.413   2.285 -0.0627 -0.4267  0.7613
 1379SOL    HW1 5045   2.897   5.417   2.192  0.6193  1.3062  0.6261
 1379SOL    HW2 5046   2.910   5.321   2.308  0.2965 -1.0207 -1.1973
 1380SOL     OW 5047   4.334   0.295   1.049  0.1179 -0.3153 -0.2797
 1380SOL    HW1 5048   4.276   0.312   1.123 -1.4221  3.4733 -2.1018
 1380SOL    HW2 5049   4.422   0.293   1.087 -0.7797 -2.2968  2.0175
 1381SOL     OW 5050   7.746   0.768   2.053  0.3366  0.0406  0.0774
 1381SOL    HW1 5051   7.730   0.678   2.081 -0.3187 -0.0919 -0.7055
 1381SOL    HW2 5052   7.826   0.793   2.100  0.8099 -1.1128 -0.0786
 1382SOL     OW 5053   6.001   4.376   1.969 -0.1279  0.4497 -0.6610
 1382SOL    HW1 5054   6.077   4.358   2.025 -1.0247 -0.8199  0.1996
 1382SOL    HW2 5055   6.021   4.332   1.886  0.1822  0.3264 -0.5212
 1383SOL     OW 5056   6.185   6.936   2.629  0.4459 -0.0552 -0.2904
 1383SOL    HW1 5057   6.194   6.841   2.625 -1.3782 -0.2898  0.1411
 1383SOL    HW2 5058   6.098   6.953   2.594 -0.1126  1.2496  1.5826
 1384SOL     OW 5059   5.873   0.558   4.344  0.1369  0.2266  0.3994
 1384SOL    HW1 5060   5.815   0.583   4.416  1.0366  2.1328  0.5155
 1384SOL    HW2 5061   5.842   0.610   4.270  0.7777  0.1429  0.0718
 1385SOL     OW 5062   0.052   5.701   6.787 -0.1225  0.2106 -0.0496
 1385SOL    HW1 5063   0.092   5.617   6.808 -0.7750  0.3350  1.9377
 1385SOL    HW2 5064   0.123   5.764   6.797 -0.2077  0.1570  1.0307
 1386SOL     OW 5065   6.636   1.777   2.728  0.2622 -0.2913 -0.2082
 1386SOL    HW1 5066   6.563   1.804   2.672  0.2213 -0.8754 -0.4495
 1386SOL    HW2 5067   6.634   1.681   2.725  1.6696 -0.3274 -1.0743
 1387SOL     OW 5068   4.888   0.551   5.249  0.3735 -0.4504  0.5503
 1387SOL    HW1 5069   4.960   0.574   5.307 -0.1375  1.0339  0.6398
 1387SOL    HW2 5070   4.911   0.590   5.165 -1.0982  1.6327  1.0325
 1388SOL     OW 5071   5.400   1.207   1.450 -0.1872 -0.0235 -0.0653
 1388SOL    HW1 5072   5.390   1.247   1.536  3.6850 -0.3368  0.7411
 1388SOL    HW2 5073   5.432   1.279   1.394  1.1879 -0.6374 -0.1155
 1389SOL     OW 5074   6.997   0.214   4.852 -0.6784 -0.6532 -0.5223
 1389SOL    HW1 5075   7.028   0.297   4.888  2.0682 -1.5887 -0.4834
 1389SOL    HW2 5076   7.011   0.222   4.758 -1.4256 -0.7131 -0.6480
 1390SOL     OW 5077   0.909   0.624   3.767 -0.2650  0.1156 -0.0353
 1390SOL    HW1 5078   0.914   0.720   3.760  0.5289  0.1991  1.3270
 1390SOL    HW2 5079   0.816   0.604   3.753 -0.3680  1.0241 -0.7992
 1391SOL     OW 5080   0.386   1.253   6.765 -0.0124  0.2448 -0.1914
 1391SOL    HW1 5081   0.305   1.249   6.715  0.6095  0.9138 -1.3052
 1391SOL    HW2 5082   0.448   1.200   6.714  0.0127 -1.1268  1.1728
 1392SOL     OW 5083   4.050   0.737   5.193 -0.2008 -0.0530 -0.1450
 1392SOL    HW1 5084   4.089   0.784   5.119 -1.0340  0.8700 -0.0091
 1392SOL    HW2 5085   3.999   0.666   5.153 -1.6702  1.1877 -0.5547
 1393SOL     OW 5086   4.000   2.726   1.212 -0.7721  0.1210 -0.1488
 1393SOL    HW1 5087   3.972   2.653   1.158  1.9458  0.0947 -1.7506
 1393SOL    HW2 5088   4.067   2.689   1.270  1.5915  1.4487 -1.8734
 1394SOL     OW 5089   3.647   4.941   1.490 -0.2674  0.0035  0.1850
 1394SOL    HW1 5090   3.588   5.008   1.455  0.5763  0.2287 -0.8719
 1394SOL    HW2 5091   3.725   4.990   1.516  0.3773 -0.5561 -0.6384
 1395SOL     OW 5092   0.805   4.763   1.673 -0.3156  0.1647 -0.0458
 1395SOL    HW1 5093   0.722   4.719   1.652 -0.8026  1.2921 -0.5950
 1395SOL    HW2 5094   0.786   4.856   1.659  0.7400  0.5311  0.8866
 1396SOL     OW 5095   1.548   2.694   2.319  0.8709 -0.8993 -0.0568
 1396SOL    HW1 5096   1.529   2.775   2.271 -1.9299 -2.1083 -1.1895
 1396SOL    HW2 5097   1.641   2.679   2.304  1.1897  1.4119 -0.8612
 1397SOL     OW 5098   5.876   5.250   0.364  0.0250 -0.0583 -0.3557
 1397SOL    HW1 5099   5.871   5.220   0.273 -2.5520 -0.1565 -0.2650
 1397SOL    HW2 5100   5.969   5.265   0.380  0.8250 -2.4775 -2.1956
 1398SOL     OW 5101   3.585   2.940   7.206 -0.2603  0.7248  0.0511
 1398SOL    HW1 5102   3.602   2.897   7.122 -2.3319 -1.9431  0.8482
 1398SOL    HW2 5103   3.490   2.931   7.219 -0.7280  4.6681  0.9120
 1399SOL     OW 5104   6.556   7.025   5.640 -0.6446  0.0075  0.0641
 1399SOL    HW1 5105   6.515   6.965   5.703  0.5477 -0.1567  0.6981
 1399SOL    HW2 5106   6.565   6.973   5.560  1.5054 -1.1266  0.9620
 1400SOL     OW 5107   2.606   2.741   5.739  0.0532 -0.1065 -0.3483
 1400SOL    HW1 5108   2.531   2.800   5.734 -0.5337 -0.6661  1.1564
 1400SOL    HW2 5109   2.681   2.794   5.713 -0.8213  0.5047 -1.7502
 1401SOL     OW 5110   5.080   0.968   3.902  0.3666 -0.3710 -0.0693
 1401SOL    HW1 5111   5.101   1.009   3.817 -0.3028  0.1222 -0.0020
 1401SOL    HW2 5112   5.145   0.898   3.911  1.7571  0.8708 -0.0400
 1402SOL     OW 5113   6.440   0.886   0.083  0.0120  0.3638 -0.5299
 1402SOL    HW1 5114   6.451   0.792   0.098 -1.7566  0.2440  0.2433
 1402SOL    HW2 5115   6.505   0.927   0.141  0.0257 -0.3571 -0.0224
 1403SOL     OW 5116   3.317   6.099   7.458 -0.2850 -0.5209  0.8872
 1403SOL    HW1 5117   3.260   6.028   7.487  0.1042 -0.0478  2.9595
 1403SOL    HW2 5118   3.358   6.132   7.538  1.7366  0.1729 -0.3373
 1404SOL     OW 5119   4.472   0.972   3.599 -0.3348  0.1751 -0.3420
 1404SOL    HW1 5120   4.404   0.961   3.533 -0.6227 -0.2553  0.0178
 1404SOL    HW2 5121   4.457   1.060   3.634  1.8137  1.8011 -3.0528
 1405SOL     OW 5122   4.682   1.322   5.976 -0.3902  0.6039  0.1118
 1405SOL    HW1 5123   4.708   1.413   5.961 -0.7288  0.3362 -2.5060
 1405SOL    HW2 5124   4.634   1.297   5.897 -2.0718 -1.2546  1.6028
 1406SOL     OW 5125   1.257   5.194   4.508  0.6847 -0.1757 -0.1173
 1406SOL    HW1 5126   1.208   5.118   4.476  1.2373 -0.3505 -0.5555
 1406SOL    HW2 5127   1.201   5.269   4.487  0.1154 -0.4577  0.3576
 1407SOL     OW 5128   7.450   2.494   4.178 -0.0571 -0.3966  0.1619
 1407SOL    HW1 5129   7.525   2.513   4.234 -0.4504 -1.4425  1.0996
 1407SOL    HW2 5130   7.374   2.517   4.232 -0.4210  0.2840 -0.6265
 1408SOL     OW 5131   6.076   2.944   4.240 -0.2639  0.0196 -0.6414
 1408SOL    HW1 5132   6.103   2.897   4.319 -0.4872  0.6922 -0.1529
 1408SOL    HW2 5133   6.133   3.021   4.236 -3.3812  2.7833  1.7317
 1409SOL     OW 5134   2.769   5.915   4.848  0.5788 -0.0973  0.0125
 1409SOL    HW1 5135   2.822   5.849   4.804 -0.3063  1.0288 -3.0490
 1409SOL    HW2 5136   2.726   5.962   4.777  0.0830  2.8781  2.0661
 1410SOL     OW 5137   0.707   6.254   0.530  0.1363  1.0216  0.3612
 1410SOL    HW1 5138   0.799   6.232   0.517  0.0185  1.5774 -1.7771
 1410SOL    HW2 5139   0.690   6.232   0.622  2.1084 -0.0626  0.5261
 1411SOL     OW 5140   0.553   3.480   3.779  0.1895  0.1120 -0.5033
 1411SOL    HW1 5141   0.628   3.475   3.720  0.1171  1.5245 -0.7519
 1411SOL    HW2 5142   0.589   3.514   3.861 -0.0152 -0.1074 -0.3222
 1412SOL     OW 5143   3.322   1.498   7.691  0.9963  0.9221 -0.3676
 1412SOL    HW1 5144   3.252   1.467   7.748 -0.2108 -0.2684 -2.3941
 1412SOL    HW2 5145   3.402   1.464   7.731  0.0831 -0.9847 -0.0650
 1413SOL     OW 5146   7.663   7.164   5.753  0.4590 -0.0921 -0.1111
 1413SOL    HW1 5147   7.637   7.239   5.700  1.6828  0.0563 -0.5464
 1413SOL    HW2 5148   7.605   7.166   5.829  1.0947  1.8601  0.3682
 1414SOL     OW 5149   1.659   0.334   3.063  0.2277 -0.4026  0.1716
 1414SOL    HW1 5150   1.690   0.401   3.002 -0.4941 -0.6520 -0.4916
 1414SOL    HW2 5151   1.566   0.325   3.042 -0.3723  0.4456  2.1800
 1415SOL     OW 5152   3.765   4.443   4.454  0.1847 -0.3182  0.5849
 1415SOL    HW1 5153   3.674   4.412   4.451 -0.8334  2.4597 -0.1752
 1415SOL    HW2 5154   3.784   4.452   4.547 -0.1126 -1.3806  0.7661
 1416SOL     OW 5155   2.749   0.358   5.971 -0.0824  0.0822 -0.5176
 1416SOL    HW1 5156   2.720   0.448   5.981 -0.1924 -0.0077 -0.0149
 1416SOL    HW2 5157   2.700   0.325   5.896 -3.4685 -0.9318  1.9024
 1417SOL     OW 5158   0.787   0.997   1.723  0.4127 -0.4680 -0.4642
 1417SOL    HW1 5159   0.703   0.957   1.698  1.5721 -2.8813 -0.8360
 1417SOL    HW2 5160   0.798   0.970   1.815  1.2304 -1.0820 -0.7314
 1418SOL     OW 5161   0.275   6.517   2.850  0.0357  0.8636 -0.2865
 1418SOL    HW1 5162   0.346   6.582   2.845 -1.5890  2.7201 -0.3974
 1418SOL    HW2 5163   0.251   6.515   2.942 -0.2302  0.7816 -0.3568
 1419SOL     OW 5164   7.470   0.115   0.453  0.4219 -0.7903 -0.1289
 1419SOL    HW1 5165   7.430   0.052   0.513  0.6515 -1.7302 -0.9430
 1419SOL    HW2 5166   7.491   0.190   0.508  2.2998 -2.3252  1.3642
 1420SOL     OW 5167   4.269   0.187   6.565  0.4671 -0.2623 -0.3352
 1420SOL    HW1 5168   4.194   0.162   6.511  0.4418  0.2519 -0.5483
 1420SOL    HW2 5169   4.239   0.266   6.612  0.6842 -0.3740 -0.0040
 1421SOL     OW 5170   2.016   4.485   5.136 -0.1818  0.0904 -0.3808
 1421SOL    HW1 5171   2.058   4.490   5.222 -1.3721  3.0979  0.1540
 1421SOL    HW2 5172   2.044   4.565   5.091 -1.4072 -0.2750 -1.8979
 1422SOL     OW 5173   3.000   4.615   1.783  0.4453  0.0884 -0.1213
 1422SOL    HW1 5174   2.961   4.678   1.844 -1.8796 -0.3638 -1.0589
 1422SOL    HW2 5175   3.052   4.670   1.723 -1.0242  1.1074 -0.5316
 1423SOL     OW 5176   5.128   0.700   5.672 -0.3100  0.1789  0.0002
 1423SOL    HW1 5177   5.207   0.682   5.722  0.0869  0.4434 -0.5184
 1423SOL    HW2 5178   5.113   0.793   5.683 -0.2220  0.2386 -0.3638
 1424SOL     OW 5179   2.481   1.368   2.076  0.4648  0.4762 -0.0346
 1424SOL    HW1 5180   2.456   1.385   2.167  2.0904  0.0672  0.5222
 1424SOL    HW2 5181   2.410   1.314   2.041  1.8893 -3.3782  2.4042
 1425SOL     OW 5182   5.650   3.133   3.311  0.1031 -0.4072 -0.4473
 1425SOL    HW1 5183   5.649   3.225   3.285  0.4162 -0.7253 -1.6237
 1425SOL    HW2 5184   5.710   3.130   3.385  0.4698  0.2554 -0.7109
 1426SOL     OW 5185   0.984   6.499   3.294  0.5857  0.0100  0.1000
 1426SOL    HW1 5186   1.004   6.507   3.200  2.3376 -1.2272  0.3090
 1426SOL    HW2 5187   1.069   6.477   3.334 -0.4276 -1.0524  1.7618
 1427SOL     OW 5188   5.275   6.475   0.991  0.1836  0.0385  0.0310
 1427SOL    HW1 5189   5.309   6.409   0.931 -0.1627 -0.3152  0.2228
 1427SOL    HW2 5190   5.343   6.484   1.058  0.0023 -0.5123  0.2966
 1428SOL     OW 5191   2.452   3.729   2.198 -0.6748  0.2735  0.6593
 1428SOL    HW1 5192   2.466   3.823   2.193 -1.5147  0.3281 -1.7113
 1428SOL    HW2 5193   2.388   3.719   2.269  0.1791  1.3451  1.6274
 1429SOL     OW 5194   6.311   5.321   3.987 -0.3824 -0.0263  0.9188
 1429SOL    HW1 5195   6.398   5.333   4.024 -0.4651  0.6283  0.9179
 1429SOL    HW2 5196   6.326   5.276   3.905 -0.2131 -1.6957  1.8290
 1430SOL     OW 5197   2.322   7.299   3.138  0.6169  0.2504  0.3793
 1430SOL    HW1 5198   2.235   7.260   3.124  0.5703  0.7175 -0.7139
 1430SOL    HW2 5199   2.382   7.237   3.097  0.7561  0.2047  0.6496
 1431SOL     OW 5200   2.225   6.405   0.151  0.1940  0.2689  0.1346
 1431SOL    HW1 5201   2.149   6.450   0.115  0.5215  1.2587  0.6521
 1431SOL    HW2 5202   2.211   6.313   0.129 -0.9604  0.4919 -0.1052
 1432SOL     OW 5203   1.980   0.454   0.348 -0.2437 -0.5915 -0.3960
 1432SOL    HW1 5204   2.019   0.537   0.377  0.7654 -0.9724 -0.6120
 1432SOL    HW2 5205   1.926   0.425   0.421 -1.6440  0.8776 -0.7913
 1433SOL     OW 5206   4.629   5.567   0.278  0.8506 -0.2232  0.0564
 1433SOL    HW1 5207   4.707   5.522   0.246  0.6346 -1.5236  1.2595
 1433SOL    HW2 5208   4.574   5.498   0.313  0.5782  0.9723  2.1609
 1434SOL     OW 5209   3.132   1.195   4.881  0.4272  0.2911  0.1557
 1434SOL    HW1 5210   3.052   1.243   4.860 -0.9887 -2.1595 -0.3876
 1434SOL    HW2 5211   3.103   1.122   4.936  2.2297 -0.8827 -0.3680
 1435SOL     OW 5212   3.465   0.802   0.162  0.1971 -0.4005 -0.3290
 1435SOL    HW1 5213   3.403   0.781   0.092  1.2530 -0.8158 -1.1752
 1435SOL    HW2 5214   3.543   0.751   0.141  0.8215  0.0749  0.7303
 1436SOL     OW 5215   6.265   1.940   0.668  0.0692 -0.0298 -0.2501
 1436SOL    HW1 5216   6.278   1.974   0.757 -0.9656  1.0563 -0.4840
 1436SOL    HW2 5217   6.334   1.980   0.616  0.4791 -0.4071  0.0025
 1437SOL     OW 5218   7.361   3.257   5.815  0.1363 -0.1498  0.2384
 1437SOL    HW1 5219   7.384   3.348   5.798  1.3562 -0.7040 -1.3291
 1437SOL    HW2 5220   7.266   3.253   5.803  0.1264  0.8353 -0.0316
 1438SOL     OW 5221   4.683   3.942   7.503 -0.0953 -0.3249 -0.4006
 1438SOL    HW1 5222   4.698   3.879   7.433 -1.2797  0.0682 -1.0410
 1438SOL    HW2 5223   4.683   4.028   7.459 -0.1805 -0.0196  0.1805
 1439SOL     OW 5224   3.593   7.291   4.875  0.0780 -0.3475 -0.0984
 1439SOL    HW1 5225   3.562   7.255   4.792  0.3317  1.3685 -0.9665
 1439SOL    HW2 5226   3.565   7.226   4.941 -0.5263 -1.5076 -1.4491
 1440SOL     OW 5227   0.887   0.478   1.960  0.0598  0.6628 -0.0770
 1440SOL    HW1 5228   0.827   0.423   2.012 -0.1338  0.1890 -0.7830
 1440SOL    HW2 5229   0.937   0.527   2.025 -0.3738  0.2880  0.5514
 1441SOL     OW 5230   4.801   3.698   1.657 -0.3434 -0.7432  0.4893
 1441SOL    HW1 5231   4.750   3.760   1.604 -0.4475 -1.5104 -0.3392
 1441SOL    HW2 5232   4.838   3.637   1.592 -0.3888 -1.6523  1.3057
 1442SOL     OW 5233   6.406   4.135   2.236  0.0816 -0.1265 -0.0090
 1442SOL    HW1 5234   6.490   4.170   2.206  0.5070 -1.5630 -0.5888
 1442SOL    HW2 5235   6.400   4.049   2.194 -1.3935 -0.3112  0.5335
 1443SOL     OW 5236   0.593   1.984   2.428  0.3694 -0.2823  0.7499
 1443SOL    HW1 5237   0.604   1.979   2.333 -2.6359 -0.5378  0.2972
 1443SOL    HW2 5238   0.560   2.072   2.443  0.8115 -0.2521  1.5839
 1444SOL     OW 5239   2.491   7.510   4.606 -0.2887  0.8918 -0.5278
 1444SOL    HW1 5240   2.419   7.569   4.583 -1.5702  0.3993  1.9409
 1444SOL    HW2 5241   2.538   7.555   4.676  0.9790  0.5606 -1.1345
 1445SOL     OW 5242   0.898   4.025   2.332 -0.0156  0.0557  0.1719
 1445SOL    HW1 5243   0.972   3.995   2.384  0.5667 -0.1276 -0.7586
 1445SOL    HW2 5244   0.905   4.121   2.333  1.6485  0.0195 -1.8851
 1446SOL     OW 5245   4.056   6.562   3.447 -0.1105  0.2442 -0.0655
 1446SOL    HW1 5246   4.145   6.568   3.414 -0.0393 -0.4298 -0.0073
 1446SOL    HW2 5247   4.045   6.639   3.502  0.4185  0.3487 -0.1077
 1447SOL     OW 5248   6.737   3.805   3.427 -0.6332  0.3068 -0.3662
 1447SOL    HW1 5249   6.830   3.819   3.444 -0.1890 -2.6760  0.3413
 1447SOL    HW2 5250   6.693   3.872   3.479  1.1010  1.6434 -0.5430
 1448SOL     OW 5251   6.787   1.453   5.659  0.3993 -0.1692  1.1609
 1448SOL    HW1 5252   6.800   1.371   5.610 -3.2473 -0.5098  0.4614
 1448SOL    HW2 5253   6.836   1.518   5.611  0.3754 -1.2984 -0.4629
 1449SOL     OW 5254   2.096   4.507   6.902 -0.4030  0.2714 -0.0444
 1449SOL    HW1 5255   2.130   4.447   6.969  0.9924 -0.2313 -1.1487
 1449SOL    HW2 5256   2.144   4.588   6.917 -1.6989  0.8872  0.9304
 1450SOL     OW 5257   1.663   6.037   4.241  0.3878 -0.2948  0.3263
 1450SOL    HW1 5258   1.573   6.063   4.261  0.3264 -0.3788  0.1623
 1450SOL    HW2 5259   1.678   5.960   4.296  0.4405 -0.1412  0.5293
 1451SOL     OW 5260   4.529   0.537   7.520  0.5413 -0.4950 -0.4985
 1451SOL    HW1 5261   4.485   0.454   7.499 -1.2950  0.1919  0.4038
 1451SOL    HW2 5262   4.499   0.598   7.453 -0.1630  0.0513  0.2832
 1452SOL     OW 5263   3.160   3.845   4.218  0.2457  0.0890  0.1433
 1452SOL    HW1 5264   3.172   3.754   4.194 -0.8420 -0.2424  0.7716
 1452SOL    HW2 5265   3.136   3.842   4.311  0.3012  1.0219  0.1975
 1453SOL     OW 5266   6.542   4.385   0.342 -0.2189  0.2427 -0.6870
 1453SOL    HW1 5267   6.606   4.449   0.373  0.0987  0.9359 -2.6180
 1453SOL    HW2 5268   6.590   4.303   0.339 -0.6295 -0.1853  1.8128
 1454SOL     OW 5269   5.264   0.837   1.985 -0.1829 -0.0034  0.3174
 1454SOL    HW1 5270   5.355   0.868   1.983 -0.3223  0.3774 -0.6985
 1454SOL    HW2 5271   5.270   0.743   1.971  0.0869 -0.0697  0.8584
 1455SOL     OW 5272   4.880   4.819   7.571 -0.1373 -0.0411  0.1165
 1455SOL    HW1 5273   4.923   4.859   7.495 -2.3211  0.9633 -0.6675
 1455SOL    HW2 5274   4.936   4.745   7.594  0.7792 -0.1733 -2.2755
 1456SOL     OW 5275   4.396   3.752   4.173 -0.0066  0.0757  0.6299
 1456SOL    HW1 5276   4.369   3.843   4.158  0.9949  0.3664  0.5525
 1456SOL    HW2 5277   4.469   3.758   4.234 -0.0194 -0.6951  0.7311
 1457SOL     OW 5278   4.281   2.180   4.992 -0.3464  0.6066  0.6048
 1457SOL    HW1 5279   4.206   2.127   5.017 -0.9893  1.2283  0.0447
 1457SOL    HW2 5280   4.246   2.269   4.986  0.4865  0.9371  0.5422
 1458SOL     OW 5281   1.909   0.639   1.337 -0.3008 -0.0289  0.4888
 1458SOL    HW1 5282   1.853   0.699   1.287 -0.6844 -1.8716 -1.4583
 1458SOL    HW2 5283   1.852   0.603   1.404 -0.0512  1.7453  1.7220
 1459SOL     OW 5284   4.440   7.095   6.827 -0.1880  0.2907  0.4325
 1459SOL    HW1 5285   4.376   7.057   6.767  0.0764  1.0863 -0.3699
 1459SOL    HW2 5286   4.387   7.139   6.894 -0.5344  1.8070 -0.7715
 1460SOL     OW 5287   5.612   0.211   7.388 -0.6519  1.1776  0.4933
 1460SOL    HW1 5288   5.599   0.117   7.380  0.4631  1.0737 -0.3696
 1460SOL    HW2 5289   5.704   0.220   7.415 -0.7184  2.0257  0.4593
 1461SOL     OW 5290   5.599   6.411   6.455  0.4520  0.3647  0.4514
 1461SOL    HW1 5291   5.593   6.386   6.547  0.4237  0.4301  0.4672
 1461SOL    HW2 5292   5.627   6.503   6.456 -0.8115  0.7676  0.4269
 1462SOL     OW 5293   5.647   5.552   2.165 -0.1807 -0.2420  0.7283
 1462SOL    HW1 5294   5.575   5.589   2.216  0.3432 -0.4676  1.6558
 1462SOL    HW2 5295   5.629   5.459   2.161 -0.5020 -0.1523  0.0314
 1463SOL     OW 5296   4.229   7.550   4.608  0.4853  0.1972 -0.1771
 1463SOL    HW1 5297   4.184   7.607   4.545  1.0277 -0.6317 -1.3585
 1463SOL    HW2 5298   4.313   7.531   4.567  1.6665  1.1660  1.6874
 1464SOL     OW 5299   7.713   1.258   7.609  0.0504  0.2754 -0.1409
 1464SOL    HW1 5300   7.727   1.163   7.613  2.2524  0.5241 -0.6293
 1464SOL    HW2 5301   7.634   1.273   7.660  0.2482 -1.7154  0.8475
 1465SOL     OW 5302   6.942   5.438   1.392  0.6317  0.0740 -1.1752
 1465SOL    HW1 5303   6.948   5.410   1.300 -0.8610  0.2202 -1.3482
 1465SOL    HW2 5304   6.877   5.379   1.430 -0.0771  1.1590 -0.6802
 1466SOL     OW 5305   6.423   0.900   6.442  0.0277  0.7394 -0.1520
 1466SOL    HW1 5306   6.460   0.987   6.425  0.0079  1.2027  1.9023
 1466SOL    HW2 5307   6.335   0.918   6.474  0.4078  0.0444  1.3491
 1467SOL     OW 5308   0.542   4.235   4.892 -0.1673  0.0823 -0.7325
 1467SOL    HW1 5309   0.637   4.234   4.903 -0.3201  0.7871  0.9273
 1467SOL    HW2 5310   0.515   4.144   4.903  0.1621  0.1204  0.5164
 1468SOL     OW 5311   0.343   6.697   5.469 -0.3882 -0.4270  0.3388
 1468SOL    HW1 5312   0.261   6.738   5.442 -0.2490  1.2195  2.1708
 1468SOL    HW2 5313   0.345   6.707   5.564  2.4945  0.7838  0.2591
 1469SOL     OW 5314   7.548   4.543   1.108 -0.2047  0.0882 -0.3459
 1469SOL    HW1 5315   7.608   4.611   1.138 -0.5672  0.7869 -1.1685
 1469SOL    HW2 5316   7.475   4.545   1.170 -1.2064  1.8821 -1.5006
 1470SOL     OW 5317   4.196   1.039   5.942 -0.4459  0.2913  0.4396
 1470SOL    HW1 5318   4.244   1.077   5.868 -0.3740 -1.5262 -0.5172
 1470SOL    HW2 5319   4.112   1.084   5.942 -0.1884  0.7844 -0.3464
 1471SOL     OW 5320   6.819   0.789   0.660  0.2068 -0.0306 -0.2989
 1471SOL    HW1 5321   6.781   0.846   0.727  1.4659  0.2008  0.2616
 1471SOL    HW2 5322   6.834   0.706   0.705  2.7488  0.6643  0.3247
 1472SOL     OW 5323   5.471   0.822   3.941 -0.0979 -0.0882  0.3701
 1472SOL    HW1 5324   5.512   0.890   3.995 -0.2287  0.0212  0.3329
 1472SOL    HW2 5325   5.494   0.740   3.983  0.5296 -0.0545  0.1051
 1473SOL     OW 5326   6.685   5.196   1.973  0.3885 -0.1075  0.2399
 1473SOL    HW1 5327   6.602   5.150   1.988  0.3178  0.6269  2.4751
 1473SOL    HW2 5328   6.666   5.287   1.997  1.9735 -0.0412  1.3669
 1474SOL     OW 5329   1.957   5.960   3.110 -0.5701  0.0362  1.0781
 1474SOL    HW1 5330   1.982   6.005   3.029  1.0654  1.3317  2.2349
 1474SOL    HW2 5331   1.888   6.015   3.148 -1.3774 -0.6018  0.5675
 1475SOL     OW 5332   1.383   2.327   4.183  0.6248  0.0880  0.8027
 1475SOL    HW1 5333   1.396   2.406   4.236 -2.1443  1.5309 -0.4585
 1475SOL    HW2 5334   1.321   2.274   4.234  0.4183 -0.0198  0.4441
 1476SOL     OW 5335   4.332   4.239   3.889 -0.0578 -0.5868 -0.4031
 1476SOL    HW1 5336   4.296   4.317   3.932  0.0472 -0.7836  0.0469
 1476SOL    HW2 5337   4.280   4.229   3.809 -1.3273 -1.1306  0.4589
 1477SOL     OW 5338   6.407   5.657   7.570  0.0515 -0.0732 -0.1249
 1477SOL    HW1 5339   6.321   5.624   7.541  0.1985 -1.2788  0.7295
 1477SOL    HW2 5340   6.445   5.584   7.618  0.0879  1.5913  2.5712
 1478SOL     OW 5341   0.967   6.180   7.641 -0.6085  0.3659  1.1651
 1478SOL    HW1 5342   0.919   6.109   7.683  2.0038 -1.5190  1.2064
 1478SOL    HW2 5343   0.943   6.174   7.549 -0.3824 -0.6207  1.1624
 1479SOL     OW 5344   4.892   1.868   7.079  0.1195 -0.2307  0.0267
 1479SOL    HW1 5345   4.935   1.906   7.156 -2.0801 -0.2416  1.3570
 1479SOL    HW2 5346   4.915   1.927   7.008 -0.5339  1.7753  1.3817
 1480SOL     OW 5347   5.159   1.658   1.577  0.7743 -0.9401  0.1843
 1480SOL    HW1 5348   5.108   1.716   1.634  1.0642 -1.3396  0.8534
 1480SOL    HW2 5349   5.206   1.718   1.519  2.3812 -0.3821  1.9533
 1481SOL     OW 5350   5.430   4.900   1.258  0.1153  0.0678  0.0516
 1481SOL    HW1 5351   5.462   4.816   1.226 -1.2319 -1.4941  2.4896
 1481SOL    HW2 5352   5.335   4.896   1.246  0.0951  1.6378 -0.5778
 1482SOL     OW 5353   7.047   5.833   6.273 -0.9949 -0.3826 -0.3546
 1482SOL    HW1 5354   7.054   5.926   6.296  0.0834 -0.7762  1.0369
 1482SOL    HW2 5355   7.126   5.814   6.223 -0.2732 -0.9679  0.9744
 1483SOL     OW 5356   6.792   1.174   5.284 -0.4039 -0.4446 -0.1346
 1483SOL    HW1 5357   6.836   1.189   5.368 -1.1227  0.5050  0.1014
 1483SOL    HW2 5358   6.843   1.226   5.222 -0.9587  0.3876  0.0791
 1484SOL     OW 5359   2.468   7.556   0.664 -0.1941  0.3656 -0.0664
 1484SOL    HW1 5360   2.421   7.474   0.676  0.4492  0.0586  0.4418
 1484SOL    HW2 5361   2.435   7.612   0.734 -0.6858  0.5716 -0.4572
 1485SOL     OW 5362   5.964   3.053   5.988 -0.1803  0.6024  0.0986
 1485SOL    HW1 5363   5.922   3.137   6.008  0.1457  1.3325 -1.9899
 1485SOL    HW2 5364   5.911   3.016   5.918  0.2563 -0.4666  0.3233
 1486SOL     OW 5365   2.043   5.956   7.412 -0.7137  0.2908 -0.2673
 1486SOL    HW1 5366   2.137   5.965   7.430 -0.9610  2.0923  0.4290
 1486SOL    HW2 5367   2.033   5.989   7.323 -0.6647 -0.0685 -0.4064
 1487SOL     OW 5368   0.751   7.139   6.461 -0.2255  0.2103  0.2432
 1487SOL    HW1 5369   0.792   7.058   6.492  1.5813  1.6865  1.9518
 1487SOL    HW2 5370   0.816   7.179   6.404 -0.7910  0.8085  0.0073
 1488SOL     OW 5371   3.802   3.715   6.181  0.4077 -0.0387  0.0426
 1488SOL    HW1 5372   3.741   3.774   6.225 -1.4976 -1.3685 -0.7008
 1488SOL    HW2 5373   3.864   3.690   6.250 -0.2398  0.8497  0.9868
 1489SOL     OW 5374   7.005   5.886   3.534 -0.2611  0.4184  0.0731
 1489SOL    HW1 5375   6.966   5.970   3.510 -1.5235 -0.2679 -0.3499
 1489SOL    HW2 5376   7.043   5.853   3.453 -1.7504 -0.4438 -0.2929
 1490SOL     OW 5377   6.186   7.718   3.347  0.0496  0.0342 -0.2159
 1490SOL    HW1 5378   6.095   7.719   3.377  0.4203  1.7893  1.0027
 1490SOL    HW2 5379   6.193   7.796   3.291  0.7800 -0.1521 -0.3929
 1491SOL     OW 5380   6.406   4.136   7.200 -0.1366 -0.1832 -0.0351
 1491SOL    HW1 5381   6.396   4.153   7.294  0.0068  0.2490 -0.0959
 1491SOL    HW2 5382   6.342   4.194   7.159 -1.7862 -1.9557 -0.1073
 1492SOL     OW 5383   3.493   2.337   0.111 -0.0705 -0.2786 -0.4470
 1492SOL    HW1 5384   3.528   2.283   0.040 -1.5346 -1.3450 -0.4183
 1492SOL    HW2 5385   3.465   2.418   0.068  0.3322 -0.3470 -0.8410
 1493SOL     OW 5386   6.560   3.398   5.102 -0.9155 -0.0801  0.3683
 1493SOL    HW1 5387   6.516   3.331   5.155  0.0686 -0.8408  0.2553
 1493SOL    HW2 5388   6.571   3.357   5.016  0.3411 -0.0599  0.5040
 1494SOL     OW 5389   0.038   4.283   1.049  0.3252  0.2034 -0.2189
 1494SOL    HW1 5390   0.031   4.214   1.114  0.6584  1.5776  1.3446
 1494SOL    HW2 5391   0.040   4.364   1.100  2.9859  1.2294 -1.7507
 1495SOL     OW 5392   1.348   2.898   4.796  0.5283 -0.1388 -0.2151
 1495SOL    HW1 5393   1.294   2.949   4.736  1.0451 -1.1023 -1.5336
 1495SOL    HW2 5394   1.415   2.960   4.826  0.0190  0.4626 -0.2975
 1496SOL     OW 5395   1.218   5.717   2.401  0.4201 -0.2587  0.2045
 1496SOL    HW1 5396   1.255   5.758   2.479  1.1109  0.0187 -0.2537
 1496SOL    HW2 5397   1.127   5.698   2.424  0.3199  0.7746  0.7145
 1497SOL     OW 5398   7.722   2.850   7.339 -0.0409 -0.3870  0.3579
 1497SOL    HW1 5399   7.639   2.842   7.294  0.0852 -1.2267  0.2708
 1497SOL    HW2 5400   7.710   2.924   7.399 -0.4776  0.1969 -0.4394
 1498SOL     OW 5401   5.424   6.079   1.546  0.2762  0.2978  0.7293
 1498SOL    HW1 5402   5.458   6.045   1.629  0.0354  1.1854  1.2064
 1498SOL    HW2 5403   5.479   6.155   1.527 -0.6975  1.0679  0.9195
 1499SOL     OW 5404   1.010   6.378   5.654 -0.3512  0.3188 -0.1319
 1499SOL    HW1 5405   1.076   6.435   5.693  0.1041  0.1803 -0.6929
 1499SOL    HW2 5406   1.035   6.290   5.682 -0.1225  0.2360 -0.5839
 1500SOL     OW 5407   4.260   7.266   1.922  0.3631 -0.2221  0.4626
 1500SOL    HW1 5408   4.341   7.215   1.923  1.0229  0.7951 -0.0979
 1500SOL    HW2 5409   4.279   7.340   1.865 -1.1637 -0.2772 -0.1575
 1501SOL     OW 5410   1.353   1.573   6.058 -0.1005 -0.6443  0.2299
 1501SOL    HW1 5411   1.439   1.616   6.060 -0.6774  0.5489  0.3472
 1501SOL    HW2 5412   1.332   1.566   5.965 -0.8584  1.1850  0.2096
 1502SOL     OW 5413   0.164   6.577   7.058  0.3367 -0.5670  0.3123
 1502SOL    HW1 5414   0.176   6.656   7.110 -1.2233  0.1164 -0.3335
 1502SOL    HW2 5415   0.190   6.506   7.117  2.3669  0.4070  0.6933
 1503SOL     OW 5416   7.676   0.189   2.223 -0.1324  0.5624  0.1968
 1503SOL    HW1 5417   7.597   0.206   2.172 -0.3605  1.5600  0.8545
 1503SOL    HW2 5418   7.675   0.256   2.291  0.9169  0.1436  0.6398
 1504SOL     OW 5419   5.024   2.556   0.845  0.3877 -0.3327  0.0486
 1504SOL    HW1 5420   5.063   2.622   0.903  1.9137 -1.0402 -0.1172
 1504SOL    HW2 5421   5.051   2.472   0.883  0.0126 -0.8305 -0.7544
 1505SOL     OW 5422   4.073   5.545   2.385  0.0424 -0.6566  0.1830
 1505SOL    HW1 5423   4.052   5.453   2.399 -2.6588  0.2886  3.9367
 1505SOL    HW2 5424   3.999   5.578   2.333 -1.8129  0.2373  3.1421
 1506SOL     OW 5425   2.362   1.375   7.320  0.0822 -0.6468 -0.5339
 1506SOL    HW1 5426   2.405   1.316   7.381 -0.5169  0.0057  0.5524
 1506SOL    HW2 5427   2.427   1.443   7.303 -0.2432 -0.0503  0.5386
 1507SOL     OW 5428   0.122   0.628   5.198 -0.4247  0.1971 -0.0189
 1507SOL    HW1 5429   0.057   0.594   5.138 -0.3751  1.5442 -0.8976
 1507SOL    HW2 5430   0.192   0.661   5.141  0.7271 -0.6293  0.8730
 1508SOL     OW 5431   7.093   0.795   5.905 -0.0153  0.0519 -0.1998
 1508SOL    HW1 5432   7.158   0.864   5.917  0.1142 -0.1320  0.1849
 1508SOL    HW2 5433   7.144   0.713   5.910 -0.5255 -0.2166  2.3576
 1509SOL     OW 5434   1.650   3.898   2.251 -0.1207  0.0350  0.0893
 1509SOL    HW1 5435   1.734   3.946   2.248 -1.2412  2.6289  3.4847
 1509SOL    HW2 5436   1.675   3.808   2.273  1.8449 -0.0208 -1.9550
 1510SOL     OW 5437   4.259   0.881   6.166 -0.3702 -0.1004 -0.3121
 1510SOL    HW1 5438   4.267   0.946   6.096  3.1607 -0.8260 -0.8029
 1510SOL    HW2 5439   4.184   0.827   6.140 -0.9670  1.4129 -1.9580
 1511SOL     OW 5440   0.448   4.329   7.548 -0.4306  0.0709 -0.2825
 1511SOL    HW1 5441   0.381   4.397   7.538  0.3804  0.8059 -0.8347
 1511SOL    HW2 5442   0.498   4.355   7.625 -0.1149  0.1085 -0.4987
 1512SOL     OW 5443   7.620   7.466   7.248 -0.2384  0.1345 -0.3793
 1512SOL    HW1 5444   7.597   7.526   7.177 -0.7798 -1.6221 -1.7622
 1512SOL    HW2 5445   7.592   7.512   7.328 -3.0717  0.6616 -1.5584
 1513SOL     OW 5446   3.020   5.666   6.498  0.2970  0.4996  0.2898
 1513SOL    HW1 5447   2.942   5.695   6.545 -1.4441 -0.6938 -1.7183
 1513SOL    HW2 5448   3.011   5.702   6.410  0.4224 -2.1193 -0.8779
 1514SOL     OW 5449   0.336   2.556   7.410 -0.0083 -0.0325 -0.1365
 1514SOL    HW1 5450   0.321   2.647   7.436 -0.5585 -0.6910  2.0515
 1514SOL    HW2 5451   0.250   2.516   7.414 -0.0015 -0.4049 -2.3918
 1515SOL     OW 5452   1.667   1.634   4.246 -0.3651  0.7506  0.1592
 1515SOL    HW1 5453   1.739   1.588   4.204  0.2337 -0.0302  1.9286
 1515SOL    HW2 5454   1.607   1.565   4.274 -0.6526  1.2096  0.7028
 1516SOL     OW 5455   1.233   2.077   6.549 -0.3142 -0.2119 -0.5844
 1516SOL    HW1 5456   1.275   2.061   6.464  0.8176  0.3787 -0.1571
 1516SOL    HW2 5457   1.166   2.143   6.530 -0.1761 -0.2008 -1.0520
 1517SOL     OW 5458   7.129   6.242   5.842  0.0634 -0.2556 -0.2851
 1517SOL    HW1 5459   7.055   6.249   5.902  0.0617  0.5802 -0.3718
 1517SOL    HW2 5460   7.181   6.320   5.859  1.8717 -1.6597  1.0216
 1518SOL     OW 5461   5.284   6.688   1.483 -0.3221  0.0983  0.4864
 1518SOL    HW1 5462   5.376   6.676   1.462 -0.1081  2.8617 -0.5781
 1518SOL    HW2 5463   5.283   6.712   1.575 -0.0497 -0.4309  0.6315
 1519SOL     OW 5464   2.425   3.174   5.174 -0.2724  0.5200  0.8019
 1519SOL    HW1 5465   2.491   3.225   5.127 -1.3134  1.3929  0.2461
 1519SOL    HW2 5466   2.468   3.150   5.256  0.6497  1.2986  0.5726
 1520SOL     OW 5467   5.859   5.202   0.931  0.0826  0.1236 -0.1392
 1520SOL    HW1 5468   5.916   5.150   0.989  0.1876  1.0774  0.6462
 1520SOL    HW2 5469   5.881   5.293   0.952 -0.2998  0.4889 -1.2860
 1521SOL     OW 5470   3.486   3.247   5.168 -0.0565 -0.7716 -0.3125
 1521SOL    HW1 5471   3.470   3.334   5.205 -0.4909 -0.5343 -1.0358
 1521SOL    HW2 5472   3.489   3.189   5.244 -1.8306 -0.4378  0.0544
 1522SOL     OW 5473   6.642   1.655   7.351 -0.4909 -0.2323 -0.0812
 1522SOL    HW1 5474   6.728   1.624   7.322 -0.5179 -3.1796  2.4626
 1522SOL    HW2 5475   6.580   1.604   7.299 -0.6316 -0.5825  0.4282
 1523SOL     OW 5476   1.200   3.300   7.008  0.0879 -0.4381 -0.1774
 1523SOL    HW1 5477   1.131   3.350   7.052 -0.4667 -2.3930  1.3262
 1523SOL    HW2 5478   1.279   3.319   7.060  0.2309  0.1062 -0.5853
 1524SOL     OW 5479   4.270   3.080   3.862 -0.0077 -0.0307  0.5640
 1524SOL    HW1 5480   4.249   2.988   3.878 -0.8262  0.1100  0.3499
 1524SOL    HW2 5481   4.233   3.098   3.776 -1.0388  0.8593  1.1727
 1525SOL     OW 5482   6.493   6.140   3.858 -0.4774  0.1234  0.6826
 1525SOL    HW1 5483   6.447   6.211   3.815  2.5376  2.0329  0.2714
 1525SOL    HW2 5484   6.482   6.065   3.800 -0.5917  1.3132 -0.8960
 1526SOL     OW 5485   3.768   7.150   5.103 -0.0622  0.3273 -0.0292
 1526SOL    HW1 5486   3.772   7.239   5.136  1.2884 -0.3681  1.9153
 1526SOL    HW2 5487   3.718   7.102   5.169  1.0182 -0.7451  0.0435
 1527SOL     OW 5488   2.075   2.668   4.337  0.0309 -0.1914 -0.1030
 1527SOL    HW1 5489   2.087   2.756   4.371  0.8980 -0.4933  0.3989
 1527SOL    HW2 5490   2.086   2.611   4.413  0.2810 -0.7810 -0.5718
 1528SOL     OW 5491   4.641   0.651   1.213 -0.3589  0.3383 -0.0452
 1528SOL    HW1 5492   4.717   0.614   1.257 -1.0645 -2.7604 -1.1723
 1528SOL    HW2 5493   4.674   0.684   1.130  0.0361  0.7960  0.2894
 1529SOL     OW 5494   2.651   3.924   5.898 -0.1079  0.1714  0.4586
 1529SOL    HW1 5495   2.680   3.835   5.878  0.6409  0.4651  0.2202
 1529SOL    HW2 5496   2.566   3.931   5.855 -0.1656 -0.4240  0.4650
 1530SOL     OW 5497   3.253   4.981   3.702  0.1496 -0.1092  0.5057
 1530SOL    HW1 5498   3.280   5.045   3.637 -1.2375 -0.9052 -0.9168
 1530SOL    HW2 5499   3.184   5.025   3.752 -2.6001 -1.1674 -2.0730
 1531SOL     OW 5500   4.552   0.059   0.648 -0.0950 -0.2057  0.2323
 1531SOL    HW1 5501   4.507   0.081   0.729 -0.4461 -0.5570  0.1345
 1531SOL    HW2 5502   4.641   0.034   0.676 -0.0359  0.2316  0.4481
 1532SOL     OW 5503   4.940   0.638   1.369 -0.4454 -0.4332 -0.5497
 1532SOL    HW1 5504   4.941   0.705   1.437 -1.1342  0.1097 -1.0522
 1532SOL    HW2 5505   5.026   0.644   1.328  0.6426 -1.9765  1.3878
 1533SOL     OW 5506   2.690   5.566   3.225 -0.3286 -0.1291  0.2147
 1533SOL    HW1 5507   2.725   5.477   3.222 -0.0601 -0.0383  0.5755
 1533SOL    HW2 5508   2.709   5.602   3.138 -0.5841 -0.4753  0.0124
 1534SOL     OW 5509   0.779   5.236   2.413  0.1507  0.2785 -0.0275
 1534SOL    HW1 5510   0.703   5.193   2.451 -1.1364  1.7778 -0.7428
 1534SOL    HW2 5511   0.814   5.173   2.350  1.0377 -1.3899  2.0512
 1535SOL     OW 5512   2.269   7.323   6.863  0.6377  0.2442  0.0410
 1535SOL    HW1 5513   2.259   7.360   6.775  0.0567  0.2629  0.1130
 1535SOL    HW2 5514   2.358   7.287   6.864  0.2069 -0.9018 -0.9831
 1536SOL     OW 5515   2.352   6.016   7.441 -0.1176  0.4101 -0.1039
 1536SOL    HW1 5516   2.321   6.105   7.424  2.6810  1.9207  1.8205
 1536SOL    HW2 5517   2.333   6.001   7.534  0.8464 -0.3271 -0.0073
 1537SOL     OW 5518   0.606   2.908   0.293  0.3037  0.3919 -0.7630
 1537SOL    HW1 5519   0.557   2.827   0.278  0.9478  0.1652 -1.7137
 1537SOL    HW2 5520   0.558   2.975   0.245 -0.6476  0.7547  0.6205
 1538SOL     OW 5521   4.895   7.027   5.929 -0.2535 -0.2493  0.3116
 1538SOL    HW1 5522   4.983   7.033   5.891 -1.0376  1.1867 -1.3741
 1538SOL    HW2 5523   4.896   6.944   5.976  1.7570 -0.6431 -0.3034
 1539SOL     OW 5524   7.623   5.779   4.016  0.1890  0.3122  0.0169
 1539SOL    HW1 5525   7.571   5.802   4.093 -1.8077 -0.7433 -0.9446
 1539SOL    HW2 5526   7.574   5.815   3.942  1.3111  0.0458 -0.8949
 1540SOL     OW 5527   1.786   7.315   3.927 -0.1777  0.6119  0.2251
 1540SOL    HW1 5528   1.757   7.371   3.998  0.0090  1.2759 -0.2091
 1540SOL    HW2 5529   1.730   7.238   3.932 -0.2554  0.7166  1.0000
 1541SOL     OW 5530   1.831   6.536   6.793  0.2594  0.6541  0.5667
 1541SOL    HW1 5531   1.876   6.454   6.770  1.6195  1.6867 -0.6715
 1541SOL    HW2 5532   1.745   6.529   6.750  1.4694  1.0543 -2.1148
 1542SOL     OW 5533   4.909   4.812   6.890  0.1305 -0.1106 -0.1148
 1542SOL    HW1 5534   4.881   4.904   6.892 -1.3558 -0.5448  0.2983
 1542SOL    HW2 5535   4.828   4.763   6.877  0.5297 -1.5183  2.3054
 1543SOL     OW 5536   3.394   6.156   1.018 -0.0276 -0.0553  0.0517
 1543SOL    HW1 5537   3.321   6.173   0.960 -0.8037 -2.4646  0.2052
 1543SOL    HW2 5538   3.447   6.090   0.973  0.4356 -0.5124  1.2032
 1544SOL     OW 5539   4.808   4.200   7.015  0.2889 -0.0068 -0.0882
 1544SOL    HW1 5540   4.857   4.278   7.042  0.4844 -0.1140 -0.1364
 1544SOL    HW2 5541   4.721   4.213   7.053 -0.9715  2.1465 -3.2094
 1545SOL     OW 5542   1.991   5.592   3.404  0.5373 -0.2460  0.2116
 1545SOL    HW1 5543   1.919   5.654   3.414  0.7731  0.2366 -0.9053
 1545SOL    HW2 5544   2.011   5.564   3.493 -2.4240 -2.0321  0.4558
 1546SOL     OW 5545   3.491   3.625   7.584  0.2178  0.4713 -0.1602
 1546SOL    HW1 5546   3.533   3.687   7.644 -1.5159  0.7876  0.7905
 1546SOL    HW2 5547   3.416   3.591   7.633  0.9039 -2.1667 -0.7699
 1547SOL     OW 5548   6.085   2.305   3.614 -0.0927  0.2915  0.0114
 1547SOL    HW1 5549   6.017   2.237   3.619 -1.6896  1.5600 -2.2842
 1547SOL    HW2 5550   6.162   2.259   3.580 -1.1953 -0.4125 -1.6996
 1548SOL     OW 5551   2.896   1.371   4.847  0.2668 -0.4610 -0.0682
 1548SOL    HW1 5552   2.824   1.312   4.824  0.5958 -1.0808  0.4721
 1548SOL    HW2 5553   2.934   1.396   4.762  0.4454 -1.4348 -0.2908
 1549SOL     OW 5554   5.491   0.214   0.614  0.2515  0.3268  0.7656
 1549SOL    HW1 5555   5.429   0.216   0.541 -0.1585 -0.3591  1.0862
 1549SOL    HW2 5556   5.449   0.263   0.684  0.6998  1.0942  0.5145
 1550SOL     OW 5557   2.719   3.624   5.344  0.4045 -0.6495 -0.5282
 1550SOL    HW1 5558   2.692   3.587   5.428  1.6720 -0.9372 -0.2137
 1550SOL    HW2 5559   2.655   3.593   5.281  0.2675 -1.6490  0.0944
 1551SOL     OW 5560   3.881   5.976   7.138 -0.0120 -0.2698 -0.0583
 1551SOL    HW1 5561   3.952   5.917   7.164  0.6872 -0.2534 -1.7726
 1551SOL    HW2 5562   3.819   5.973   7.211  1.6260 -0.4681  1.3808
 1552SOL     OW 5563   2.062   4.978   0.314 -0.3321  0.2357 -0.6730
 1552SOL    HW1 5564   2.142   4.940   0.277 -0.3561  0.3990 -0.8960
 1552SOL    HW2 5565   2.093   5.038   0.382 -0.2702  0.2441 -0.7082
 1553SOL     OW 5566   4.745   0.083   0.985  0.8787 -0.2757  0.3141
 1553SOL    HW1 5567   4.752   0.018   1.055 -0.4427  0.1302  0.8523
 1553SOL    HW2 5568   4.770   0.036   0.906 -2.1807 -2.1413  0.3189
 1554SOL     OW 5569   6.094   4.061   6.403 -0.1817  0.4186  0.0999
 1554SOL    HW1 5570   6.120   4.073   6.311  1.7389 -1.0359  0.3806
 1554SOL    HW2 5571   6.081   4.150   6.436  0.3992  1.0323 -1.2358
 1555SOL     OW 5572   5.032   0.226   6.822  0.2425 -0.2527 -0.1841
 1555SOL    HW1 5573   4.996   0.169   6.891  0.1470  0.9652  0.7965
 1555SOL    HW2 5574   4.960   0.284   6.799 -0.0416 -1.2488 -2.0455
 1556SOL     OW 5575   0.140   5.896   4.076  0.3058 -0.3054 -0.5030
 1556SOL    HW1 5576   0.076   5.849   4.023 -0.6130  0.6513 -0.2884
 1556SOL    HW2 5577   0.117   5.988   4.065  0.3095 -0.0514  1.2193
 1557SOL     OW 5578   0.556   6.941   0.596 -0.3984  0.2201  0.3574
 1557SOL    HW1 5579   0.643   6.931   0.635 -0.7373 -0.9170  0.8360
 1557SOL    HW2 5580   0.554   6.877   0.524 -1.0215 -0.1156  0.6686
 1558SOL     OW 5581   5.927   6.553   3.155 -0.0473 -0.1185  0.2323
 1558SOL    HW1 5582   6.017   6.523   3.138  0.8177  1.9758  0.7843
 1558SOL    HW2 5583   5.896   6.495   3.224  0.9966 -0.7021  0.2449
 1559SOL     OW 5584   2.313   4.611   1.110  0.4027 -0.0047  0.3410
 1559SOL    HW1 5585   2.295   4.530   1.157  0.5054  0.3221  0.9541
 1559SOL    HW2 5586   2.347   4.582   1.025 -0.2520 -0.6028  0.2711
 1560SOL     OW 5587   6.257   3.775   5.996 -0.0543 -0.1532 -0.7610
 1560SOL    HW1 5588   6.305   3.857   6.008 -1.8196  0.8224  0.0134
 1560SOL    HW2 5589   6.272   3.726   6.076  0.9481 -0.5915 -1.1973
 1561SOL     OW 5590   0.505   6.488   7.172  0.1614  0.2600  0.2983
 1561SOL    HW1 5591   0.495   6.550   7.244 -1.6389  0.1030  0.2122
 1561SOL    HW2 5592   0.535   6.407   7.213 -2.5911 -0.3870  1.1830
 1562SOL     OW 5593   6.746   2.931   3.922  0.5528  0.1246 -0.4353
 1562SOL    HW1 5594   6.791   2.848   3.933  1.0361  0.3224 -0.8739
 1562SOL    HW2 5595   6.803   2.982   3.864 -0.6483  0.0473 -1.7576
 1563SOL     OW 5596   6.569   3.604   0.076 -0.3764  0.4524  0.1591
 1563SOL    HW1 5597   6.513   3.603   0.153 -1.0878 -0.3685 -0.3476
 1563SOL    HW2 5598   6.636   3.538   0.094 -0.9722 -0.2652 -0.2230
 1564SOL     OW 5599   6.666   3.623   2.016  0.3879 -0.1261  0.0759
 1564SOL    HW1 5600   6.598   3.588   1.959  0.8275 -1.1635  0.1622
 1564SOL    HW2 5601   6.707   3.546   2.055  0.0333  0.5577  1.8828
 1565SOL     OW 5602   5.840   6.167   2.276 -0.6297  0.5546  0.2464
 1565SOL    HW1 5603   5.911   6.138   2.219  0.0288  0.5816  1.0367
 1565SOL    HW2 5604   5.765   6.113   2.250  0.1099 -0.6342  0.5178
 1566SOL     OW 5605   3.514   2.176   5.755 -0.4728  0.2821 -0.2557
 1566SOL    HW1 5606   3.518   2.183   5.659 -1.5368  0.0018 -0.3295
 1566SOL    HW2 5607   3.534   2.265   5.786  0.4690  0.2410 -0.7087
 1567SOL     OW 5608   1.797   1.751   3.897 -0.0847 -0.4840  0.2358
 1567SOL    HW1 5609   1.874   1.799   3.928 -1.4124  1.3468  0.7968
 1567SOL    HW2 5610   1.794   1.769   3.803  1.2792 -2.2385 -0.2016
 1568SOL     OW 5611   5.136   3.046   7.543  0.1002 -0.0538  0.1524
 1568SOL    HW1 5612   5.197   3.088   7.483  0.5837 -0.1576  0.5594
 1568SOL    HW2 5613   5.192   2.992   7.600 -0.4349 -0.6724  0.1037
 1569SOL     OW 5614   4.732   3.289   7.607 -0.1342  0.0093 -0.1783
 1569SOL    HW1 5615   4.745   3.202   7.645  0.2750 -0.4324 -1.3005
 1569SOL    HW2 5616   4.803   3.299   7.544 -2.6030 -0.6737 -3.3281
 1570SOL     OW 5617   2.716   0.535   0.069  0.5015  0.1945  0.3717
 1570SOL    HW1 5618   2.633   0.561   0.030  0.6921  1.3573  0.6790
 1570SOL    HW2 5619   2.703   0.445   0.097  0.0315 -0.3251 -1.4218
 1571SOL     OW 5620   6.403   3.901   2.109  0.0918 -0.4255 -0.1266
 1571SOL    HW1 5621   6.368   3.815   2.085  2.8930 -1.3043 -1.4847
 1571SOL    HW2 5622   6.491   3.902   2.073 -0.2075  3.5021 -1.2342
 1572SOL     OW 5623   2.359   4.105   3.095 -0.5914  0.1539 -0.0809
 1572SOL    HW1 5624   2.366   4.041   3.165  2.1221  2.8782  2.3946
 1572SOL    HW2 5625   2.276   4.151   3.112 -0.1621  0.5054  1.1542
 1573SOL     OW 5626   5.526   5.221   6.662  0.0438 -0.0820  0.2509
 1573SOL    HW1 5627   5.455   5.213   6.598 -1.6153 -4.4439  2.2744
 1573SOL    HW2 5628   5.503   5.299   6.713 -1.7645  0.1799 -0.8608
 1574SOL     OW 5629   4.196   1.894   0.889 -0.1861  0.2482 -0.4926
 1574SOL    HW1 5630   4.130   1.829   0.864  1.0795 -0.3718 -2.4687
 1574SOL    HW2 5631   4.249   1.849   0.955 -1.0703  0.3693  0.3218
 1575SOL     OW 5632   4.884   6.872   2.346  0.5897 -0.0517  0.0829
 1575SOL    HW1 5633   4.921   6.960   2.340  0.0146  0.1789 -0.1248
 1575SOL    HW2 5634   4.790   6.885   2.342  0.5077 -0.7023 -0.2655
 1576SOL     OW 5635   0.263   4.510   3.379  0.1024 -0.8069 -0.3342
 1576SOL    HW1 5636   0.172   4.500   3.354 -0.5064  1.4263  0.7557
 1576SOL    HW2 5637   0.287   4.425   3.416 -1.7196 -1.2528 -0.0896
 1577SOL     OW 5638   1.266   6.540   7.043  0.1563 -0.0608 -0.1251
 1577SOL    HW1 5639   1.272   6.579   7.130  0.9400  0.1168 -0.2488
 1577SOL    HW2 5640   1.178   6.563   7.012 -0.8023 -1.5957  1.2896
 1578SOL     OW 5641   3.412   0.777   1.988 -0.6564  0.1404 -0.0298
 1578SOL    HW1 5642   3.336   0.768   1.930 -0.5261 -0.2732 -0.1377
 1578SOL    HW2 5643   3.375   0.791   2.075 -0.8617 -0.2326 -0.0546
 1579SOL     OW 5644   2.037   7.306   1.666  0.3302  0.3722  0.3157
 1579SOL    HW1 5645   2.086   7.384   1.694  0.5997  0.9079 -1.4652
 1579SOL    HW2 5646   2.042   7.309   1.570  0.0985 -1.7056  0.2041
 1580SOL     OW 5647   4.800   5.529   3.138 -0.0706  0.4179  0.4162
 1580SOL    HW1 5648   4.788   5.591   3.065 -1.3184 -0.3281 -0.0537
 1580SOL    HW2 5649   4.860   5.463   3.103 -0.1879  0.3883  0.2658
 1581SOL     OW 5650   5.404   0.575   7.073  0.3285  0.1404  0.0427
 1581SOL    HW1 5651   5.335   0.514   7.044  0.4022  0.3080 -0.5043
 1581SOL    HW2 5652   5.439   0.610   6.991  1.4381 -0.3587  0.2932
 1582SOL     OW 5653   5.277   4.628   0.453 -0.0618  0.0846 -0.1138
 1582SOL    HW1 5654   5.331   4.615   0.375 -0.7077  2.5616 -1.0813
 1582SOL    HW2 5655   5.333   4.600   0.526  1.6841  0.4624 -1.2483
 1583SOL     OW 5656   1.776   3.570   5.105 -0.2667  0.1889 -0.1904
 1583SOL    HW1 5657   1.790   3.658   5.140 -0.1465  0.3379 -0.6084
 1583SOL    HW2 5658   1.681   3.563   5.097 -0.2239  0.8115 -1.4829
 1584SOL     OW 5659   2.810   6.805   7.103 -0.0394 -0.2075  0.2870
 1584SOL    HW1 5660   2.902   6.808   7.132 -0.0680  0.1669  0.3487
 1584SOL    HW2 5661   2.805   6.871   7.034  0.5258 -2.4834 -2.0810
 1585SOL     OW 5662   6.390   6.551   7.004 -0.5617 -0.3348 -0.7037
 1585SOL    HW1 5663   6.420   6.463   7.024  0.6900  0.3566  0.6034
 1585SOL    HW2 5664   6.302   6.538   6.967  0.4989 -2.2620 -2.7554
 1586SOL     OW 5665   0.335   0.784   1.503  0.4367 -0.1162 -0.4795
 1586SOL    HW1 5666   0.274   0.732   1.450 -0.9738 -0.1949  1.1440
 1586SOL    HW2 5667   0.309   0.875   1.487  0.2777 -0.1189 -0.2361
 1587SOL     OW 5668   5.584   3.173   3.842 -0.0907 -0.4223 -0.1687
 1587SOL    HW1 5669   5.552   3.217   3.763 -1.3933  0.3753  0.7558
 1587SOL    HW2 5670   5.643   3.237   3.883 -2.3569  0.7982  1.4283
 1588SOL     OW 5671   0.977   5.595   6.557  0.0516 -0.2050  0.0726
 1588SOL    HW1 5672   0.933   5.511   6.572 -0.1585  0.0298  0.8115
 1588SOL    HW2 5673   0.910   5.651   6.518  0.7549 -0.9952 -2.5022
 1589SOL     OW 5674   6.679   6.247   4.313 -0.3157  0.3356  0.2730
 1589SOL    HW1 5675   6.633   6.188   4.253  0.7908 -1.0443  0.7206
 1589SOL    HW2 5676   6.715   6.315   4.257 -2.9046  1.5301 -0.0878
 1590SOL     OW 5677   2.819   4.015   4.858 -0.4908 -0.4263  0.2380
 1590SOL    HW1 5678   2.861   4.069   4.792  0.7327 -2.4259 -0.7041
 1590SOL    HW2 5679   2.747   3.971   4.812 -1.6373  0.5156  1.0498
 1591SOL     OW 5680   0.942   4.611   6.888  0.4020 -0.5274 -0.5574
 1591SOL    HW1 5681   0.923   4.669   6.961 -2.9656 -0.4587 -1.3648
 1591SOL    HW2 5682   1.000   4.662   6.831  2.0833 -0.1437  1.3766
 1592SOL     OW 5683   1.937   0.570   5.032 -0.1015  0.1785  0.0951
 1592SOL    HW1 5684   1.875   0.513   4.986  0.6420  0.4320 -1.2741
 1592SOL    HW2 5685   1.980   0.512   5.095 -0.3565 -0.4488 -0.2942
 1593SOL     OW 5686   5.764   4.078   0.948  0.0193 -0.1852 -0.7682
 1593SOL    HW1 5687   5.821   4.109   0.877  0.1213 -0.2263 -0.7035
 1593SOL    HW2 5688   5.791   3.988   0.963  1.2460  0.3637  0.5561
 1594SOL     OW 5689   4.194   0.142   4.687  0.4217 -0.2554 -0.5746
 1594SOL    HW1 5690   4.138   0.175   4.757  0.4843 -0.9260 -0.1995
 1594SOL    HW2 5691   4.192   0.211   4.620 -1.7866 -0.7262 -1.0828
 1595SOL     OW 5692   0.793   7.177   4.139 -0.1775 -0.1482 -0.0493
 1595SOL    HW1 5693   0.833   7.090   4.129 -0.0063 -0.1811  0.8580
 1595SOL    HW2 5694   0.816   7.204   4.227 -0.7820  0.5478 -0.0968
 1596SOL     OW 5695   0.783   7.637   1.034  0.4841 -0.6524 -0.0056
 1596SOL    HW1 5696   0.689   7.632   1.016  0.4555  0.0232 -0.0785
 1596SOL    HW2 5697   0.820   7.558   0.993  0.0313 -0.5960 -0.5355
 1597SOL     OW 5698   6.884   3.298   4.240  0.2630  0.2184 -0.5678
 1597SOL    HW1 5699   6.801   3.338   4.211 -0.0808 -0.2530 -0.2530
 1597SOL    HW2 5700   6.937   3.372   4.269 -0.1681  0.4988 -0.4776
 1598SOL     OW 5701   1.249   4.593   1.453  0.5643 -0.4722  0.3737
 1598SOL    HW1 5702   1.317   4.527   1.437 -0.4477 -1.2109 -1.1245
 1598SOL    HW2 5703   1.231   4.630   1.367  0.6921  1.4006  1.1055
 1599SOL     OW 5704   2.192   7.237   2.008 -0.1562  0.6028 -0.2423
 1599SOL    HW1 5705   2.286   7.216   2.003  0.3450  2.4299  0.6347
 1599SOL    HW2 5706   2.156   7.203   1.927  1.3661  0.2892 -0.8354
 1600SOL     OW 5707   4.473   6.094   0.297 -0.1937 -0.6105  0.1307
 1600SOL    HW1 5708   4.550   6.094   0.354 -0.3707 -0.9076  0.3756
 1600SOL    HW2 5709   4.506   6.063   0.213  0.5608  2.0435 -0.6443
 1601SOL     OW 5710   4.301   3.993   4.180  0.6807 -0.2966 -0.3306
 1601SOL    HW1 5711   4.224   4.003   4.237 -0.8111 -0.9179 -2.1424
 1601SOL    HW2 5712   4.327   4.083   4.159  0.3327 -0.0851  0.1240
 1602SOL     OW 5713   6.981   3.985   7.045 -0.0841 -0.3144  0.7096
 1602SOL    HW1 5714   6.929   3.910   7.075  0.1765 -1.4322 -1.4434
 1602SOL    HW2 5715   7.070   3.965   7.076  0.0882 -1.2072 -0.2836
 1603SOL     OW 5716   4.892   5.897   2.407 -0.6155 -0.1566  0.3126
 1603SOL    HW1 5717   4.827   5.836   2.442 -1.4423  1.3784  1.5814
 1603SOL    HW2 5718   4.879   5.894   2.312  0.1177 -2.7146  0.2231
 1604SOL     OW 5719   5.981   5.103   3.242  0.1682 -0.1186  0.5013
 1604SOL    HW1 5720   5.979   5.197   3.257  1.0059 -0.2370  1.4506
 1604SOL    HW2 5721   5.949   5.092   3.153 -1.9845  0.8879  1.0613
 1605SOL     OW 5722   4.730   4.548   3.749  0.5370 -0.3733 -0.3407
 1605SOL    HW1 5723   4.644   4.535   3.789  1.6236  0.4291  2.5709
 1605SOL    HW2 5724   4.748   4.641   3.760  1.4991 -0.3899 -1.5525
 1606SOL     OW 5725   3.324   5.946   1.218  0.4465  0.2255  0.4739
 1606SOL    HW1 5726   3.271   6.012   1.263  0.9788  0.3961  0.8541
 1606SOL    HW2 5727   3.375   5.996   1.154 -1.3998 -0.1669 -1.4377
 1607SOL     OW 5728   4.743   0.117   6.577 -0.5747  0.0771  0.2318
 1607SOL    HW1 5729   4.743   0.174   6.654  0.3156 -0.0999  0.3763
 1607SOL    HW2 5730   4.739   0.178   6.502 -1.0251  0.2648  0.4038
 1608SOL     OW 5731   6.877   5.916   1.079 -0.4017 -0.3808 -0.3327
 1608SOL    HW1 5732   6.849   5.851   1.143  0.4273  0.1924  0.6400
 1608SOL    HW2 5733   6.800   5.930   1.024 -1.1036 -0.9510  0.4847
 1609SOL     OW 5734   3.214   0.712   5.919 -0.0002  0.1977 -0.6374
 1609SOL    HW1 5735   3.171   0.778   5.864  1.0749  1.4998  0.0252
 1609SOL    HW2 5736   3.275   0.762   5.973  1.1019 -1.3904 -0.3401
 1610SOL     OW 5737   3.854   3.299   3.319  0.3452  0.0936  0.6343
 1610SOL    HW1 5738   3.786   3.231   3.326 -0.4557  0.4076 -2.5252
 1610SOL    HW2 5739   3.935   3.253   3.341 -0.5562 -0.8676  2.2713
 1611SOL     OW 5740   2.036   5.409   2.938 -0.4998 -0.0000 -0.1685
 1611SOL    HW1 5741   1.972   5.373   3.001 -0.5221  1.1840  0.5063
 1611SOL    HW2 5742   2.115   5.423   2.990 -0.1162 -0.1897 -0.6990
 1612SOL     OW 5743   1.421   6.023   0.476  0.4268 -0.2645 -0.5539
 1612SOL    HW1 5744   1.499   6.008   0.531 -0.0178 -0.7300 -0.0337
 1612SOL    HW2 5745   1.358   5.956   0.505 -0.5833  0.8253 -0.1645
 1613SOL     OW 5746   5.763   3.343   7.411  0.1019  0.3986 -0.1372
 1613SOL    HW1 5747   5.678   3.383   7.397  0.3940  1.5433  1.1467
 1613SOL    HW2 5748   5.744   3.249   7.420 -0.8417  0.4726 -1.0932
 1614SOL     OW 5749   7.648   2.613   3.646 -0.9667 -0.0579 -0.1097
 1614SOL    HW1 5750   7.639   2.562   3.566 -0.2944  0.2152 -0.3702
 1614SOL    HW2 5751   7.559   2.641   3.667 -1.0401  0.7246 -1.3372
 1615SOL     OW 5752   3.565   3.195   4.914 -0.0524  0.4486 -0.4699
 1615SOL    HW1 5753   3.542   3.212   5.005 -0.9296  1.2695 -0.8233
 1615SOL    HW2 5754   3.653   3.232   4.903  0.1143  0.2096  0.0833
 1616SOL     OW 5755   5.021   0.359   7.125 -0.7483 -0.4045  0.2566
 1616SOL    HW1 5756   5.108   0.365   7.084 -1.1992  0.9048 -0.5813
 1616SOL    HW2 5757   4.988   0.273   7.100  0.4924 -1.1425  1.0127
 1617SOL     OW 5758   3.935   5.303   0.731  0.3256 -0.2223 -0.0625
 1617SOL    HW1 5759   3.904   5.212   0.727 -1.1625  0.1589  1.3366
 1617SOL    HW2 5760   4.005   5.308   0.667  0.0502 -2.2132 -0.5825
 1618SOL     OW 5761   1.114   2.483   4.074 -0.2840  0.2751  0.2010
 1618SOL    HW1 5762   1.030   2.438   4.067 -1.1199  1.6300  1.1524
 1618SOL    HW2 5763   1.165   2.449   4.000 -0.9881 -1.9164  0.6460
 1619SOL     OW 5764   3.183   4.612   0.241 -0.2012  0.6026 -0.0939
 1619SOL    HW1 5765   3.161   4.699   0.209  1.1983  0.5236 -1.3760
 1619SOL    HW2 5766   3.217   4.566   0.165  1.7707 -0.1196  1.1389
 1620SOL     OW 5767   6.330   2.869   3.940  0.3309 -0.3554  0.5404
 1620SOL    HW1 5768   6.331   2.915   4.024  0.1951 -1.6137  1.2516
 1620SOL    HW2 5769   6.258   2.807   3.947 -0.7701  0.6383 -1.1500
 1621SOL     OW 5770   0.344   0.281   4.302 -0.4619 -0.0696  0.6445
 1621SOL    HW1 5771   0.284   0.206   4.306 -1.3458  0.3779 -2.2211
 1621SOL    HW2 5772   0.430   0.242   4.284 -0.7935 -0.4732 -0.1297
 1622SOL     OW 5773   5.850   5.902   5.262  0.1653 -0.9873  1.0951
 1622SOL    HW1 5774   5.909   5.908   5.337  1.5941  0.1857 -0.0579
 1622SOL    HW2 5775   5.769   5.942   5.291  1.3116  1.1792  1.4643
 1623SOL     OW 5776   0.200   5.801   0.531  0.6328  0.0939 -0.4612
 1623SOL    HW1 5777   0.256   5.740   0.579  0.5546 -0.5426 -1.1724
 1623SOL    HW2 5778   0.149   5.746   0.472 -1.6131  0.5138  0.9596
 1624SOL     OW 5779   0.719   3.893   7.036  0.4123 -0.5004  0.3009
 1624SOL    HW1 5780   0.810   3.873   7.016  0.1986  0.1253 -1.4995
 1624SOL    HW2 5781   0.722   3.944   7.118  1.5449 -1.5270  0.9173
 1625SOL     OW 5782   4.634   6.162   2.005 -0.2006  0.5167 -0.1746
 1625SOL    HW1 5783   4.547   6.165   1.964 -0.6156  2.5253  0.7361
 1625SOL    HW2 5784   4.621   6.112   2.085 -0.1587 -0.4595 -0.7613
 1626SOL     OW 5785   5.889   7.467   3.304  0.1331  0.1800  0.0978
 1626SOL    HW1 5786   5.867   7.396   3.243  1.6841 -0.2244 -0.0112
 1626SOL    HW2 5787   5.892   7.545   3.249  0.5710 -0.0251 -0.1705
 1627SOL     OW 5788   3.079   2.680   4.600 -0.6604 -0.0017  0.7477
 1627SOL    HW1 5789   3.060   2.690   4.507 -0.0616 -0.4369  0.5724
 1627SOL    HW2 5790   3.002   2.636   4.636 -0.7964 -0.0354  0.4159
 1628SOL     OW 5791   1.421   5.721   5.631 -0.4245 -0.4423 -0.8417
 1628SOL    HW1 5792   1.441   5.639   5.586 -0.9096 -1.0470  0.0248
 1628SOL    HW2 5793   1.330   5.739   5.609 -0.1115  0.2671 -1.6257
 1629SOL     OW 5794   0.229   5.787   4.312  0.2013  0.3786 -0.3101
 1629SOL    HW1 5795   0.205   5.816   4.225 -0.3889 -0.0952 -0.3146
 1629SOL    HW2 5796   0.149   5.749   4.348  0.6346 -0.1342  0.1432
 1630SOL     OW 5797   5.349   6.342   2.982 -0.4629 -0.1478  0.3579
 1630SOL    HW1 5798   5.335   6.248   2.973 -1.5345  0.0743 -0.5263
 1630SOL    HW2 5799   5.261   6.378   2.993 -0.2765  0.9359 -1.2885
 1631SOL     OW 5800   5.462   3.314   3.632  0.0545  0.0115 -0.0336
 1631SOL    HW1 5801   5.527   3.351   3.572 -0.6830 -0.0307 -0.8709
 1631SOL    HW2 5802   5.400   3.385   3.649 -0.4591 -0.3602 -0.3496
 1632SOL     OW 5803   3.666   5.336   3.313  0.0483  0.5379 -0.1123
 1632SOL    HW1 5804   3.689   5.244   3.297 -1.4635  0.2351 -0.6928
 1632SOL    HW2 5805   3.576   5.333   3.344 -0.0271  1.8363 -0.1526
 1633SOL     OW 5806   4.488   5.094   1.906  0.1487 -0.3326 -0.3263
 1633SOL    HW1 5807   4.496   5.006   1.942  0.6457  0.2114  0.9345
 1633SOL    HW2 5808   4.421   5.137   1.960 -0.6795 -0.1680 -1.4359
 1634SOL     OW 5809   0.018   6.629   1.258  0.3305 -0.5004  0.2463
 1634SOL    HW1 5810  -0.073   6.601   1.265 -0.2533  0.1022 -3.1369
 1634SOL    HW2 5811   0.019   6.718   1.295 -0.9100  0.1639 -1.2203
 1635SOL     OW 5812   1.869   4.428   3.563 -0.8034 -0.4482 -0.4470
 1635SOL    HW1 5813   1.825   4.509   3.590 -0.9863 -1.0409  1.0724
 1635SOL    HW2 5814   1.799   4.372   3.529 -1.0767 -0.9559  0.9213
 1636SOL     OW 5815   6.761   3.885   4.003 -1.0567 -0.3212  0.0971
 1636SOL    HW1 5816   6.738   3.866   3.912 -0.2433  1.0052 -0.4190
 1636SOL    HW2 5817   6.829   3.821   4.024 -0.8942 -0.3143 -0.3959
 1637SOL     OW 5818   0.825   3.507   2.561 -0.7074  0.4419  0.4014
 1637SOL    HW1 5819   0.830   3.591   2.606  0.5365  0.0492  1.0354
 1637SOL    HW2 5820   0.738   3.473   2.584 -1.5156  1.8360 -0.4296
 1638SOL     OW 5821   0.367   2.270   7.393 -0.1145  0.0618 -0.6109
 1638SOL    HW1 5822   0.403   2.310   7.473  0.5599  1.0044 -1.3676
 1638SOL    HW2 5823   0.278   2.305   7.387 -0.4436 -0.6106  0.1220
 1639SOL     OW 5824   3.913   3.557   3.439  0.4651 -0.7118 -0.0855
 1639SOL    HW1 5825   3.892   3.492   3.372  0.3304  1.5429 -2.3601
 1639SOL    HW2 5826   3.828   3.592   3.466  0.6335 -0.2362 -0.1731
 1640SOL     OW 5827   3.542   4.287   7.322  0.3243 -0.0223  0.4262
 1640SOL    HW1 5828   3.532   4.327   7.236  0.7059  0.1587  0.4647
 1640SOL    HW2 5829   3.599   4.211   7.307  0.0105 -0.2625  0.4393
 1641SOL     OW 5830   5.765   6.296   1.723 -0.2389  0.0249  0.2353
 1641SOL    HW1 5831   5.678   6.336   1.734 -0.3501 -0.5417  1.5425
 1641SOL    HW2 5832   5.746   6.205   1.701  0.0028 -0.3432  1.4774
 1642SOL     OW 5833   7.285   2.798   4.041  0.4631 -0.6293  0.8270
 1642SOL    HW1 5834   7.381   2.796   4.040  0.4648 -0.6620  1.0903
 1642SOL    HW2 5835   7.262   2.866   3.978  0.6515 -0.9396  0.4171
 1643SOL     OW 5836   4.328   5.219   1.291 -0.0499  0.4751 -0.6401
 1643SOL    HW1 5837   4.318   5.151   1.358  0.2834 -0.9946 -2.0111
 1643SOL    HW2 5838   4.410   5.196   1.247  0.0640  1.7857 -1.1509
 1644SOL     OW 5839   2.963   1.022   1.486 -0.2552  0.1004  0.1796
 1644SOL    HW1 5840   2.918   1.104   1.509 -1.1937 -0.4136  0.2201
 1644SOL    HW2 5841   3.056   1.042   1.497 -0.5057  0.9693  0.8329
 1645SOL     OW 5842   0.127   2.294   4.697  0.6983  0.1047 -0.3868
 1645SOL    HW1 5843   0.217   2.287   4.727  0.2252 -0.1581  1.0682
 1645SOL    HW2 5844   0.126   2.252   4.611  2.0396  0.5359 -0.6251
 1646SOL     OW 5845   0.391   5.823   6.419  0.7703 -0.3214 -0.3791
 1646SOL    HW1 5846   0.452   5.750   6.432  1.1772  0.3123  1.5487
 1646SOL    HW2 5847   0.305   5.786   6.439  1.1768  0.1335  2.6406
 1647SOL     OW 5848   3.703   1.115   6.644 -0.0049  0.5394  0.2938
 1647SOL    HW1 5849   3.708   1.021   6.661 -0.7928  0.5737  0.7636
 1647SOL    HW2 5850   3.775   1.153   6.695  0.9580  0.1143 -0.6820
 1648SOL     OW 5851   7.306   4.371   3.109 -0.5401  0.0039  0.2781
 1648SOL    HW1 5852   7.314   4.335   3.021 -2.4950  0.9987 -0.3759
 1648SOL    HW2 5853   7.216   4.352   3.135  0.7354 -2.8570  3.3302
 1649SOL     OW 5854   5.180   6.917   4.153  0.0735 -0.4737 -0.0340
 1649SOL    HW1 5855   5.262   6.873   4.175  0.8991  0.9245 -0.2470
 1649SOL    HW2 5856   5.201   6.972   4.078 -1.1148 -0.2378 -0.2117
 1650SOL     OW 5857   5.669   7.374   1.514 -0.4230  0.3024 -0.8202
 1650SOL    HW1 5858   5.580   7.405   1.526 -0.4229 -0.1593  0.5585
 1650SOL    HW2 5859   5.673   7.347   1.422 -1.0754  2.2071 -1.4480
 1651SOL     OW 5860   5.016   6.304   2.942 -0.2263 -0.1674  0.0867
 1651SOL    HW1 5861   5.000   6.216   2.975 -1.8055 -0.2826 -0.9227
 1651SOL    HW2 5862   5.024   6.293   2.847  0.7450  0.6392  0.0559
 1652SOL     OW 5863   2.444   1.355   3.414 -0.2110 -0.0988  0.0319
 1652SOL    HW1 5864   2.452   1.449   3.430  0.5822 -0.5090  2.4102
 1652SOL    HW2 5865   2.381   1.325   3.479  0.9943 -1.4839  0.6129
 1653SOL     OW 5866   0.660   3.518   1.536 -0.2269 -0.2309 -0.0200
 1653SOL    HW1 5867   0.677   3.504   1.629 -1.9203  0.1420  0.3774
 1653SOL    HW2 5868   0.571   3.485   1.523  0.2816 -1.0566 -1.7066
 1654SOL     OW 5869   2.700   4.095   3.272  0.4729 -0.1959 -0.2862
 1654SOL    HW1 5870   2.795   4.088   3.261  0.7542 -0.0355  1.7549
 1654SOL    HW2 5871   2.678   4.026   3.335 -0.3682  1.3227  1.1654
 1655SOL     OW 5872   2.023   6.824   4.999 -0.3900 -0.6256 -0.0940
 1655SOL    HW1 5873   2.080   6.787   5.066 -1.5750 -2.5600 -0.0805
 1655SOL    HW2 5874   2.082   6.856   4.932  0.8240  1.0688  1.6654
 1656SOL     OW 5875   3.510   7.609   0.541  0.0231 -0.6100  0.2263
 1656SOL    HW1 5876   3.566   7.560   0.481 -1.0323 -0.3655 -0.9994
 1656SOL    HW2 5877   3.493   7.692   0.497 -0.7717 -0.4195  0.8659
 1657SOL     OW 5878   2.568   6.628   2.064 -0.6124 -0.0268  0.0374
 1657SOL    HW1 5879   2.486   6.607   2.019  0.1727 -0.4102 -1.2678
 1657SOL    HW2 5880   2.635   6.578   2.016  0.8674  2.8073 -1.0849
 1658SOL     OW 5881   2.523   5.614   4.143  0.0587 -0.6772  0.1950
 1658SOL    HW1 5882   2.499   5.604   4.051  1.8370  0.4979 -0.4665
 1658SOL    HW2 5883   2.462   5.680   4.177 -0.5402 -1.0395 -0.1687
 1659SOL     OW 5884   1.991   7.271   4.226 -0.2352 -0.3408  0.2429
 1659SOL    HW1 5885   2.073   7.228   4.251  1.2783  1.9071 -0.5033
 1659SOL    HW2 5886   1.990   7.266   4.130 -0.5736  0.3106  0.2070
 1660SOL     OW 5887   2.638   2.226   3.620 -0.1779  0.2632 -0.0713
 1660SOL    HW1 5888   2.591   2.166   3.679 -0.8924 -0.4204 -1.2969
 1660SOL    HW2 5889   2.694   2.169   3.568 -1.0662  0.6019 -1.4451
 1661SOL     OW 5890   5.638   7.640   5.714  0.0560 -0.0106 -0.7532
 1661SOL    HW1 5891   5.598   7.687   5.642 -0.7042 -0.6286 -0.7558
 1661SOL    HW2 5892   5.672   7.560   5.675 -2.2500 -1.3857 -0.1407
 1662SOL     OW 5893   2.453   1.961   3.655  0.7562  0.3585  0.0204
 1662SOL    HW1 5894   2.535   1.940   3.610  0.0235 -0.3892 -1.0019
 1662SOL    HW2 5895   2.402   2.009   3.590  0.0594  0.1045  0.3786
 1663SOL     OW 5896   0.137   5.270   6.686 -0.2382  0.0366  0.3247
 1663SOL    HW1 5897   0.151   5.325   6.609 -0.2114  1.5760  1.3883
 1663SOL    HW2 5898   0.097   5.191   6.652  1.6596 -0.2134 -1.5328
 1664SOL     OW 5899   5.818   1.906   4.832 -0.2062 -0.5189  0.1791
 1664SOL    HW1 5900   5.859   1.919   4.747  1.2598 -2.2791  0.5391
 1664SOL    HW2 5901   5.744   1.848   4.815 -1.7923  1.5232 -0.2650
 1665SOL     OW 5902   3.360   5.870   0.383 -0.2763  0.7941  0.1605
 1665SOL    HW1 5903   3.385   5.788   0.341  1.9956  0.5329  1.8800
 1665SOL    HW2 5904   3.306   5.844   0.457 -1.5756  1.0634 -0.6504
 1666SOL     OW 5905   1.862   4.124   5.110 -0.2359 -0.0696  0.4692
 1666SOL    HW1 5906   1.839   4.072   5.034  0.5089 -0.1598  0.2992
 1666SOL    HW2 5907   1.954   4.105   5.126 -0.5003 -0.4394  1.6937
 1667SOL     OW 5908   3.067   6.014   6.562  0.5755 -0.5809  0.2547
 1667SOL    HW1 5909   3.057   5.975   6.650 -0.6125 -1.4494 -0.2250
 1667SOL    HW2 5910   3.036   6.104   6.572  1.5724 -0.3036  0.9759
 1668SOL     OW 5911   5.245   1.092   2.428  0.4102 -0.2972  0.4453
 1668SOL    HW1 5912   5.220   1.060   2.341  1.6465 -0.2812  0.0597
 1668SOL    HW2 5913   5.283   1.178   2.411 -0.2542  0.1409  1.1347
 1669SOL     OW 5914   5.925   5.858   1.832 -0.0674  0.4361 -0.2113
 1669SOL    HW1 5915   6.015   5.847   1.804 -0.1718 -0.2657 -0.2885
 1669SOL    HW2 5916   5.896   5.770   1.857 -1.1052  0.4220 -1.3447
 1670SOL     OW 5917   1.660   0.757   0.972  0.7496  0.0378  0.0688
 1670SOL    HW1 5918   1.705   0.734   1.054 -0.4037  1.9262  1.2957
 1670SOL    HW2 5919   1.687   0.847   0.955 -2.7985  1.4626  1.1502
 1671SOL     OW 5920   0.656   4.391   1.475 -0.0286 -0.2874 -0.3689
 1671SOL    HW1 5921   0.594   4.415   1.543 -0.3107 -1.6382 -0.1318
 1671SOL    HW2 5922   0.739   4.429   1.504 -0.1987 -0.6415  0.6051
 1672SOL     OW 5923   4.727   6.777   2.899 -0.0856  0.5183 -0.4380
 1672SOL    HW1 5924   4.644   6.744   2.935 -0.0156  0.3141 -0.4624
 1672SOL    HW2 5925   4.776   6.805   2.976  0.3017 -0.4626 -0.3121
 1673SOL     OW 5926   0.836   6.989   6.107 -0.0470  0.1027 -0.1580
 1673SOL    HW1 5927   0.801   7.048   6.040 -1.0152 -0.1398  0.1117
 1673SOL    HW2 5928   0.900   7.042   6.154 -0.0864  0.5862 -0.6392
 1674SOL     OW 5929   7.065   6.304   4.466 -0.0633 -0.0572 -0.1894
 1674SOL    HW1 5930   7.061   6.325   4.559  0.9860  1.1907 -0.4014
 1674SOL    HW2 5931   7.025   6.379   4.422 -1.9571 -1.2998 -0.7164
 1675SOL     OW 5932   7.110   0.852   6.687 -0.2275  0.6494  0.2616
 1675SOL    HW1 5933   7.136   0.786   6.623 -0.8088 -0.2099  0.8944
 1675SOL    HW2 5934   7.187   0.907   6.697  0.1454  0.2999 -0.5482
 1676SOL     OW 5935   5.921   4.100   5.170  0.4720 -0.5398  0.8124
 1676SOL    HW1 5936   5.999   4.150   5.145 -0.5076  0.6385 -0.0300
 1676SOL    HW2 5937   5.954   4.013   5.189  1.9047 -0.3063 -0.3693
 1677SOL     OW 5938   7.638   5.713   6.573  0.4999 -1.0418  0.1086
 1677SOL    HW1 5939   7.720   5.671   6.546  1.7660  1.3805 -0.0803
 1677SOL    HW2 5940   7.643   5.715   6.668 -0.1938 -2.4411  0.1929
 1678SOL     OW 5941   7.555   5.013   7.301  0.1717  0.0339  0.2452
 1678SOL    HW1 5942   7.575   4.985   7.212 -1.6776 -0.8339  0.0671
 1678SOL    HW2 5943   7.479   5.070   7.292  0.0517  0.0567  1.2757
 1679SOL     OW 5944   1.654   6.733   2.758  0.2589 -0.0617  0.4151
 1679SOL    HW1 5945   1.643   6.822   2.793 -1.5517  0.4402 -1.2527
 1679SOL    HW2 5946   1.744   6.731   2.728 -0.1703  1.9122 -1.2116
 1680SOL     OW 5947   0.376   5.612   4.541  0.3235 -0.1009 -0.6277
 1680SOL    HW1 5948   0.296   5.663   4.553  0.8205  1.0066 -1.7784
 1680SOL    HW2 5949   0.444   5.662   4.586  0.1035 -2.0829  2.1983
 1681SOL     OW 5950   0.540   7.736   6.593  0.0673 -0.3856 -0.0781
 1681SOL    HW1 5951   0.621   7.686   6.578  0.2832 -0.1478  0.2846
 1681SOL    HW2 5952   0.488   7.679   6.651 -0.0081 -0.5194 -0.2758
 1682SOL     OW 5953   5.802   3.477   5.808  0.4480 -0.0589 -0.2777
 1682SOL    HW1 5954   5.846   3.393   5.792  0.3946 -0.2199  0.4125
 1682SOL    HW2 5955   5.743   3.460   5.881 -1.8974 -0.2594 -2.0848
 1683SOL     OW 5956   6.236   1.804   0.102  0.3455 -0.2138 -0.1997
 1683SOL    HW1 5957   6.288   1.726   0.121  0.9597  0.5621  1.5763
 1683SOL    HW2 5958   6.298   1.866   0.063  0.3206  0.0418  0.1576
 1684SOL     OW 5959   4.678   6.061   7.397  0.3760  1.2914  0.0973
 1684SOL    HW1 5960   4.729   5.984   7.374 -1.5708  0.1007 -0.4326
 1684SOL    HW2 5961   4.722   6.133   7.352  2.3717  0.5939  0.7950
 1685SOL     OW 5962   6.016   5.002   6.268 -0.4570  0.2656  0.1463
 1685SOL    HW1 5963   6.103   4.978   6.236 -1.0330 -0.3155 -1.0547
 1685SOL    HW2 5964   5.968   4.919   6.271 -1.4439  0.7723 -0.7528
 1686SOL     OW 5965   3.439   4.901   1.857  0.6657  0.4811 -0.0420
 1686SOL    HW1 5966   3.373   4.959   1.820  0.0940 -0.5987 -0.7554
 1686SOL    HW2 5967   3.484   4.955   1.923  0.0432  1.6629 -0.5548
 1687SOL     OW 5968   4.397   3.563   0.347  0.7620 -0.6174  0.1197
 1687SOL    HW1 5969   4.348   3.567   0.265  0.6081  0.0446  0.2341
 1687SOL    HW2 5970   4.411   3.655   0.371  0.6778 -0.8052  0.9144
 1688SOL     OW 5971   1.957   0.329   5.421  0.3545  0.4409  0.1927
 1688SOL    HW1 5972   1.989   0.381   5.347  0.7317 -0.1188 -0.0497
 1688SOL    HW2 5973   2.024   0.338   5.488  0.1727  0.6803  0.3423
 1689SOL     OW 5974   2.203   2.698   6.561  0.4824  0.1091  0.0030
 1689SOL    HW1 5975   2.157   2.772   6.600  0.7065 -0.0694  0.6221
 1689SOL    HW2 5976   2.142   2.663   6.496  0.6383  1.2278 -0.7524
 1690SOL     OW 5977   5.095   7.117   0.088 -0.1441  0.0298  0.1498
 1690SOL    HW1 5978   5.066   7.042   0.141  0.3590  0.0420  0.4444
 1690SOL    HW2 5979   5.165   7.082   0.033 -1.2795 -0.2145 -1.1973
 1691SOL     OW 5980   4.743   3.790   7.233 -0.5484  0.0770  0.2502
 1691SOL    HW1 5981   4.665   3.806   7.179  0.0510 -2.0310 -1.4134
 1691SOL    HW2 5982   4.816   3.820   7.179 -0.0431 -0.6038  0.5384
 1692SOL     OW 5983   3.653   3.123   5.468 -0.0725 -0.4185  0.4319
 1692SOL    HW1 5984   3.723   3.060   5.485 -0.6824 -1.4932 -0.7928
 1692SOL    HW2 5985   3.591   3.075   5.414 -0.9503  1.0188  0.1059
 1693SOL     OW 5986   5.117   0.742   4.509 -0.7848 -0.5199 -0.5515
 1693SOL    HW1 5987   5.169   0.817   4.481 -1.2582 -0.3299 -0.9542
 1693SOL    HW2 5988   5.177   0.689   4.561  0.2845 -1.1184 -2.3077
 1694SOL     OW 5989   3.320   2.717   2.623  0.3867  0.0560 -0.3254
 1694SOL    HW1 5990   3.384   2.776   2.663  0.0697  0.2295 -0.0716
 1694SOL    HW2 5991   3.355   2.629   2.641  0.7499  0.1562 -0.5215
 1695SOL     OW 5992   5.474   1.869   6.743 -0.6964 -0.6827  0.4936
 1695SOL    HW1 5993   5.469   1.855   6.838 -0.3995 -1.0703  0.4544
 1695SOL    HW2 5994   5.399   1.823   6.707 -2.1668  1.3969  0.7314
 1696SOL     OW 5995   1.452   4.299   4.319 -0.2886 -0.0934 -0.0469
 1696SOL    HW1 5996   1.481   4.390   4.328  2.4070 -1.0289  2.2162
 1696SOL    HW2 5997   1.406   4.281   4.401 -0.6465 -0.8483 -0.4039
 1697SOL     OW 5998   3.183   4.791   1.658 -0.3709 -0.5144 -0.0975
 1697SOL    HW1 5999   3.241   4.721   1.630 -0.0666 -0.4343  0.3179
 1697SOL    HW2 6000   3.227   4.871   1.630  0.3101 -0.3949  1.2439
 1698SOL     OW 6001   5.390   4.934   7.607  0.6027 -0.1250  0.0856
 1698SOL    HW1 6002   5.479   4.962   7.628 -0.4079  1.5390  2.6147
 1698SOL    HW2 6003   5.350   4.916   7.692 -1.4456 -1.0043 -0.9998
 1699SOL     OW 6004   7.502   0.367   6.488 -0.5063 -0.1494 -0.2751
 1699SOL    HW1 6005   7.454   0.376   6.406 -0.3957 -1.2480 -0.4713
 1699SOL    HW2 6006   7.553   0.287   6.478  1.2720  0.8892 -0.0091
 1700SOL     OW 6007   3.056   5.182   5.671 -0.5578  0.0078 -0.5683
 1700SOL    HW1 6008   3.030   5.197   5.761 -2.0547  0.3396 -1.0292
 1700SOL    HW2 6009   3.121   5.111   5.676 -2.4490 -1.7650  0.5842
 1701SOL     OW 6010   1.364   5.827   4.584 -0.2653 -0.6334  0.2405
 1701SOL    HW1 6011   1.455   5.801   4.568 -0.2871 -0.6212  0.1006
 1701SOL    HW2 6012   1.314   5.783   4.516 -0.2476  0.1352 -0.2848
 1702SOL     OW 6013   2.131   6.953   5.942  0.0359  0.2388 -0.2228
 1702SOL    HW1 6014   2.201   7.018   5.943  0.3409 -0.0898 -0.2777
 1702SOL    HW2 6015   2.055   7.000   5.907  0.8484 -0.0461 -2.5479
 1703SOL     OW 6016   5.670   3.021   2.874 -0.4644 -0.0051 -0.4997
 1703SOL    HW1 6017   5.640   3.111   2.867 -1.3051 -0.1161  1.3138
 1703SOL    HW2 6018   5.617   2.982   2.943  2.0457 -0.9574  1.0267
 1704SOL     OW 6019   5.654   5.837   4.983  0.3566 -0.3818  0.2830
 1704SOL    HW1 6020   5.622   5.859   5.071  0.6607  0.0863  0.2778
 1704SOL    HW2 6021   5.632   5.744   4.973 -0.1384 -0.3077  0.6511
 1705SOL     OW 6022   3.017   7.735   3.149  0.0880 -0.0635  0.0878
 1705SOL    HW1 6023   2.930   7.695   3.158  0.8572 -1.8361  0.0413
 1705SOL    HW2 6024   3.008   7.821   3.190 -1.7971 -0.0274 -0.2968
 1706SOL     OW 6025   1.508   5.480   5.535 -0.1002  0.4363  0.5842
 1706SOL    HW1 6026   1.506   5.455   5.627 -0.4226 -0.3968  0.3606
 1706SOL    HW2 6027   1.500   5.397   5.487 -1.5119  0.9789 -0.1860
 1707SOL     OW 6028   0.035   4.486   5.634 -0.3734  0.2036  0.2189
 1707SOL    HW1 6029   0.100   4.537   5.586 -1.8272  0.8630 -1.1156
 1707SOL    HW2 6030   0.034   4.524   5.722  0.2247  0.9144 -0.0754
 1708SOL     OW 6031   4.822   5.749   4.382  0.6644  0.0367  0.5406
 1708SOL    HW1 6032   4.911   5.728   4.410  0.3351 -0.5039  1.2227
 1708SOL    HW2 6033   4.833   5.807   4.306  1.6278  1.7200  1.8759
 1709SOL     OW 6034   3.932   7.046   1.437 -0.5790 -0.1009  0.1897
 1709SOL    HW1 6035   3.959   7.098   1.512 -0.4414  0.4719 -0.2540
 1709SOL    HW2 6036   3.891   7.108   1.377 -0.2859 -0.4636 -0.4080
 1710SOL     OW 6037   2.439   7.174   5.533  0.4678  0.0075 -0.3691
 1710SOL    HW1 6038   2.519   7.215   5.565  1.0701 -2.0577  0.9619
 1710SOL    HW2 6039   2.379   7.179   5.608  0.3189 -0.8990 -0.4246
 1711SOL     OW 6040   4.230   0.280   6.162  0.5198 -0.0143 -0.0245
 1711SOL    HW1 6041   4.216   0.302   6.070  0.0910  0.0318  0.0537
 1711SOL    HW2 6042   4.273   0.194   6.159  1.6230  0.5306 -0.3030
 1712SOL     OW 6043   7.711   7.614   4.634 -0.7226 -0.1499  0.6520
 1712SOL    HW1 6044   7.648   7.684   4.656 -1.8223 -0.7091 -0.6002
 1712SOL    HW2 6045   7.787   7.660   4.599 -1.6934  0.4416 -0.7875
 1713SOL     OW 6046   5.583   6.509   3.252  0.1252 -0.0273  0.0088
 1713SOL    HW1 6047   5.573   6.437   3.190  0.0624  0.2814 -0.3405
 1713SOL    HW2 6048   5.495   6.524   3.286  0.0882  0.0733 -0.1309
 1714SOL     OW 6049   5.891   7.192   4.809 -0.2444 -0.5861  0.3498
 1714SOL    HW1 6050   5.852   7.154   4.888 -0.4395 -1.1541 -0.0100
 1714SOL    HW2 6051   5.835   7.161   4.738  0.4619 -0.8368 -0.1043
 1715SOL     OW 6052   7.695   4.283   7.226  0.5119 -0.0303  0.2237
 1715SOL    HW1 6053   7.688   4.345   7.154 -1.7591 -1.6769 -1.0866
 1715SOL    HW2 6054   7.669   4.333   7.304 -2.2185  0.5173 -0.9309
 1716SOL     OW 6055   0.919   5.617   7.592  0.2705 -0.6445  0.0703
 1716SOL    HW1 6056   0.936   5.571   7.509  1.3714 -0.8987  0.4166
 1716SOL    HW2 6057   1.006   5.646   7.621 -0.1667 -0.1428  0.8990
 1717SOL     OW 6058   0.498   1.391   7.115  0.1497 -0.6422 -0.3066
 1717SOL    HW1 6059   0.508   1.482   7.143  1.3500 -1.2558  1.3684
 1717SOL    HW2 6060   0.406   1.370   7.133 -0.6463  0.7157 -2.3628
 1718SOL     OW 6061   1.925   0.200   7.314  0.3201  0.2733 -0.3927
 1718SOL    HW1 6062   1.902   0.165   7.400  1.1676 -1.8011 -0.9399
 1718SOL    HW2 6063   2.009   0.244   7.328  0.8953 -0.8088 -0.2781
 1719SOL     OW 6064   6.550   0.780   7.066  0.0871  0.5508 -0.1058
 1719SOL    HW1 6065   6.567   0.727   7.143  3.9288  3.2427  1.2078
 1719SOL    HW2 6066   6.466   0.822   7.083 -1.3001 -2.2092  0.4010
 1720SOL     OW 6067   1.685   1.234   6.754 -0.2503  0.3525  0.5661
 1720SOL    HW1 6068   1.738   1.205   6.828  2.0438  3.2730  0.2461
 1720SOL    HW2 6069   1.625   1.299   6.791 -0.4415  0.4065  0.1653
 1721SOL     OW 6070   0.668   7.608   6.328  0.1662  0.1539 -0.4629
 1721SOL    HW1 6071   0.722   7.671   6.279  0.5266 -0.0707 -0.3591
 1721SOL    HW2 6072   0.693   7.620   6.419  0.1095 -0.0196 -0.4237
 1722SOL     OW 6073   7.420   5.577   5.254  0.1258 -0.2723 -0.1663
 1722SOL    HW1 6074   7.442   5.561   5.162 -0.3370  1.6000 -0.6303
 1722SOL    HW2 6075   7.488   5.637   5.284 -0.8330  0.6704  0.1443
 1723SOL     OW 6076   3.688   2.095   5.005  0.9311  0.1272  0.9828
 1723SOL    HW1 6077   3.732   2.036   4.942 -0.4890 -0.2766  0.3392
 1723SOL    HW2 6078   3.662   2.038   5.077 -1.0268 -0.2160  0.0639
 1724SOL     OW 6079   3.886   7.365   1.861  0.4519  0.3014  0.9029
 1724SOL    HW1 6080   3.794   7.379   1.836  0.2806 -0.0005  1.3482
 1724SOL    HW2 6081   3.935   7.425   1.805 -0.1446  1.7646  1.9028
 1725SOL     OW 6082   1.034   5.751   4.093  0.0264 -0.5043  0.7032
 1725SOL    HW1 6083   1.086   5.817   4.140 -1.4786  1.2904 -0.0546
 1725SOL    HW2 6084   0.964   5.728   4.154 -1.5292  1.3211 -0.2827
 1726SOL     OW 6085   0.690   3.052   1.191 -0.5144  0.2175  0.7652
 1726SOL    HW1 6086   0.646   3.054   1.276 -0.5963 -2.5095  0.8657
 1726SOL    HW2 6087   0.756   2.984   1.199  0.8610  1.2799 -0.7687
 1727SOL     OW 6088   0.737   1.148   0.707  0.1294 -0.0015 -0.1487
 1727SOL    HW1 6089   0.718   1.065   0.750  1.1465  0.1454  0.6475
 1727SOL    HW2 6090   0.680   1.150   0.631 -2.3099  0.0465  1.5645
 1728SOL     OW 6091   2.719   5.460   0.553 -0.0254  0.8354 -0.3158
 1728SOL    HW1 6092   2.665   5.499   0.484  0.6966  1.9175 -0.2873
 1728SOL    HW2 6093   2.674   5.483   0.634  0.5888  1.9621 -0.2760
 1729SOL     OW 6094   2.868   2.324   6.162  0.3583 -0.5785 -0.3240
 1729SOL    HW1 6095   2.846   2.242   6.118 -2.3098 -0.3039  0.3713
 1729SOL    HW2 6096   2.810   2.328   6.238  0.9216  1.6184  0.0741
 1730SOL     OW 6097   4.164   5.855   3.250 -0.2299 -0.3279 -1.3150
 1730SOL    HW1 6098   4.146   5.936   3.297 -1.1224  0.3657 -2.8032
 1730SOL    HW2 6099   4.240   5.818   3.296 -0.6297  0.6500  0.2139
 1731SOL     OW 6100   4.059   4.103   5.718 -0.0608  0.3343 -0.6475
 1731SOL    HW1 6101   3.965   4.094   5.699 -0.3685  1.6573  0.1214
 1731SOL    HW2 6102   4.102   4.057   5.646 -1.2951 -0.6456 -0.8159
 1732SOL     OW 6103   0.988   0.978   2.193  0.0523  0.2823 -0.2515
 1732SOL    HW1 6104   0.921   0.963   2.259 -0.1240 -2.4044 -0.9182
 1732SOL    HW2 6105   1.071   0.963   2.239  0.2344  2.7365  0.3533
 1733SOL     OW 6106   3.347   2.310   6.347  0.1444 -0.0171  0.1139
 1733SOL    HW1 6107   3.261   2.298   6.308  0.9891  0.2743 -2.0214
 1733SOL    HW2 6108   3.353   2.404   6.364  0.2971  0.0802 -0.4484
 1734SOL     OW 6109   6.227   0.503   7.045  0.0997  0.9652 -0.2629
 1734SOL    HW1 6110   6.216   0.515   7.139 -0.3642  0.9684 -0.3158
 1734SOL    HW2 6111   6.200   0.412   7.029  1.8497  0.3774 -0.1380
 1735SOL     OW 6112   0.211   0.280   7.354 -0.0316  0.1048  0.4043
 1735SOL    HW1 6113   0.305   0.280   7.335  0.1533 -1.9726  1.1318
 1735SOL    HW2 6114   0.170   0.308   7.272  1.2570  3.1978  0.6772
 1736SOL     OW 6115   5.085   4.657   7.452  0.1919 -0.4350  0.3256
 1736SOL    HW1 6116   5.031   4.692   7.381  1.8016  0.4318 -0.5142
 1736SOL    HW2 6117   5.112   4.571   7.421 -0.0023 -0.5164  0.3785
 1737SOL     OW 6118   5.922   2.282   5.389  0.2761 -0.0774 -0.3889
 1737SOL    HW1 6119   6.013   2.300   5.412 -0.2671 -0.1593  2.1367
 1737SOL    HW2 6120   5.884   2.368   5.371  0.2291  0.2810  1.2811
 1738SOL     OW 6121   1.132   7.469   0.748  0.1673  0.0710 -0.3727
 1738SOL    HW1 6122   1.137   7.438   0.658  2.2150 -0.4251 -0.1347
 1738SOL    HW2 6123   1.170   7.557   0.746  0.0357  0.1396 -0.0147
 1739SOL     OW 6124   1.756   1.092   3.350  0.3359  0.1916  0.2834
 1739SOL    HW1 6125   1.682   1.073   3.406  0.5387 -1.1392  0.1401
 1739SOL    HW2 6126   1.818   1.139   3.406 -0.5410  1.2012  0.4331
 1740SOL     OW 6127   4.088   7.193   7.657 -0.1234  0.4663  0.3301
 1740SOL    HW1 6128   4.085   7.117   7.599  2.2920  0.9504 -0.5086
 1740SOL    HW2 6129   4.121   7.264   7.603 -2.1720  2.1408  1.1504
 1741SOL     OW 6130   2.778   2.502   7.041  0.2800  0.2618 -0.3177
 1741SOL    HW1 6131   2.787   2.407   7.041 -0.1615  0.2178  0.0433
 1741SOL    HW2 6132   2.698   2.519   7.090  1.1774  0.8925  1.0055
 1742SOL     OW 6133   0.342   0.508   1.706  0.0730 -1.0712 -0.0766
 1742SOL    HW1 6134   0.434   0.487   1.721 -0.0695 -1.0627  0.8606
 1742SOL    HW2 6135   0.342   0.600   1.679  0.2537 -0.7386  1.0208
 1743SOL     OW 6136   4.475   0.396   5.123  0.4446  0.0971  0.1032
 1743SOL    HW1 6137   4.405   0.343   5.161  1.6623 -3.0460 -1.6527
 1743SOL    HW2 6138   4.536   0.411   5.195 -0.0143 -0.7646  0.6891
 1744SOL     OW 6139   7.406   3.786   1.739 -0.2498  0.0726  0.2536
 1744SOL    HW1 6140   7.356   3.755   1.814 -0.5525 -1.5522 -0.5797
 1744SOL    HW2 6141   7.353   3.857   1.702 -0.7190  0.0150  0.8058
 1745SOL     OW 6142   5.380   4.966   7.264  1.0984 -0.6457  0.5546
 1745SOL    HW1 6143   5.441   5.016   7.319  0.1262 -0.1332  1.1927
 1745SOL    HW2 6144   5.424   4.882   7.250  2.1311 -0.1338  0.6591
 1746SOL     OW 6145   5.721   1.083   0.114  0.2251 -0.4896  0.0224
 1746SOL    HW1 6146   5.773   1.037   0.179 -1.1651 -1.8691  0.2177
 1746SOL    HW2 6147   5.648   1.120   0.163  1.9187  3.2121  0.1241
 1747SOL     OW 6148   6.129   5.656   0.503  0.4573  0.0317  0.1157
 1747SOL    HW1 6149   6.074   5.655   0.425  1.1117  0.0214 -0.3609
 1747SOL    HW2 6150   6.168   5.569   0.506  2.8004  0.9021 -1.3207
 1748SOL     OW 6151   0.050   3.501   6.327  0.1177 -0.2653 -0.1911
 1748SOL    HW1 6152   0.081   3.446   6.255 -0.9863 -0.2749 -0.6817
 1748SOL    HW2 6153  -0.016   3.448   6.371 -1.3302  0.8096 -0.9759
 1749SOL     OW 6154   6.628   6.090   0.642 -0.5797  0.0964 -0.1547
 1749SOL    HW1 6155   6.632   6.162   0.580 -1.5144 -0.0206 -0.3657
 1749SOL    HW2 6156   6.556   6.113   0.701 -1.0287 -0.7637 -0.3579
 1750SOL     OW 6157   4.494   1.251   5.437 -0.3381 -0.7823  0.1304
 1750SOL    HW1 6158   4.464   1.172   5.480 -1.2029 -1.4448 -1.5862
 1750SOL    HW2 6159   4.444   1.254   5.355  1.0799  0.4933 -0.7434
 1751SOL     OW 6160   0.087   2.124   5.966  0.2236  0.0930 -0.5695
 1751SOL    HW1 6161   0.100   2.211   5.927  0.6455  0.1045 -0.4063
 1751SOL    HW2 6162   0.113   2.063   5.896  2.1054  0.1163  0.0334
 1752SOL     OW 6163   0.389   2.029   3.007  1.0215  0.0286  0.5020
 1752SOL    HW1 6164   0.440   1.989   3.078  0.2645 -1.0778  0.4510
 1752SOL    HW2 6165   0.421   1.986   2.928  0.3705 -0.3174  0.4173
 1753SOL     OW 6166   6.515   1.565   0.585 -0.4237  0.6856  0.4455
 1753SOL    HW1 6167   6.492   1.473   0.573 -1.1269  0.7690  1.0862
 1753SOL    HW2 6168   6.451   1.612   0.532 -1.6713  0.9072  2.0635
 1754SOL     OW 6169   7.594   6.927   7.217  0.1787 -0.1123 -0.2268
 1754SOL    HW1 6170   7.672   6.913   7.271  1.1277  0.9182 -1.2927
 1754SOL    HW2 6171   7.567   7.017   7.235 -0.3341 -0.2202 -0.4224
 1755SOL     OW 6172   0.837   6.168   5.152  0.3446 -0.1586 -0.1617
 1755SOL    HW1 6173   0.804   6.248   5.112 -0.3679 -1.3252 -2.0175
 1755SOL    HW2 6174   0.828   6.101   5.084  0.9728 -1.8168  1.3075
 1756SOL     OW 6175   5.584   0.400   2.928 -0.0259 -0.1865  0.1079
 1756SOL    HW1 6176   5.604   0.489   2.899 -0.4132  0.7507  2.5075
 1756SOL    HW2 6177   5.531   0.363   2.857 -3.5625  3.0240  0.7834
 1757SOL     OW 6178   7.653   6.396   1.600 -0.4987 -0.6500  0.0361
 1757SOL    HW1 6179   7.707   6.407   1.678 -0.5762 -2.2234  0.3305
 1757SOL    HW2 6180   7.585   6.463   1.609 -0.1016 -0.3556  0.9572
 1758SOL     OW 6181   2.416   1.324   2.632  0.8258  0.0723  0.0482
 1758SOL    HW1 6182   2.332   1.325   2.676  0.1703 -1.3610 -1.0567
 1758SOL    HW2 6183   2.437   1.416   2.616 -1.5467  0.4277 -1.4651
 1759SOL     OW 6184   3.868   0.921   6.028  0.3146  0.0610 -0.5032
 1759SOL    HW1 6185   3.840   1.000   5.981 -0.2398  0.2253  0.0785
 1759SOL    HW2 6186   3.799   0.857   6.009 -0.0233  0.1915  0.2266
 1760SOL     OW 6187   4.628   3.463   1.737 -0.3443 -0.2069 -0.6367
 1760SOL    HW1 6188   4.606   3.424   1.652  0.8574 -1.9060 -0.2371
 1760SOL    HW2 6189   4.705   3.516   1.719 -0.3497 -0.2171 -0.6917
 1761SOL     OW 6190   2.659   4.199   2.335  0.4069 -0.3207  0.5213
 1761SOL    HW1 6191   2.644   4.225   2.426 -0.5397 -0.5250  0.4333
 1761SOL    HW2 6192   2.743   4.153   2.337  0.8657  0.4944  1.1168
 1762SOL     OW 6193   5.288   0.285   3.824 -0.4601  0.9853 -0.2303
 1762SOL    HW1 6194   5.250   0.354   3.769 -1.0780  1.6465  0.9843
 1762SOL    HW2 6195   5.229   0.280   3.899  1.3821  1.4386  1.3056
 1763SOL     OW 6196   5.680   6.018   0.110  0.1310  0.3383 -0.5817
 1763SOL    HW1 6197   5.603   5.971   0.142  0.9287 -1.3146 -1.0051
 1763SOL    HW2 6198   5.738   5.950   0.077  1.9504  1.5074  0.0640
 1764SOL     OW 6199   7.172   1.217   4.135  0.1717 -0.0454 -0.6457
 1764SOL    HW1 6200   7.113   1.234   4.062 -2.0875  0.4711  1.1792
 1764SOL    HW2 6201   7.192   1.303   4.171 -1.6467 -0.4208  1.4368
 1765SOL     OW 6202   2.421   1.460   4.930  0.1538  0.0478 -0.4286
 1765SOL    HW1 6203   2.401   1.545   4.891  0.0471  0.5736  0.7387
 1765SOL    HW2 6204   2.336   1.425   4.956  0.3158  0.1810  0.2876
 1766SOL     OW 6205   6.960   1.232   0.702 -0.2571 -0.1184  0.7682
 1766SOL    HW1 6206   6.998   1.154   0.663 -0.3604 -0.0501  0.5238
 1766SOL    HW2 6207   6.951   1.293   0.628 -2.7721 -0.8573  0.3725
 1767SOL     OW 6208   0.962   5.693   1.630  0.6079  0.1819  0.3224
 1767SOL    HW1 6209   1.057   5.685   1.626  0.5863  0.2193 -0.6091
 1767SOL    HW2 6210   0.931   5.603   1.620  0.5225  0.3773 -1.4743
 1768SOL     OW 6211   4.592   5.639   5.978  0.7278 -0.0440 -0.5366
 1768SOL    HW1 6212   4.552   5.566   6.026  0.4680 -1.4526 -2.7311
 1768SOL    HW2 6213   4.537   5.714   5.998  1.4235 -0.1609  2.3962
 1769SOL     OW 6214   2.702   2.978   4.070 -0.4089 -0.0760 -0.1106
 1769SOL    HW1 6215   2.703   2.889   4.035  0.5011 -0.0828 -0.0949
 1769SOL    HW2 6216   2.720   2.967   4.164  0.8357  0.1930 -0.3064
 1770SOL     OW 6217   1.479   1.574   5.611  0.3546 -0.0740  0.0971
 1770SOL    HW1 6218   1.429   1.612   5.683  1.0832 -0.4725  0.8424
 1770SOL    HW2 6219   1.505   1.649   5.557 -1.3116  0.1006 -0.5027
 1771SOL     OW 6220   0.296   0.567   6.885  0.1007 -0.0040 -0.1691
 1771SOL    HW1 6221   0.334   0.488   6.923 -0.9930  0.2943  1.6348
 1771SOL    HW2 6222   0.233   0.535   6.821 -1.4375 -0.6886  1.6200
 1772SOL     OW 6223   4.950   6.774   6.433  0.2578 -0.0077 -0.1636
 1772SOL    HW1 6224   4.984   6.818   6.355  0.6896 -0.3267 -0.1577
 1772SOL    HW2 6225   4.876   6.722   6.401 -0.7386  1.2998 -0.0463
 1773SOL     OW 6226   5.653   5.229   3.281  0.2668  0.2675  0.4292
 1773SOL    HW1 6227   5.673   5.200   3.192 -0.6861  0.6914  0.0565
 1773SOL    HW2 6228   5.574   5.283   3.271 -0.3454 -0.3734  1.6428
 1774SOL     OW 6229   4.402   7.111   0.757  0.0506 -0.3475  0.1165
 1774SOL    HW1 6230   4.411   7.017   0.771 -0.4169 -0.2525  1.1705
 1774SOL    HW2 6231   4.401   7.149   0.845 -0.2619  0.5929 -0.2721
 1775SOL     OW 6232   4.178   6.522   1.047 -0.3396 -0.2515  0.5298
 1775SOL    HW1 6233   4.140   6.596   1.095 -2.1650  1.1267 -2.6943
 1775SOL    HW2 6234   4.127   6.447   1.074 -2.3306  0.7540 -0.2512
 1776SOL     OW 6235   1.191   6.459   1.932  0.3928  0.2415  0.0585
 1776SOL    HW1 6236   1.242   6.448   1.851 -0.9662  1.3281 -1.0150
 1776SOL    HW2 6237   1.146   6.375   1.944  1.1609 -0.1714  0.1093
 1777SOL     OW 6238   7.218   4.201   4.456 -1.1474 -0.4284  0.1762
 1777SOL    HW1 6239   7.278   4.128   4.444 -0.4947  0.1908 -0.4543
 1777SOL    HW2 6240   7.202   4.234   4.367 -1.3399  0.2527  0.4519
 1778SOL     OW 6241   5.688   6.174   2.778 -0.3130 -0.2636  0.1086
 1778SOL    HW1 6242   5.671   6.080   2.783  0.8000 -0.5167 -0.6267
 1778SOL    HW2 6243   5.635   6.205   2.704 -0.8947 -0.2567  0.5261
 1779SOL     OW 6244   5.639   2.871   7.288 -0.2295 -0.5216  0.1258
 1779SOL    HW1 6245   5.710   2.888   7.349 -0.0938 -1.0631  0.1191
 1779SOL    HW2 6246   5.676   2.887   7.201 -0.1413 -0.7292  0.1266
 1780SOL     OW 6247   4.527   5.555   1.347  0.0217  0.2927 -0.1725
 1780SOL    HW1 6248   4.519   5.625   1.283  1.7957  0.7206  0.0386
 1780SOL    HW2 6249   4.585   5.589   1.414 -0.1618 -0.8993  0.6326
 1781SOL     OW 6250   0.804   0.625   1.731 -0.3059 -0.1098 -0.1262
 1781SOL    HW1 6251   0.819   0.559   1.798  0.0622  0.8750  0.7847
 1781SOL    HW2 6252   0.885   0.677   1.729 -0.5229  0.2205 -0.9304
 1782SOL     OW 6253   6.042   7.582   6.088 -0.4854  0.3673  0.4411
 1782SOL    HW1 6254   6.114   7.644   6.087  0.0236 -0.1362 -2.4618
 1782SOL    HW2 6255   6.076   7.505   6.043 -2.5236 -0.2694 -0.1221
 1783SOL     OW 6256   3.884   1.474   2.669 -0.2474  0.2788  0.5881
 1783SOL    HW1 6257   3.923   1.388   2.681 -2.0797 -0.4967  1.3206
 1783SOL    HW2 6258   3.820   1.462   2.599 -0.4968  1.0606  0.6674
 1784SOL     OW 6259   4.400   7.380   4.492  0.1670  0.5757  0.5493
 1784SOL    HW1 6260   4.445   7.341   4.567  0.0984 -0.2032  0.1904
 1784SOL    HW2 6261   4.342   7.311   4.460  0.7760  0.6259 -0.7061
 1785SOL     OW 6262   6.999   6.633   5.499 -0.0658  0.0103 -0.0217
 1785SOL    HW1 6263   6.987   6.638   5.405 -0.1940  1.7869  0.0571
 1785SOL    HW2 6264   7.081   6.584   5.511  0.0508 -0.0485 -1.0396
 1786SOL     OW 6265   2.987   6.423   7.222 -0.4445  0.0949  0.3315
 1786SOL    HW1 6266   2.905   6.470   7.212 -0.8934 -0.2836  1.9730
 1786SOL    HW2 6267   2.962   6.331   7.226  0.0840 -0.0453  0.5070
 1787SOL     OW 6268   2.495   6.424   7.381  0.2377 -0.7305  0.0129
 1787SOL    HW1 6269   2.401   6.420   7.398  0.3168 -0.4592  0.5292
 1787SOL    HW2 6270   2.535   6.437   7.467  0.5558  1.9503 -0.4528
 1788SOL     OW 6271   5.105   3.333   0.590 -0.1276 -0.1318  0.3491
 1788SOL    HW1 6272   5.189   3.287   0.584 -1.4471 -2.6626  0.2881
 1788SOL    HW2 6273   5.063   3.318   0.505 -0.0011  2.6499 -0.3296
 1789SOL     OW 6274   5.945   2.513   3.829 -0.3369 -0.2403 -0.1132
 1789SOL    HW1 6275   5.878   2.561   3.782 -0.2974 -0.1963 -0.1248
 1789SOL    HW2 6276   5.901   2.435   3.862 -0.7125  0.3993  0.9483
 1790SOL     OW 6277   2.032   6.710   6.677 -0.0584 -0.1786 -0.3208
 1790SOL    HW1 6278   1.953   6.661   6.702 -0.7167  1.2439  0.5135
 1790SOL    HW2 6279   2.004   6.802   6.678  1.6847  0.3817  0.3407
 1791SOL     OW 6280   1.706   1.218   1.232 -0.4085 -0.2889 -0.4715
 1791SOL    HW1 6281   1.704   1.142   1.174 -2.7998  0.3663 -1.3741
 1791SOL    HW2 6282   1.729   1.291   1.175  0.7109 -0.1166  0.1646
 1792SOL     OW 6283   1.916   4.726   5.795 -0.2192  0.1202 -0.0051
 1792SOL    HW1 6284   1.980   4.676   5.845 -0.1357  1.1055  0.8983
 1792SOL    HW2 6285   1.954   4.734   5.708 -0.2446 -1.3842 -0.1796
 1793SOL     OW 6286   6.215   5.323   4.736  0.2636 -0.1338  0.0673
 1793SOL    HW1 6287   6.213   5.387   4.665  0.7857  1.6394  1.5669
 1793SOL    HW2 6288   6.272   5.253   4.704  0.8292  0.8195 -1.1017
 1794SOL     OW 6289   2.494   5.592   7.716 -0.4081  0.7209 -0.4906
 1794SOL    HW1 6290   2.507   5.532   7.790 -1.9770  0.6465 -0.2336
 1794SOL    HW2 6291   2.518   5.540   7.639  0.1276  0.4103 -0.1182
 1795SOL     OW 6292   4.019   3.191   0.986  0.7361 -0.0048 -0.5504
 1795SOL    HW1 6293   4.047   3.280   1.007  1.5011 -0.4066  0.1888
 1795SOL    HW2 6294   4.076   3.135   1.039  0.4766 -0.9456 -1.2494
 1796SOL     OW 6295   3.794   5.216   7.562 -0.3377  0.6355 -0.8646
 1796SOL    HW1 6296   3.784   5.144   7.500 -1.0547 -1.5719  1.6256
 1796SOL    HW2 6297   3.705   5.243   7.582 -0.2400 -0.0725  0.6601
 1797SOL     OW 6298   6.374   3.699   1.892  0.1045  0.0352  0.4216
 1797SOL    HW1 6299   6.284   3.701   1.859 -0.0957  1.4419  0.9783
 1797SOL    HW2 6300   6.392   3.606   1.905 -2.4051 -0.2191  3.1960
 1798SOL     OW 6301   7.063   0.024   6.232  0.2795 -0.1464  0.2314
 1798SOL    HW1 6302   7.032   0.040   6.321  0.0473  0.7035  0.0070
 1798SOL    HW2 6303   6.986  -0.006   6.184  0.3293 -0.2821  0.2356
 1799SOL     OW 6304   4.151   5.799   2.333 -0.1226 -0.1860  0.2747
 1799SOL    HW1 6305   4.105   5.715   2.334  0.0345 -0.2906 -0.5983
 1799SOL    HW2 6306   4.244   5.775   2.344 -0.0736 -0.1365 -0.0182
 1800SOL     OW 6307   0.776   4.451   3.457  0.3126  0.0089  0.1986
 1800SOL    HW1 6308   0.747   4.541   3.466 -2.8522 -0.8783 -0.2041
 1800SOL    HW2 6309   0.719   4.401   3.516  0.0263 -2.0709 -1.7231
 1801SOL     OW 6310   5.068   3.534   2.308  0.0551 -0.6033 -0.3944
 1801SOL    HW1 6311   5.089   3.627   2.297 -0.5862 -0.4152 -0.1043
 1801SOL    HW2 6312   5.067   3.521   2.403  1.1827 -1.1623 -0.4495
 1802SOL     OW 6313   6.846   6.098   6.972 -0.0675  0.3426 -0.0248
 1802SOL    HW1 6314   6.845   6.053   7.056 -3.3675 -0.7487 -0.5127
 1802SOL    HW2 6315   6.848   6.191   6.993  0.8102  0.0697  1.1711
 1803SOL     OW 6316   6.070   3.812   1.760  0.4045 -0.2777  0.4190
 1803SOL    HW1 6317   6.105   3.878   1.701  0.8348 -0.8018  0.0732
 1803SOL    HW2 6318   5.984   3.845   1.786  0.0659 -0.1959 -0.7676
 1804SOL     OW 6319   2.659   6.729   2.310 -0.3768  0.4544  0.2945
 1804SOL    HW1 6320   2.626   6.726   2.220  2.6444  0.2491 -0.9135
 1804SOL    HW2 6321   2.713   6.651   2.319 -2.5129 -0.8609  3.2100
 1805SOL     OW 6322   7.477   3.691   0.983 -0.2024 -0.3325 -0.7895
 1805SOL    HW1 6323   7.533   3.742   0.924  0.9104 -0.1442  0.3654
 1805SOL    HW2 6324   7.434   3.756   1.038 -0.0298 -0.5497 -0.3856
 1806SOL     OW 6325   2.591   5.697   6.341  0.1833  0.2071  0.0797
 1806SOL    HW1 6326   2.525   5.763   6.319  0.5693  1.0039  1.2149
 1806SOL    HW2 6327   2.653   5.700   6.267 -0.3368  0.3985 -0.3593
 1807SOL     OW 6328   2.551   7.239   6.159 -0.4291  0.4251  0.2546
 1807SOL    HW1 6329   2.546   7.227   6.064 -1.2671 -0.5636  0.4073
 1807SOL    HW2 6330   2.644   7.226   6.179 -0.3744 -0.1843 -0.3379
 1808SOL     OW 6331   4.822   1.929   3.309 -0.0660  0.4588  0.1785
 1808SOL    HW1 6332   4.771   1.956   3.233 -0.4155  0.2005  0.3228
 1808SOL    HW2 6333   4.765   1.946   3.384  0.2277  0.5901  0.3783
 1809SOL     OW 6334   6.383   1.893   5.505  0.7008 -0.2618 -0.2849
 1809SOL    HW1 6335   6.471   1.889   5.467  0.9536  0.0700  0.2634
 1809SOL    HW2 6336   6.362   1.802   5.525  0.7977 -0.3761 -0.6917
 1810SOL     OW 6337   3.114   6.073   2.882  0.3145 -0.0072  0.0816
 1810SOL    HW1 6338   3.028   6.037   2.863 -0.2945  1.5331 -0.1974
 1810SOL    HW2 6339   3.119   6.075   2.977  0.0117 -0.0155  0.0984
 1811SOL     OW 6340   7.195   6.929   2.695 -0.1607 -0.3530 -0.0171
 1811SOL    HW1 6341   7.163   6.845   2.663 -1.6194  0.4161 -0.6778
 1811SOL    HW2 6342   7.175   6.991   2.624  1.9939  0.3656 -0.0635
 1812SOL     OW 6343   6.357   6.017   2.121 -0.0499 -0.0147 -0.3178
 1812SOL    HW1 6344   6.357   6.059   2.207 -0.6449  0.8592 -0.7282
 1812SOL    HW2 6345   6.270   6.037   2.085  0.2286 -0.2826 -1.1601
 1813SOL     OW 6346   1.607   5.933   1.909 -0.2800 -0.2440 -0.3815
 1813SOL    HW1 6347   1.676   5.972   1.963 -0.8438  0.6806 -0.3061
 1813SOL    HW2 6348   1.551   5.886   1.971  0.3558 -1.1384 -0.4628
 1814SOL     OW 6349   5.727   1.632   5.904  0.0792  0.1987  0.2821
 1814SOL    HW1 6350   5.791   1.678   5.851  2.1062 -1.1262  1.4381
 1814SOL    HW2 6351   5.653   1.693   5.912  0.7583  1.4001 -1.8839
 1815SOL     OW 6352   2.308   5.996   7.726  0.0729  0.2864 -0.3160
 1815SOL    HW1 6353   2.386   6.050   7.718  0.8229 -0.6757  0.3540
 1815SOL    HW2 6354   2.328   5.934   7.796 -1.0069 -0.4626 -0.6432
 1816SOL     OW 6355   2.155   0.236   4.261  0.4076  0.2269  0.6435
 1816SOL    HW1 6356   2.145   0.163   4.199  0.3529 -0.2081  1.1554
 1816SOL    HW2 6357   2.150   0.314   4.206  0.3937 -0.1501  0.0914
 1817SOL     OW 6358   3.349   1.449   0.621  0.1148 -0.4068  0.1079
 1817SOL    HW1 6359   3.308   1.404   0.695  0.0882 -0.5511  0.0075
 1817SOL    HW2 6360   3.443   1.445   0.638  0.0970 -0.2554  0.2378
 1818SOL     OW 6361   2.296   3.278   0.769 -0.2220 -0.3613  0.1288
 1818SOL    HW1 6362   2.268   3.370   0.767 -1.7228 -0.7859 -0.9116
 1818SOL    HW2 6363   2.391   3.281   0.764 -0.2884  1.1347 -0.8296
 1819SOL     OW 6364   3.846   6.457   3.000  0.0689 -0.4180 -0.2033
 1819SOL    HW1 6365   3.761   6.498   3.018 -0.5990 -1.2649 -1.3619
 1819SOL    HW2 6366   3.857   6.394   3.072 -0.1777 -0.1578  0.0682
 1820SOL     OW 6367   6.814   4.633   5.908 -0.6201  0.7987 -0.2006
 1820SOL    HW1 6368   6.739   4.601   5.859  0.0854 -1.6121  0.2009
 1820SOL    HW2 6369   6.801   4.728   5.911 -2.4823  0.6730 -2.0020
 1821SOL     OW 6370   4.618   0.792   7.604  0.5656  0.0226 -0.2473
 1821SOL    HW1 6371   4.538   0.744   7.624 -0.0782 -0.7089 -3.8104
 1821SOL    HW2 6372   4.593   0.884   7.610 -0.0991 -0.1849  0.2524
 1822SOL     OW 6373   4.232   6.293   7.320 -0.2249  0.0137  0.0995
 1822SOL    HW1 6374   4.198   6.215   7.277  0.6522 -0.4275  0.1925
 1822SOL    HW2 6375   4.303   6.261   7.376 -1.1754  0.5941  1.7135
 1823SOL     OW 6376   7.121   3.188   2.933 -0.1320  0.0123 -0.1130
 1823SOL    HW1 6377   7.213   3.183   2.906 -0.6437  0.0106 -1.9927
 1823SOL    HW2 6378   7.084   3.103   2.910 -0.1838 -0.8010  2.5908
 1824SOL     OW 6379   1.940   2.254   6.917 -0.6787  0.3972  0.3766
 1824SOL    HW1 6380   1.957   2.179   6.859  0.6370  2.3078 -1.8946
 1824SOL    HW2 6381   1.851   2.282   6.894 -0.4703  0.6440 -0.1572
 1825SOL     OW 6382   1.228   4.461   3.578  0.1463  0.2102 -0.0724
 1825SOL    HW1 6383   1.235   4.437   3.486  0.1363 -1.9287  0.4222
 1825SOL    HW2 6384   1.313   4.498   3.600 -0.2280  1.8132 -1.1861
 1826SOL     OW 6385   5.023   5.135   5.718 -0.1680 -0.1263  0.0807
 1826SOL    HW1 6386   4.946   5.078   5.710  0.1205 -0.5176  0.0596
 1826SOL    HW2 6387   5.083   5.086   5.774 -0.5557  0.8569  1.4292
 1827SOL     OW 6388   4.221   5.642   6.141  0.1883 -0.1173 -0.6140
 1827SOL    HW1 6389   4.167   5.714   6.173  1.1316  0.3667 -0.0802
 1827SOL    HW2 6390   4.235   5.586   6.217  1.2476  0.2822 -0.5048
 1828SOL     OW 6391   3.662   1.399   6.852 -0.6543  0.1163 -0.0671
 1828SOL    HW1 6392   3.742   1.409   6.799 -0.4639  0.7281  0.3214
 1828SOL    HW2 6393   3.693   1.393   6.942 -0.9633 -1.2313 -0.0294
 1829SOL     OW 6394   4.939   3.233   7.443 -0.7474 -0.1793  0.4188
 1829SOL    HW1 6395   5.006   3.188   7.495 -1.6086 -1.0289  0.8118
 1829SOL    HW2 6396   4.918   3.172   7.372 -1.1798  0.0415  0.3543
 1830SOL     OW 6397   4.727   0.812   0.897 -0.3502  0.2063 -0.1149
 1830SOL    HW1 6398   4.786   0.854   0.833 -1.1083 -0.1906 -1.0939
 1830SOL    HW2 6399   4.785   0.758   0.950  0.0336 -1.3567 -2.0222
 1831SOL     OW 6400   3.300   1.279   3.640 -0.4609 -0.5330  0.1229
 1831SOL    HW1 6401   3.240   1.213   3.606  0.1015 -0.7982 -0.3585
 1831SOL    HW2 6402   3.353   1.305   3.565 -1.2990  1.1794  0.0641
 1832SOL     OW 6403   5.615   1.859   7.427 -0.3069  0.2669  0.1568
 1832SOL    HW1 6404   5.655   1.922   7.367 -1.2270  1.4190  0.6988
 1832SOL    HW2 6405   5.534   1.901   7.455 -1.5805 -1.7085 -0.3837
 1833SOL     OW 6406   2.240   6.801   1.474  0.3915 -0.0122 -0.4976
 1833SOL    HW1 6407   2.328   6.837   1.484  1.7037 -3.0786  0.3920
 1833SOL    HW2 6408   2.247   6.741   1.400 -1.4828  0.9063 -1.5081
 1834SOL     OW 6409   3.595   7.525   1.374  0.4945  0.2873 -0.1072
 1834SOL    HW1 6410   3.545   7.451   1.341 -0.5602  0.1620  1.6412
 1834SOL    HW2 6411   3.572   7.598   1.317 -0.2438 -0.1972 -0.4393
 1835SOL     OW 6412   5.607   0.984   6.198  0.3203  0.3118  0.9810
 1835SOL    HW1 6413   5.553   1.015   6.271  1.3954  1.2860  1.4056
 1835SOL    HW2 6414   5.583   1.040   6.125  0.2296  0.2637  0.9747
 1836SOL     OW 6415   2.629   7.428   4.003  0.3535 -0.3578 -0.6974
 1836SOL    HW1 6416   2.587   7.342   4.005 -1.2225  0.3409 -1.9794
 1836SOL    HW2 6417   2.721   7.408   3.987 -0.0585 -1.7966 -1.4815
 1837SOL     OW 6418   3.630   0.418   3.947 -0.1681  0.3201  0.1739
 1837SOL    HW1 6419   3.692   0.457   3.886 -0.0218  0.1525  0.2143
 1837SOL    HW2 6420   3.592   0.344   3.899 -1.1377  1.0725 -0.2407
 1838SOL     OW 6421   0.284   5.558   6.090  0.4161  0.4661 -0.1587
 1838SOL    HW1 6422   0.341   5.620   6.045  0.2178  0.4082 -0.4973
 1838SOL    HW2 6423   0.239   5.512   6.019  0.1430  0.3325  0.0995
 1839SOL     OW 6424   5.932   7.129   5.226  0.0625  0.0717 -0.3866
 1839SOL    HW1 6425   5.918   7.211   5.273  0.0377  1.6501 -2.9443
 1839SOL    HW2 6426   5.866   7.131   5.156 -0.3696 -2.4805 -0.1362
 1840SOL     OW 6427   3.942   0.263   4.901 -0.3773 -0.2412 -0.0367
 1840SOL    HW1 6428   3.907   0.283   4.988  0.7972 -0.4518  0.5072
 1840SOL    HW2 6429   3.887   0.313   4.841 -1.9170 -0.9516  0.7262
 1841SOL     OW 6430   6.729   7.565   0.031  0.3480  0.1660 -0.1918
 1841SOL    HW1 6431   6.650   7.611   0.002  0.4078  0.0522 -0.5398
 1841SOL    HW2 6432   6.801   7.615  -0.006  0.4073 -0.3186 -0.7478
 1842SOL     OW 6433   5.447   4.728   2.340 -0.0924 -0.3983 -0.2166
 1842SOL    HW1 6434   5.377   4.711   2.277 -1.0108 -2.2272  1.2219
 1842SOL    HW2 6435   5.483   4.642   2.360  3.2908  0.5203 -1.5830
 1843SOL     OW 6436   2.172   7.140   5.678  0.0186 -0.2094  0.4605
 1843SOL    HW1 6437   2.198   7.184   5.759 -0.7351  0.9459  0.1017
 1843SOL    HW2 6438   2.088   7.180   5.655 -0.7115 -1.8592  0.1034
 1844SOL     OW 6439   1.081   6.175   5.256  0.3633 -0.2563  0.4420
 1844SOL    HW1 6440   0.994   6.156   5.221  0.6372 -1.3512  0.3142
 1844SOL    HW2 6441   1.072   6.263   5.295 -0.9991 -0.6362  1.0832
 1845SOL     OW 6442   3.897   5.182   2.918 -0.2930  0.1942  0.0641
 1845SOL    HW1 6443   3.858   5.107   2.873  0.0003  0.5229 -0.7677
 1845SOL    HW2 6444   3.903   5.155   3.010 -0.5843 -0.6339 -0.1513
 1846SOL     OW 6445   5.326   1.019   3.427 -0.2565  0.8759 -0.0938
 1846SOL    HW1 6446   5.324   0.961   3.351  0.6859 -0.8859  1.1566
 1846SOL    HW2 6447   5.234   1.041   3.444 -0.6245 -0.2145 -0.6441
 1847SOL     OW 6448   2.135   4.309   3.136  0.4343 -0.6558 -0.2641
 1847SOL    HW1 6449   2.077   4.303   3.061  2.2461  0.0115 -1.7963
 1847SOL    HW2 6450   2.164   4.400   3.137  2.5718 -1.2645 -0.4929
 1848SOL     OW 6451   6.563   0.990   6.845 -0.0315 -0.0075  0.1792
 1848SOL    HW1 6452   6.639   0.934   6.828 -0.4349 -0.2167 -1.0502
 1848SOL    HW2 6453   6.595   1.055   6.907  0.7716 -0.9002  0.7456
 1849SOL     OW 6454   4.884   3.741   6.399  0.1538 -0.2602 -0.3459
 1849SOL    HW1 6455   4.957   3.679   6.396  0.7000  0.3310  0.2294
 1849SOL    HW2 6456   4.860   3.754   6.307 -0.8655 -2.3063 -0.4228
 1850SOL     OW 6457   1.968   5.715   2.794 -0.0439  0.3463 -0.1509
 1850SOL    HW1 6458   2.002   5.799   2.763  0.7237 -0.1353 -0.6535
 1850SOL    HW2 6459   2.001   5.708   2.884  0.0381  0.4977 -0.1676
 1851SOL     OW 6460   4.709   0.681   5.895 -0.2083  0.4964 -0.0042
 1851SOL    HW1 6461   4.657   0.702   5.973 -1.1862 -1.0251 -0.1931
 1851SOL    HW2 6462   4.787   0.638   5.928 -0.2163  0.6141  0.1680
 1852SOL     OW 6463   6.190   6.014   2.745 -0.3034 -0.4566  0.3424
 1852SOL    HW1 6464   6.208   5.983   2.656 -0.2449  0.8243 -0.1131
 1852SOL    HW2 6465   6.270   5.994   2.794  0.6329  0.9875 -0.5136
 1853SOL     OW 6466   5.342   2.931   7.679 -0.3106 -0.1222 -0.2555
 1853SOL    HW1 6467   5.380   2.845   7.665 -1.2556 -0.7469  0.8678
 1853SOL    HW2 6468   5.417   2.990   7.687  0.3674 -1.0191  0.0919
 1854SOL     OW 6469   1.887   7.032   5.850 -0.0258  0.0738  0.0911
 1854SOL    HW1 6470   1.812   6.973   5.853 -0.1069  0.0282 -1.5719
 1854SOL    HW2 6471   1.852   7.117   5.876 -0.4193 -0.1592  0.3245
 1855SOL     OW 6472   2.292   7.386   4.093 -0.5947 -0.6756  0.5267
 1855SOL    HW1 6473   2.293   7.480   4.109 -4.0932 -0.8052  2.3567
 1855SOL    HW2 6474   2.378   7.356   4.122  0.9997  1.9712 -1.0496
 1856SOL     OW 6475   6.210   7.066   4.281 -0.3608  0.0763  0.4635
 1856SOL    HW1 6476   6.295   7.102   4.256 -0.2630  0.5350  1.4323
 1856SOL    HW2 6477   6.185   7.011   4.206  0.5171  0.3830 -0.0739
 1857SOL     OW 6478   2.474   0.192   1.042  0.0572  0.1987 -0.0943
 1857SOL    HW1 6479   2.450   0.277   1.005 -0.9840 -0.6169 -1.3835
 1857SOL    HW2 6480   2.506   0.141   0.967  0.9424 -0.4660  0.7124
 1858SOL     OW 6481   7.461   1.702   2.754 -0.2010 -0.0552 -0.2713
 1858SOL    HW1 6482   7.468   1.613   2.719  1.5542  0.2719 -0.8554
 1858SOL    HW2 6483   7.476   1.693   2.848 -0.8061 -0.4688 -0.2164
 1859SOL     OW 6484   5.759   1.069   3.668  0.3540 -0.3259  0.3564
 1859SOL    HW1 6485   5.796   1.137   3.724 -1.0762  0.6197  0.2128
 1859SOL    HW2 6486   5.707   1.117   3.603 -0.4492 -1.5392  0.0672
 1860SOL     OW 6487   3.578   7.007   2.472  0.1558  0.5270  0.2139
 1860SOL    HW1 6488   3.647   6.942   2.459 -0.8172 -0.1960 -1.9284
 1860SOL    HW2 6489   3.500   6.955   2.493  0.0961  1.2838  1.9743
 1861SOL     OW 6490   2.367   1.197   2.376  0.3966  0.4509 -0.2593
 1861SOL    HW1 6491   2.378   1.273   2.433 -0.1694  1.4499 -1.4381
 1861SOL    HW2 6492   2.272   1.191   2.362  0.5210  0.1744 -1.0362
 1862SOL     OW 6493   1.686   6.832   1.808 -0.0609  0.3866  0.1602
 1862SOL    HW1 6494   1.644   6.893   1.748  0.2737  0.4143 -0.0456
 1862SOL    HW2 6495   1.728   6.768   1.752  0.8552  0.8105  0.3449
 1863SOL     OW 6496   0.458   1.963   6.654  0.1167 -0.4741  0.7086
 1863SOL    HW1 6497   0.529   1.975   6.718 -0.6226  2.4145  1.1514
 1863SOL    HW2 6498   0.391   1.913   6.701  1.6183 -2.9157  0.4007
 1864SOL     OW 6499   0.235   6.373   3.818 -0.3773  0.6337  0.0344
 1864SOL    HW1 6500   0.284   6.304   3.861 -0.4604  0.0830 -0.7310
 1864SOL    HW2 6501   0.298   6.444   3.806  0.3367 -0.1697 -1.1882
 1865SOL     OW 6502   0.813   1.565   7.143  0.3166  0.0065  0.7278
 1865SOL    HW1 6503   0.797   1.507   7.068  1.3062  2.0272 -1.1695
 1865SOL    HW2 6504   0.726   1.597   7.167  0.0966  0.5006 -0.6117
 1866SOL     OW 6505   1.158   0.844   5.282  0.6501 -0.8844 -0.6425
 1866SOL    HW1 6506   1.186   0.757   5.256 -1.7816 -0.9575 -3.5036
 1866SOL    HW2 6507   1.236   0.899   5.273  2.6008 -2.8357  2.5192
 1867SOL     OW 6508   6.667   0.974   7.486  0.3769  0.4444  0.3051
 1867SOL    HW1 6509   6.679   1.013   7.399  0.5563  0.2113  0.2255
 1867SOL    HW2 6510   6.622   0.891   7.469  2.2978 -0.6490  0.2215
 1868SOL     OW 6511   4.379   2.073   3.917 -0.2174  1.0795  0.1259
 1868SOL    HW1 6512   4.467   2.075   3.879 -0.3718 -0.7057 -0.4098
 1868SOL    HW2 6513   4.384   2.132   3.993  1.6008  0.5575  0.4502
 1869SOL     OW 6514   0.282   4.651   1.889 -0.7026  0.4234 -0.6118
 1869SOL    HW1 6515   0.329   4.576   1.925 -0.1508 -0.4528 -2.9833
 1869SOL    HW2 6516   0.237   4.690   1.964  1.7236 -0.2370  1.2896
 1870SOL     OW 6517   7.527   1.169   3.115  0.0570 -0.0186  0.0246
 1870SOL    HW1 6518   7.525   1.083   3.157 -0.2677 -0.1059 -0.1682
 1870SOL    HW2 6519   7.596   1.216   3.161  1.0922 -0.7979 -0.6851
 1871SOL     OW 6520   1.915   5.522   5.631  0.4212 -0.4272 -0.3528
 1871SOL    HW1 6521   1.881   5.581   5.564 -2.9026 -0.8975  0.7671
 1871SOL    HW2 6522   1.908   5.572   5.712  1.4168 -0.9696  0.0807
 1872SOL     OW 6523   4.555   4.371   3.307 -0.4302  0.0432 -0.0911
 1872SOL    HW1 6524   4.649   4.371   3.325 -0.6492 -0.1981  1.1619
 1872SOL    HW2 6525   4.542   4.294   3.252 -0.2306 -1.4985  1.8786
 1873SOL     OW 6526   3.716   4.666   4.842 -0.0268 -0.1056  0.5909
 1873SOL    HW1 6527   3.778   4.730   4.808 -0.1259 -0.2969  0.0438
 1873SOL    HW2 6528   3.728   4.589   4.786 -0.1341 -0.4538  1.0396
 1874SOL     OW 6529   4.577   6.257   6.731 -0.3295  0.7123  0.5851
 1874SOL    HW1 6530   4.644   6.277   6.665 -0.5533 -2.1294 -0.6595
 1874SOL    HW2 6531   4.626   6.248   6.813  0.1512  2.8213  0.6105
 1875SOL     OW 6532   0.054   3.737   6.815 -0.2877  0.3125  0.9584
 1875SOL    HW1 6533  -0.002   3.696   6.881 -2.1722  1.3167  0.0743
 1875SOL    HW2 6534   0.058   3.673   6.744 -0.0883  0.1215  1.1432
 1876SOL     OW 6535   3.116   3.254   5.444  0.1287 -0.3542  0.4009
 1876SOL    HW1 6536   3.021   3.245   5.429  0.3093 -0.5419 -0.7036
 1876SOL    HW2 6537   3.125   3.251   5.539 -1.0781  0.6618  0.5807
 1877SOL     OW 6538   5.018   7.032   2.057  0.2551  0.0081 -0.2232
 1877SOL    HW1 6539   5.010   7.113   2.007 -0.9978 -0.1407 -0.3138
 1877SOL    HW2 6540   5.018   7.059   2.149  2.7993  0.3000 -0.2582
 1878SOL     OW 6541   6.562   6.693   2.809 -0.4594 -0.3013  0.2735
 1878SOL    HW1 6542   6.519   6.689   2.895 -1.5846  1.4433 -0.1547
 1878SOL    HW2 6543   6.490   6.683   2.746 -0.1827  1.7355 -0.4497
 1879SOL     OW 6544   1.210   4.817   0.630  0.3597 -0.0459 -0.0110
 1879SOL    HW1 6545   1.128   4.849   0.594 -0.5145 -2.2934 -0.2239
 1879SOL    HW2 6546   1.186   4.779   0.715  1.1535 -0.7817 -0.0969
 1880SOL     OW 6547   0.751   4.400   5.322  0.4786  0.2336 -0.3846
 1880SOL    HW1 6548   0.809   4.341   5.275  1.7945  0.9944  0.2353
 1880SOL    HW2 6549   0.776   4.391   5.414  0.3023  1.3031 -0.2139
 1881SOL     OW 6550   3.771   5.885   3.201  0.2919  0.1688  0.4019
 1881SOL    HW1 6551   3.710   5.951   3.170 -0.4831 -0.4085  0.6683
 1881SOL    HW2 6552   3.720   5.804   3.205  1.5600 -0.7715 -1.2585
 1882SOL     OW 6553   0.362   1.895   0.624  0.8780 -0.6538 -0.1086
 1882SOL    HW1 6554   0.349   1.810   0.580  0.9097 -0.5027 -0.4161
 1882SOL    HW2 6555   0.441   1.931   0.583  1.1999 -0.7384  0.4391
 1883SOL     OW 6556   7.111   3.636   6.781  0.0390  0.1268 -0.6001
 1883SOL    HW1 6557   7.149   3.663   6.697 -1.8922  0.4279 -1.4354
 1883SOL    HW2 6558   7.055   3.710   6.807  2.0527  0.8993  1.9949
 1884SOL     OW 6559   1.828   0.637   0.745  0.1544 -0.1358  0.2659
 1884SOL    HW1 6560   1.789   0.699   0.807 -1.3293 -1.0958  0.3306
 1884SOL    HW2 6561   1.914   0.618   0.782 -0.2406  0.2068  1.4099
 1885SOL     OW 6562   7.341   2.925   7.743 -0.5900 -0.2076  0.0487
 1885SOL    HW1 6563   7.267   2.971   7.784 -1.6362 -1.8334  0.1075
 1885SOL    HW2 6564   7.395   2.994   7.706 -0.8134  1.1971  2.1608
 1886SOL     OW 6565   2.184   5.723   1.012 -0.0244  0.0833 -0.0104
 1886SOL    HW1 6566   2.152   5.739   1.101 -0.3083  0.3281 -0.1539
 1886SOL    HW2 6567   2.275   5.697   1.024 -0.9233 -3.1572  0.5958
 1887SOL     OW 6568   3.967   5.197   5.745 -0.3992 -0.1226  0.2547
 1887SOL    HW1 6569   3.942   5.211   5.836 -0.0549 -0.9100  0.4848
 1887SOL    HW2 6570   3.900   5.138   5.710  0.1112 -0.7752  0.3514
 1888SOL     OW 6571   5.151   3.196   5.018 -0.4547  0.4851  0.3784
 1888SOL    HW1 6572   5.227   3.139   5.021  0.3884  1.5782  2.8015
 1888SOL    HW2 6573   5.125   3.198   4.926  2.3976  0.0312 -0.5321
 1889SOL     OW 6574   7.109   2.189   4.840  0.5656  0.6611 -0.4955
 1889SOL    HW1 6575   7.199   2.219   4.826  0.1612  1.7593 -0.9275
 1889SOL    HW2 6576   7.058   2.270   4.841 -0.2593  0.1484  1.0880
 1890SOL     OW 6577   6.315   3.623   6.222  0.1281  0.2640  0.6776
 1890SOL    HW1 6578   6.402   3.587   6.201 -0.1164  0.9105 -1.7106
 1890SOL    HW2 6579   6.274   3.555   6.276  1.5327 -0.7632  0.5155
 1891SOL     OW 6580   3.135   4.050   5.525 -0.0763  0.1392  0.6494
 1891SOL    HW1 6581   3.070   3.990   5.487 -0.1331  0.0327  0.9143
 1891SOL    HW2 6582   3.214   4.035   5.473  0.1457 -0.7436  1.2206
 1892SOL     OW 6583   2.943   1.857   0.485  0.0300  0.3690  0.1232
 1892SOL    HW1 6584   3.008   1.797   0.523  0.4639  1.0711  0.5032
 1892SOL    HW2 6585   2.888   1.881   0.559  0.6286  1.4267  0.2339
 1893SOL     OW 6586   7.589   5.330   3.486  0.5315 -0.3711  0.1990
 1893SOL    HW1 6587   7.555   5.270   3.552  0.5915  0.2771  0.8352
 1893SOL    HW2 6588   7.669   5.365   3.525  1.5668 -1.3418 -0.9839
 1894SOL     OW 6589   1.007   0.437   0.804  0.3386  0.5497  0.3069
 1894SOL    HW1 6590   1.080   0.421   0.744  0.7377  1.3276  0.5731
 1894SOL    HW2 6591   1.031   0.517   0.851 -0.5991  0.7206  0.5275
 1895SOL     OW 6592   5.458   2.270   5.639 -0.0496 -0.2397 -0.3940
 1895SOL    HW1 6593   5.491   2.338   5.698 -0.3980  1.0717 -1.6682
 1895SOL    HW2 6594   5.536   2.220   5.616  0.2439 -0.1749  0.4243
 1896SOL     OW 6595   7.394   2.926   3.019 -0.0488  0.3341 -0.0209
 1896SOL    HW1 6596   7.368   2.955   3.107 -1.7009 -1.4158  0.1390
 1896SOL    HW2 6597   7.414   3.007   2.972  1.0986  1.3225  1.9821
 1897SOL     OW 6598   5.021   2.307   1.016 -0.5554 -0.4191  0.5707
 1897SOL    HW1 6599   5.116   2.314   1.017 -0.5472 -0.5444  0.7402
 1897SOL    HW2 6600   4.990   2.379   1.071 -0.6139  0.4304 -0.5519
 1898SOL     OW 6601   2.687   4.301   4.729  0.4381  0.3618 -0.2314
 1898SOL    HW1 6602   2.766   4.256   4.699 -0.4170 -0.2146 -1.7417
 1898SOL    HW2 6603   2.654   4.346   4.652 -1.8819 -1.1904 -0.2399
 1899SOL     OW 6604   7.684   4.194   2.277  0.4486 -0.3824 -0.1008
 1899SOL    HW1 6605   7.725   4.239   2.351  0.3981 -0.4458 -0.0346
 1899SOL    HW2 6606   7.739   4.117   2.263  0.3242 -0.4941  0.0202
 1900SOL     OW 6607   0.146   6.862   5.371 -0.5618  0.0814  0.5939
 1900SOL    HW1 6608   0.088   6.914   5.316 -0.5966 -0.0723  0.4843
 1900SOL    HW2 6609   0.197   6.926   5.421  1.5197  0.2941 -1.6587
 1901SOL     OW 6610   2.969   7.420   6.127  0.3236  0.0081 -0.2608
 1901SOL    HW1 6611   2.933   7.504   6.154  1.3000 -0.4147  2.7092
 1901SOL    HW2 6612   3.064   7.431   6.133  0.5082 -0.9903 -1.0268
 1902SOL     OW 6613   1.837   6.129   0.053 -0.1985  0.7745  0.1649
 1902SOL    HW1 6614   1.783   6.156   0.127  2.0690 -0.0332  2.2421
 1902SOL    HW2 6615   1.926   6.155   0.077  0.7237 -0.2119 -1.9447
 1903SOL     OW 6616   3.457   4.026   5.350 -0.9304  0.2720  0.0701
 1903SOL    HW1 6617   3.472   4.113   5.313 -1.6695  0.3830  0.0266
 1903SOL    HW2 6618   3.387   3.989   5.297 -0.3755 -0.4976 -0.1422
 1904SOL     OW 6619   2.033   6.792   4.700  0.0474  0.6069 -0.6217
 1904SOL    HW1 6620   1.944   6.817   4.727 -0.2233 -0.7311 -0.1893
 1904SOL    HW2 6621   2.085   6.872   4.710 -0.2576  0.5126  2.9579
 1905SOL     OW 6622   5.882   1.136   2.071  0.5335  0.2602  0.0102
 1905SOL    HW1 6623   5.871   1.172   1.983  0.1781  0.3568  0.0939
 1905SOL    HW2 6624   5.961   1.083   2.065  0.0792 -0.3715 -0.5755
 1906SOL     OW 6625   0.504   7.266   2.895  0.2141 -0.2497  0.1572
 1906SOL    HW1 6626   0.565   7.248   2.967 -0.3207 -0.3146  0.5996
 1906SOL    HW2 6627   0.507   7.361   2.884 -0.0992 -0.1796  0.6305
 1907SOL     OW 6628   3.665   1.918   0.530  0.3033  0.1450 -0.0414
 1907SOL    HW1 6629   3.588   1.928   0.585  0.1467 -1.1199  0.0011
 1907SOL    HW2 6630   3.637   1.948   0.443  0.1494  0.8753  0.2576
 1908SOL     OW 6631   7.505   5.963   7.482 -0.0249  0.1430  0.4664
 1908SOL    HW1 6632   7.466   5.880   7.512  0.3635  0.1509  1.0191
 1908SOL    HW2 6633   7.492   5.963   7.388 -1.7125  0.3202  0.6658
 1909SOL     OW 6634   1.807   0.144   7.570 -0.1891 -0.0627  0.2356
 1909SOL    HW1 6635   1.821   0.123   7.662  2.3043 -1.6320 -0.4232
 1909SOL    HW2 6636   1.796   0.060   7.527 -2.1509  0.6768 -0.8630
 1910SOL     OW 6637   4.340   0.423   0.264 -0.2672  0.4358  0.0970
 1910SOL    HW1 6638   4.327   0.518   0.255  0.6121  0.8463  2.4207
 1910SOL    HW2 6639   4.431   0.409   0.238  0.1527  0.5507  1.4263
 1911SOL     OW 6640   3.790   0.255   5.571 -0.3809 -0.9840  0.1012
 1911SOL    HW1 6641   3.727   0.278   5.503 -0.7571  0.4959  0.9095
 1911SOL    HW2 6642   3.782   0.324   5.636  0.0041 -2.3332  1.6543
 1912SOL     OW 6643   2.746   2.986   3.536  0.2190  0.1307 -0.1563
 1912SOL    HW1 6644   2.752   2.890   3.539  0.0267  0.0466 -1.6720
 1912SOL    HW2 6645   2.814   3.012   3.475 -0.1050  0.9200 -0.1900
 1913SOL     OW 6646   2.188   4.701   0.525 -0.0379  0.0490  0.3118
 1913SOL    HW1 6647   2.257   4.655   0.477 -0.1109 -1.2778  1.4135
 1913SOL    HW2 6648   2.210   4.793   0.517  0.9714 -0.2611 -0.6976
 1914SOL     OW 6649   0.820   0.033   2.466  0.7116  0.0023  0.2462
 1914SOL    HW1 6650   0.772  -0.030   2.519  1.0756 -1.0041 -0.5903
 1914SOL    HW2 6651   0.873   0.081   2.529  0.0064 -0.1319  0.9618
 1915SOL     OW 6652   4.489   1.575   7.366 -0.3129 -0.0245  0.3927
 1915SOL    HW1 6653   4.540   1.652   7.342 -0.7414  0.3164  0.5627
 1915SOL    HW2 6654   4.512   1.559   7.458 -0.3769  0.0259  0.4179
 1916SOL     OW 6655   2.394   2.526   4.033  0.1207  0.3024  0.1056
 1916SOL    HW1 6656   2.311   2.516   4.079  0.4293 -1.0691  0.4101
 1916SOL    HW2 6657   2.368   2.548   3.943 -0.6314 -1.0128 -0.0331
 1917SOL     OW 6658   0.894   5.513   1.059  0.1919  0.0621  0.6850
 1917SOL    HW1 6659   0.875   5.534   1.150 -0.9411  1.4804  0.1696
 1917SOL    HW2 6660   0.842   5.577   1.009  1.9103  0.2734 -0.9201
 1918SOL     OW 6661   4.948   6.066   3.377  0.1746 -0.2769  0.0471
 1918SOL    HW1 6662   5.018   6.028   3.430 -0.1912 -1.5165 -0.3103
 1918SOL    HW2 6663   4.991   6.092   3.296  0.4215  0.0330  0.2740
 1919SOL     OW 6664   1.940   2.487   3.342 -0.3411  0.0639 -0.2759
 1919SOL    HW1 6665   1.997   2.442   3.279  1.7541 -0.1164  1.6409
 1919SOL    HW2 6666   1.977   2.575   3.348  0.0368 -0.1787  1.3101
 1920SOL     OW 6667   5.556   4.708   6.905  0.5490  0.5066 -0.2308
 1920SOL    HW1 6668   5.509   4.639   6.859  0.5485  1.4559 -1.6989
 1920SOL    HW2 6669   5.648   4.687   6.894  0.5397 -0.1923  0.8383
 1921SOL     OW 6670   3.416   2.510   0.855 -0.1859 -0.0725 -0.5874
 1921SOL    HW1 6671   3.478   2.544   0.920  0.2563 -1.0931 -0.4427
 1921SOL    HW2 6672   3.340   2.567   0.861 -0.0268  0.0407  0.6194
 1922SOL     OW 6673   4.626   0.057   1.502  0.3832  0.4990 -0.2373
 1922SOL    HW1 6674   4.556   0.116   1.474 -0.2657 -0.8830 -1.6878
 1922SOL    HW2 6675   4.581  -0.021   1.534  1.2322 -0.0981 -0.4398
 1923SOL     OW 6676   4.622   5.493   3.356  0.4037  0.2670 -0.2739
 1923SOL    HW1 6677   4.660   5.485   3.269  3.2431  0.1814  0.8531
 1923SOL    HW2 6678   4.614   5.402   3.386 -1.9159  0.2151 -0.9139
 1924SOL     OW 6679   1.483   4.451   1.481 -0.0668 -0.4316  0.1995
 1924SOL    HW1 6680   1.549   4.471   1.414 -0.5475 -0.0851 -0.1740
 1924SOL    HW2 6681   1.533   4.408   1.550  0.8494  1.2274  0.6297
 1925SOL     OW 6682   1.326   0.646   5.672 -0.2601 -0.3242 -0.7391
 1925SOL    HW1 6683   1.334   0.598   5.589  1.0001  1.9363 -2.0237
 1925SOL    HW2 6684   1.379   0.595   5.734 -0.7546 -1.7453 -1.4413
 1926SOL     OW 6685   7.440   6.571   1.648  0.2664 -0.6334  0.3659
 1926SOL    HW1 6686   7.442   6.662   1.676  0.2317 -0.4063 -0.3407
 1926SOL    HW2 6687   7.355   6.539   1.678  0.8981 -0.8879  1.9473
 1927SOL     OW 6688   1.558   4.856   3.628 -0.5527 -0.0747 -0.4985
 1927SOL    HW1 6689   1.496   4.915   3.671  0.6613  1.1860 -0.4260
 1927SOL    HW2 6690   1.588   4.904   3.551  0.4363 -0.5994 -0.4611
 1928SOL     OW 6691   4.866   3.863   3.930 -0.2102 -0.2889 -0.5928
 1928SOL    HW1 6692   4.885   3.815   3.849  0.7526  0.1621 -0.6441
 1928SOL    HW2 6693   4.841   3.950   3.901 -1.1761 -0.5035 -0.4548
 1929SOL     OW 6694   5.880   4.258   3.914 -0.7485  0.1310 -0.2262
 1929SOL    HW1 6695   5.789   4.247   3.942 -0.9656  1.9226 -0.1205
 1929SOL    HW2 6696   5.874   4.294   3.826 -0.1043 -1.2452 -0.8529
 1930SOL     OW 6697   1.477   4.231   7.692  0.0121  0.3650 -0.2521
 1930SOL    HW1 6698   1.561   4.271   7.711  0.1315 -0.4138  1.0322
 1930SOL    HW2 6699   1.463   4.245   7.598  0.3305  2.7841  0.0040
 1931SOL     OW 6700   2.886   0.428   4.086  0.0652  0.2006 -0.1340
 1931SOL    HW1 6701   2.802   0.454   4.124  0.4367  0.2622  0.6760
 1931SOL    HW2 6702   2.888   0.332   4.096  0.4797  0.2867  0.7016
 1932SOL     OW 6703   2.378   7.238   4.329 -0.1764 -0.1580  0.0562
 1932SOL    HW1 6704   2.469   7.231   4.357  0.6222  2.1306 -1.6454
 1932SOL    HW2 6705   2.344   7.313   4.379  0.0029  1.2500 -1.8286
 1933SOL     OW 6706   7.081   0.918   4.450 -0.1904  0.4221 -0.3720
 1933SOL    HW1 6707   7.147   0.986   4.463 -0.8347  0.7336  1.4987
 1933SOL    HW2 6708   7.014   0.959   4.396 -0.1791  1.0083  0.0577
 1934SOL     OW 6709   6.999   5.335   1.139  0.3015  0.3873  0.2322
 1934SOL    HW1 6710   7.070   5.280   1.106  1.7420  1.5398  1.2017
 1934SOL    HW2 6711   6.919   5.298   1.102  1.5559  0.1129 -2.4051
 1935SOL     OW 6712   0.931   6.745   1.813 -0.4822 -0.0483  0.2853
 1935SOL    HW1 6713   0.991   6.743   1.739 -0.1565 -1.7927  0.5478
 1935SOL    HW2 6714   0.912   6.838   1.826  1.1994  0.4616 -0.5684
 1936SOL     OW 6715   2.269   6.594   7.170  0.3572  0.1473 -0.1602
 1936SOL    HW1 6716   2.195   6.637   7.127 -0.3368 -0.8455 -0.0007
 1936SOL    HW2 6717   2.312   6.664   7.219 -1.3144  0.5047  0.8825
 1937SOL     OW 6718   6.070   2.480   2.732  0.9416  0.4748  0.5140
 1937SOL    HW1 6719   5.989   2.478   2.782  0.8766  1.7175  0.4900
 1937SOL    HW2 6720   6.108   2.392   2.743 -1.0058 -0.5584 -0.4891
 1938SOL     OW 6721   1.438   6.024   6.895 -0.1660 -0.6109  0.2872
 1938SOL    HW1 6722   1.434   5.933   6.924  0.8515 -0.5339  0.7031
 1938SOL    HW2 6723   1.348   6.043   6.866 -0.5002 -1.5981  0.6047
 1939SOL     OW 6724   5.202   0.926   7.628  0.2705 -0.8840  0.2512
 1939SOL    HW1 6725   5.127   0.983   7.615  1.1183  0.2015 -0.0189
 1939SOL    HW2 6726   5.246   0.960   7.705  1.1752 -0.7239 -0.3201
 1940SOL     OW 6727   2.771   6.429   4.947  0.4728  0.0265  0.3232
 1940SOL    HW1 6728   2.756   6.413   4.854 -0.9836  0.1645  0.5060
 1940SOL    HW2 6729   2.784   6.523   4.954 -0.5560  0.1839  0.3647
 1941SOL     OW 6730   7.171   1.009   6.174 -0.2380  0.0291  0.1379
 1941SOL    HW1 6731   7.238   0.970   6.230  1.1557  1.1461 -0.6769
 1941SOL    HW2 6732   7.199   0.987   6.085 -0.5410  1.1207 -0.2458
 1942SOL     OW 6733   7.578   2.842   2.360  0.1058 -0.5420 -0.6953
 1942SOL    HW1 6734   7.635   2.815   2.432 -0.8296 -0.6857  0.0098
 1942SOL    HW2 6735   7.507   2.779   2.361 -0.7634  0.4150 -0.6982
 1943SOL     OW 6736   4.746   2.746   5.336 -0.0694  0.6431  0.2110
 1943SOL    HW1 6737   4.774   2.830   5.372  0.3979  1.2192 -1.4357
 1943SOL    HW2 6738   4.655   2.737   5.365 -0.2181  1.8477  0.1682
 1944SOL     OW 6739   0.030   6.071   5.217 -0.1803 -0.3095 -0.3933
 1944SOL    HW1 6740   0.044   6.087   5.311  0.0689 -0.3435 -0.4244
 1944SOL    HW2 6741   0.080   6.140   5.174 -1.7475  0.8330 -0.4827
 1945SOL     OW 6742   2.970   7.434   0.777  0.3024 -0.7381  0.0051
 1945SOL    HW1 6743   3.041   7.464   0.719  0.1477 -0.2594  0.0547
 1945SOL    HW2 6744   2.911   7.385   0.720  0.3602 -0.6146 -0.1607
 1946SOL     OW 6745   0.737   1.875   5.197 -0.2164  0.1736 -0.2254
 1946SOL    HW1 6746   0.802   1.862   5.266  1.6938 -1.1599 -2.1597
 1946SOL    HW2 6747   0.773   1.945   5.143  0.9068 -2.1412 -2.6480
 1947SOL     OW 6748   3.123   1.870   2.209  0.5059 -0.2278  0.3954
 1947SOL    HW1 6749   3.102   1.865   2.116 -0.7693 -1.1653  0.7081
 1947SOL    HW2 6750   3.175   1.950   2.218 -1.3080  1.1475 -0.7467
 1948SOL     OW 6751   5.340   7.478   2.165 -0.0200  0.2506  0.0762
 1948SOL    HW1 6752   5.396   7.417   2.214 -0.2298  0.2479  0.3147
 1948SOL    HW2 6753   5.270   7.423   2.130 -0.3490  0.3937  0.5027
 1949SOL     OW 6754   5.691   2.180   5.571 -0.0487 -0.9150  0.2631
 1949SOL    HW1 6755   5.771   2.232   5.571 -0.0317 -0.9292  1.1083
 1949SOL    HW2 6756   5.720   2.091   5.554  0.0894 -0.8882  0.3603
 1950SOL     OW 6757   3.864   2.716   5.613 -0.1923  0.1456 -0.9760
 1950SOL    HW1 6758   3.818   2.717   5.697 -0.9338  1.5327 -1.3775
 1950SOL    HW2 6759   3.834   2.635   5.571 -1.7768  0.6761 -0.9432
 1951SOL     OW 6760   0.902   1.397   0.170 -0.1544 -0.3977  0.4851
 1951SOL    HW1 6761   0.897   1.491   0.188  0.9413  0.1629 -1.8307
 1951SOL    HW2 6762   0.842   1.382   0.097  2.5782 -0.6543 -1.8839
 1952SOL     OW 6763   2.376   1.525   2.321 -0.6513 -0.3767  0.1255
 1952SOL    HW1 6764   2.283   1.504   2.315 -0.3855 -2.0971  1.2710
 1952SOL    HW2 6765   2.385   1.566   2.406 -0.5225  0.8898 -0.4796
 1953SOL     OW 6766   2.695   4.913   5.324 -0.0359 -0.1347  0.0045
 1953SOL    HW1 6767   2.717   4.824   5.350 -2.7823 -1.1496 -0.7840
 1953SOL    HW2 6768   2.628   4.941   5.387  0.4332  1.1919 -0.0555
 1954SOL     OW 6769   1.973   5.847   6.053 -0.1056  0.2234  0.3563
 1954SOL    HW1 6770   1.974   5.942   6.061 -1.1037  0.1304  2.0935
 1954SOL    HW2 6771   2.034   5.816   6.121 -0.1789 -0.3971  0.1500
 1955SOL     OW 6772   4.930   4.718   4.434  0.6583  0.3851  0.0234
 1955SOL    HW1 6773   4.971   4.762   4.508 -0.2264 -0.1158  0.8376
 1955SOL    HW2 6774   4.966   4.762   4.357  0.8334  1.5964  0.7707
 1956SOL     OW 6775   4.769   4.962   4.207  0.2027  0.0948 -0.3456
 1956SOL    HW1 6776   4.729   4.942   4.122 -1.1245  0.3497  0.1987
 1956SOL    HW2 6777   4.696   4.958   4.269  1.5051 -2.6291  1.2204
 1957SOL     OW 6778   0.545   3.414   7.283  0.1869 -0.2916 -0.1466
 1957SOL    HW1 6779   0.529   3.334   7.232 -1.1003 -0.8895  1.1394
 1957SOL    HW2 6780   0.556   3.482   7.217 -0.4529 -1.2228 -1.2524
 1958SOL     OW 6781   7.732   6.891   1.393 -0.2290 -0.4477  0.1215
 1958SOL    HW1 6782   7.682   6.946   1.333  0.3187 -0.2066 -0.1157
 1958SOL    HW2 6783   7.823   6.914   1.376  0.0496 -1.9116 -0.4414
 1959SOL     OW 6784   4.762   1.684   3.786 -0.0834 -0.3385 -0.2223
 1959SOL    HW1 6785   4.697   1.754   3.777 -0.3911 -0.8095 -2.0902
 1959SOL    HW2 6786   4.842   1.721   3.749 -0.1015 -0.7640 -0.6985
 1960SOL     OW 6787   3.167   2.643   3.750  1.1438 -0.1686 -0.3846
 1960SOL    HW1 6788   3.165   2.687   3.665  2.0825 -0.6147 -0.6418
 1960SOL    HW2 6789   3.259   2.627   3.767  1.0168  0.3959  0.9796
 1961SOL     OW 6790   2.996   4.467   3.668 -0.8052  0.7328 -0.1996
 1961SOL    HW1 6791   3.086   4.440   3.689  0.0602  1.3041 -2.7813
 1961SOL    HW2 6792   2.941   4.401   3.709  0.6540  1.1748  2.7177
 1962SOL     OW 6793   4.592   5.507   3.829  0.0390 -0.1316  0.0235
 1962SOL    HW1 6794   4.511   5.542   3.867 -0.1811 -0.1322 -0.4387
 1962SOL    HW2 6795   4.630   5.581   3.782  1.3010  0.4284  1.7850
 1963SOL     OW 6796   5.667   4.078   7.354 -0.7612  0.0776 -0.2471
 1963SOL    HW1 6797   5.661   4.016   7.427  0.2828 -0.4194 -0.5554
 1963SOL    HW2 6798   5.756   4.113   7.360 -0.7686  0.2585 -1.0935
 1964SOL     OW 6799   1.022   4.278   4.352  0.2683 -0.0823  0.0101
 1964SOL    HW1 6800   0.961   4.281   4.426 -1.8162  0.7474 -1.6340
 1964SOL    HW2 6801   0.987   4.210   4.294  0.9394  0.3758 -0.9654
 1965SOL     OW 6802   3.991   0.292   0.635 -0.5665 -0.1151  0.2698
 1965SOL    HW1 6803   3.937   0.214   0.634 -0.9469  0.0735  2.4274
 1965SOL    HW2 6804   4.040   0.287   0.717  2.2347  0.0666 -1.2630
 1966SOL     OW 6805   4.723   5.941   6.419 -0.2576  0.0995  0.0141
 1966SOL    HW1 6806   4.797   5.889   6.388  0.5388 -0.3297  2.3675
 1966SOL    HW2 6807   4.748   6.032   6.401  0.5605 -0.0856  0.1655
 1967SOL     OW 6808   0.975   2.604   2.436  0.7338  0.0635 -0.4655
 1967SOL    HW1 6809   1.024   2.686   2.444 -0.6270  0.9766 -1.1727
 1967SOL    HW2 6810   1.014   2.560   2.360  0.6692  0.6397 -0.8408
 1968SOL     OW 6811   6.388   0.696   5.693  0.0760 -0.3135  0.2782
 1968SOL    HW1 6812   6.437   0.667   5.770  1.2856 -1.9670 -1.0359
 1968SOL    HW2 6813   6.322   0.757   5.728  1.5365  0.1707  2.4063
 1969SOL     OW 6814   5.636   1.036   4.032  0.2772  0.2385  0.8528
 1969SOL    HW1 6815   5.692   0.996   4.098  0.6414 -0.9585 -0.1323
 1969SOL    HW2 6816   5.693   1.099   3.987  0.2324  0.5343  1.2086
 1970SOL     OW 6817   0.236   4.821   7.246  0.2484 -0.0086 -0.5984
 1970SOL    HW1 6818   0.254   4.914   7.255  0.1694  0.0418 -0.9520
 1970SOL    HW2 6819   0.299   4.790   7.180  0.1246 -0.1577 -0.6485
 1971SOL     OW 6820   1.711   3.052   7.556 -0.2166  0.0474 -0.1750
 1971SOL    HW1 6821   1.655   3.129   7.552 -0.0957  0.1226 -0.4455
 1971SOL    HW2 6822   1.777   3.067   7.488 -0.5584 -0.5848 -0.6553
 1972SOL     OW 6823   1.853   1.458   2.012  0.4153  0.1462 -0.2518
 1972SOL    HW1 6824   1.893   1.539   2.043  0.1946 -0.0056  0.4392
 1972SOL    HW2 6825   1.768   1.486   1.976  0.6937  0.3276 -0.7877
 1973SOL     OW 6826   3.137   6.927   2.890  0.0412 -0.7069 -0.3321
 1973SOL    HW1 6827   3.210   6.887   2.936  1.1511  1.1016 -0.4308
 1973SOL    HW2 6828   3.061   6.873   2.914  1.2207 -2.0128  0.5927
 1974SOL     OW 6829   6.610   1.634   3.045  0.1630 -0.2933  0.1035
 1974SOL    HW1 6830   6.675   1.578   3.087  0.4616 -0.1968 -0.2215
 1974SOL    HW2 6831   6.594   1.593   2.960  0.6181  0.2712 -0.2653
 1975SOL     OW 6832   5.630   0.484   5.120  0.0457 -0.2580 -0.0361
 1975SOL    HW1 6833   5.638   0.402   5.072 -0.3457 -1.6068  2.0491
 1975SOL    HW2 6834   5.715   0.496   5.162 -1.1065 -2.0517  3.1849
 1976SOL     OW 6835   5.452   3.885   2.797  0.2425  0.1810 -0.2227
 1976SOL    HW1 6836   5.442   3.862   2.704  1.8642  0.3536 -0.4702
 1976SOL    HW2 6837   5.501   3.967   2.796  1.0566 -0.2684  0.7863
 1977SOL     OW 6838   1.925   2.288   7.523  0.0199  0.0772 -0.0399
 1977SOL    HW1 6839   1.861   2.326   7.463  0.4939  0.1128 -0.5313
 1977SOL    HW2 6840   1.878   2.217   7.568 -0.8198  1.1083  0.7566
 1978SOL     OW 6841   2.323   6.415   1.659 -0.0673  0.0183 -0.3660
 1978SOL    HW1 6842   2.393   6.441   1.719  0.6387  0.0316 -1.1854
 1978SOL    HW2 6843   2.252   6.478   1.675 -0.0411 -0.2009  0.7104
 1979SOL     OW 6844   3.172   3.755   0.441 -0.0912  0.1969  0.1874
 1979SOL    HW1 6845   3.166   3.661   0.423  0.5146  0.0167  0.9036
 1979SOL    HW2 6846   3.101   3.773   0.502 -1.4641  0.6027 -1.4536
 1980SOL     OW 6847   0.377   1.230   4.660  0.4056  0.1913  0.4456
 1980SOL    HW1 6848   0.356   1.315   4.621  3.1765  1.3932  1.3164
 1980SOL    HW2 6849   0.390   1.172   4.586 -0.1373  0.8670 -0.1998
 1981SOL     OW 6850   7.179   1.476   7.662 -0.2024 -0.0060  0.0577
 1981SOL    HW1 6851   7.168   1.570   7.672  0.3619  0.0685 -0.0201
 1981SOL    HW2 6852   7.118   1.438   7.725  0.1917  0.4233  0.7110
 1982SOL     OW 6853   4.262   1.121   3.759  0.6040 -0.3646 -0.6718
 1982SOL    HW1 6854   4.321   1.162   3.822 -0.8342 -0.4813  0.8253
 1982SOL    HW2 6855   4.294   1.032   3.750  0.7594 -0.3799 -0.0025
 1983SOL     OW 6856   0.273   3.183   2.885 -0.0629 -0.1415  0.2505
 1983SOL    HW1 6857   0.332   3.241   2.838 -1.0417  0.6759 -0.0178
 1983SOL    HW2 6858   0.187   3.225   2.877 -1.1895 -2.5825 -1.5689
 1984SOL     OW 6859   4.230   5.402   3.470 -0.1118 -0.5353  0.2709
 1984SOL    HW1 6860   4.178   5.454   3.532 -1.0788  0.2039 -1.1146
 1984SOL    HW2 6861   4.314   5.389   3.515 -0.8448 -0.2061  1.8169
 1985SOL     OW 6862   5.213   1.334   2.117  0.0852  0.0668 -0.2292
 1985SOL    HW1 6863   5.131   1.336   2.166 -0.1965 -0.2597 -0.6789
 1985SOL    HW2 6864   5.186   1.342   2.025  0.5176 -0.5690 -0.4173
 1986SOL     OW 6865   1.719   7.081   6.588 -0.3347 -0.0224 -0.1117
 1986SOL    HW1 6866   1.638   7.033   6.567 -1.6024  1.4357  1.1530
 1986SOL    HW2 6867   1.705   7.168   6.551 -0.8104  1.2701  2.8291
 1987SOL     OW 6868   3.168   1.380   0.416 -0.5314  0.1326 -0.0399
 1987SOL    HW1 6869   3.217   1.389   0.498  0.1107  0.0655 -0.4121
 1987SOL    HW2 6870   3.214   1.311   0.368  0.0966  1.2806 -1.1582
 1988SOL     OW 6871   1.645   5.283   2.739 -0.0943  0.3693 -0.0281
 1988SOL    HW1 6872   1.713   5.348   2.755 -0.1152  0.2303  0.6361
 1988SOL    HW2 6873   1.668   5.210   2.797 -0.5493  0.1332 -0.1433
 1989SOL     OW 6874   6.204   3.809   1.415  0.0469 -0.1456 -0.0211
 1989SOL    HW1 6875   6.158   3.887   1.382 -0.9310 -0.4325  0.5979
 1989SOL    HW2 6876   6.134   3.744   1.426  0.9431 -1.3372 -1.1333
 1990SOL     OW 6877   2.010   2.760   2.118 -0.0050  0.2143 -0.1403
 1990SOL    HW1 6878   1.986   2.677   2.076 -2.3799  0.5534  0.4052
 1990SOL    HW2 6879   1.947   2.770   2.189 -1.6103  3.7795 -1.8181
 1991SOL     OW 6880   2.872   7.353   5.886 -0.8074 -0.6194 -0.0310
 1991SOL    HW1 6881   2.882   7.259   5.897  1.4593 -0.6013 -1.3710
 1991SOL    HW2 6882   2.891   7.390   5.972 -0.0287 -1.2990  0.0929
 1992SOL     OW 6883   0.420   4.853   1.451  0.5594 -0.7362  0.6429
 1992SOL    HW1 6884   0.455   4.942   1.448 -3.0692  0.8355  0.3589
 1992SOL    HW2 6885   0.420   4.825   1.359 -3.5595  1.4642 -0.2920
 1993SOL     OW 6886   3.354   0.168   5.254 -0.4417  0.0763 -0.0069
 1993SOL    HW1 6887   3.316   0.106   5.316 -0.5176  2.4304  2.4962
 1993SOL    HW2 6888   3.332   0.133   5.168 -0.6334 -3.1884  1.2574
 1994SOL     OW 6889   6.676   1.186   7.018 -0.1519 -0.1763  0.2078
 1994SOL    HW1 6890   6.621   1.232   7.081 -0.3353 -0.8175  0.5244
 1994SOL    HW2 6891   6.709   1.254   6.960 -0.1830  0.3904  0.8456
 1995SOL     OW 6892   3.373   1.821   3.479  0.3091  0.1115  0.0164
 1995SOL    HW1 6893   3.350   1.867   3.559  1.8817  0.3395  0.3736
 1995SOL    HW2 6894   3.289   1.795   3.441 -0.5155  1.2220  1.0073
 1996SOL     OW 6895   7.059   1.837   4.723 -0.0609 -0.2455  0.0282
 1996SOL    HW1 6896   6.965   1.831   4.735 -0.0052  1.2198  1.5884
 1996SOL    HW2 6897   7.072   1.917   4.673  0.4435  1.3798  2.5659
 1997SOL     OW 6898   7.285   6.859   1.688  0.0004  0.7208  0.1789
 1997SOL    HW1 6899   7.215   6.795   1.681 -0.2878  1.1986 -1.5644
 1997SOL    HW2 6900   7.266   6.907   1.769  0.7516 -1.9438  2.0611
 1998SOL     OW 6901   7.222   5.669   0.583  0.4410  0.2936 -0.6803
 1998SOL    HW1 6902   7.277   5.719   0.643  1.3707 -0.2553 -1.0546
 1998SOL    HW2 6903   7.134   5.706   0.594  0.9168  1.3222 -0.2182
 1999SOL     OW 6904   6.927   5.091   4.210  0.0650 -0.1705  0.4659
 1999SOL    HW1 6905   7.012   5.076   4.252  0.6639  1.2485 -0.1771
 1999SOL    HW2 6906   6.949   5.130   4.125 -1.2288  0.3782  0.3642
 2000SOL     OW 6907   3.667   0.632   4.862 -0.2738 -0.5950 -0.1745
 2000SOL    HW1 6908   3.643   0.706   4.806  1.1295 -0.4467 -0.6203
 2000SOL    HW2 6909   3.695   0.673   4.944  0.4192 -0.6248 -0.3906
 2001SOL     OW 6910   2.949   1.012   1.146  0.0349  0.2497  0.2172
 2001SOL    HW1 6911   2.899   0.933   1.126 -0.6171  0.7487 -0.1556
 2001SOL    HW2 6912   2.946   1.019   1.241  1.0049 -0.7458  0.3517
 2002SOL     OW 6913   5.255   4.493   4.733  0.2204 -0.1984  0.3148
 2002SOL    HW1 6914   5.283   4.581   4.708  1.3823 -0.6002  0.1620
 2002SOL    HW2 6915   5.160   4.501   4.743  0.4710  1.4963  2.0280
 2003SOL     OW 6916   3.397   2.836   5.867 -0.3017 -0.2370  0.2801
 2003SOL    HW1 6917   3.365   2.747   5.862  1.1517 -0.7899  0.3065
 2003SOL    HW2 6918   3.488   2.827   5.895  0.1597  1.1949 -0.6453
 2004SOL     OW 6919   4.443   0.410   3.057 -0.4323 -0.1698 -0.6151
 2004SOL    HW1 6920   4.484   0.479   3.004 -0.6502  0.1377 -0.3930
 2004SOL    HW2 6921   4.350   0.434   3.058 -0.5829 -0.7214 -0.9115
 2005SOL     OW 6922   3.953   4.853   5.913  0.7797  0.0300 -0.0197
 2005SOL    HW1 6923   3.885   4.787   5.927  0.1153  0.8519  0.7574
 2005SOL    HW2 6924   3.945   4.877   5.821  1.5672 -1.5370 -0.5207
 2006SOL     OW 6925   1.109   1.157   1.304  1.0139 -0.4492 -0.4053
 2006SOL    HW1 6926   1.150   1.158   1.391  0.5975  0.0048 -0.2059
 2006SOL    HW2 6927   1.174   1.199   1.247  1.0409 -0.1913 -0.1898
 2007SOL     OW 6928   5.702   1.551   5.002  0.0027  0.2192 -0.3618
 2007SOL    HW1 6929   5.790   1.542   4.967 -0.2604  0.8107 -1.2061
 2007SOL    HW2 6930   5.644   1.532   4.928 -0.5819 -0.1608  0.1812
 2008SOL     OW 6931   1.174   7.432   4.481  0.1779 -0.7501  0.4400
 2008SOL    HW1 6932   1.094   7.483   4.493  0.8003 -0.0434  1.7222
 2008SOL    HW2 6933   1.187   7.387   4.564  0.2740 -2.1221 -0.2833
 2009SOL     OW 6934   3.247   1.334   5.106 -0.1038  0.0677  0.3885
 2009SOL    HW1 6935   3.197   1.415   5.095  0.3638  0.1612 -1.4783
 2009SOL    HW2 6936   3.210   1.275   5.040 -0.3156 -1.1983  1.5995
 2010SOL     OW 6937   6.340   1.354   1.324  0.3921 -0.6104 -0.1919
 2010SOL    HW1 6938   6.252   1.338   1.289 -0.1811 -0.2823  1.0512
 2010SOL    HW2 6939   6.380   1.413   1.260 -0.9212  0.6355  0.0676
 2011SOL     OW 6940   7.541   5.369   0.821  0.4528  0.3609 -0.6976
 2011SOL    HW1 6941   7.507   5.458   0.829  1.1373  0.5279  0.8726
 2011SOL    HW2 6942   7.616   5.368   0.881 -0.0246 -1.4954 -0.0779
 2012SOL     OW 6943   7.618   3.038   7.571 -0.1637 -0.3825  0.5070
 2012SOL    HW1 6944   7.602   3.129   7.549 -1.6312 -0.2747  1.8525
 2012SOL    HW2 6945   7.553   2.989   7.520 -0.5834 -0.5110  1.1556
 2013SOL     OW 6946   0.966   1.005   4.478 -0.0725  0.2946 -0.2397
 2013SOL    HW1 6947   0.882   1.026   4.437 -0.0262 -0.0378 -0.5050
 2013SOL    HW2 6948   0.980   1.077   4.540  0.6767  1.7273 -2.0074
 2014SOL     OW 6949   1.877   3.910   5.473  0.8825  0.2094 -0.1040
 2014SOL    HW1 6950   1.915   3.839   5.523 -0.2954 -0.4251 -0.0770
 2014SOL    HW2 6951   1.864   3.981   5.537  0.0214 -0.3487  0.3542
 2015SOL     OW 6952   7.536   7.401   5.006  0.4539  0.5526 -0.2534
 2015SOL    HW1 6953   7.578   7.392   5.092  1.4519 -2.0505 -0.9518
 2015SOL    HW2 6954   7.598   7.453   4.955  1.2529 -0.3845 -0.2574
 2016SOL     OW 6955   1.302   7.683   6.614 -0.0540  0.0191  0.1337
 2016SOL    HW1 6956   1.381   7.636   6.641  0.2911 -0.4400 -1.5694
 2016SOL    HW2 6957   1.320   7.774   6.638  0.3037 -0.3180  1.2131
 2017SOL     OW 6958   3.380   5.170   4.865  0.3644 -0.3330  0.0853
 2017SOL    HW1 6959   3.438   5.109   4.819  1.2673  1.4401 -1.2293
 2017SOL    HW2 6960   3.426   5.190   4.946  1.8063  1.2796 -1.0743
 2018SOL     OW 6961   0.212   3.657   5.199  0.3971 -0.2398 -0.4279
 2018SOL    HW1 6962   0.305   3.670   5.217  0.8109 -0.6577 -2.0953
 2018SOL    HW2 6963   0.201   3.562   5.199 -0.1239 -0.1836  0.1552
 2019SOL     OW 6964   4.033   1.768   3.258 -0.0813 -0.1245  1.0494
 2019SOL    HW1 6965   4.082   1.714   3.321  0.1883  1.6171  2.4137
 2019SOL    HW2 6966   3.941   1.742   3.272  0.2381 -2.1814 -0.3125
 2020SOL     OW 6967   3.077   1.285   1.291 -0.8104  0.2975 -0.3877
 2020SOL    HW1 6968   2.989   1.320   1.305 -0.8284  0.3646 -0.6532
 2020SOL    HW2 6969   3.094   1.229   1.366 -0.9846  0.4767 -0.2148
 2021SOL     OW 6970   0.381   0.869   6.254 -0.4300 -0.4277  0.1069
 2021SOL    HW1 6971   0.359   0.800   6.191  2.0238 -0.7744 -0.4806
 2021SOL    HW2 6972   0.384   0.824   6.338  0.4693 -0.9151 -0.1733
 2022SOL     OW 6973   5.014   0.829   1.171 -0.5913 -0.0173  0.4716
 2022SOL    HW1 6974   5.105   0.843   1.198  0.0891  0.8497 -2.0314
 2022SOL    HW2 6975   4.984   0.916   1.143 -1.6774 -0.5883 -0.1910
 2023SOL     OW 6976   6.305   3.910   5.658  0.2423  0.3757  0.4086
 2023SOL    HW1 6977   6.248   3.923   5.734 -0.1818  0.7807  0.0226
 2023SOL    HW2 6978   6.264   3.840   5.609 -0.0112  0.7801  0.0439
 2024SOL     OW 6979   4.411   4.187   7.600 -0.2908  0.4304  0.6720
 2024SOL    HW1 6980   4.393   4.106   7.552  0.4049  0.5711  0.1491
 2024SOL    HW2 6981   4.335   4.200   7.656 -1.1355  0.2629 -0.4143
 2025SOL     OW 6982   3.596   4.068   3.321  0.7354  0.2932  0.3593
 2025SOL    HW1 6983   3.567   4.102   3.236 -0.0253  0.9576  0.8631
 2025SOL    HW2 6984   3.601   4.146   3.377  0.0769 -0.2744  1.2399
 2026SOL     OW 6985   1.679   7.331   1.465  0.4904  0.5266 -0.7392
 2026SOL    HW1 6986   1.725   7.307   1.546  2.9157  2.6257 -1.3679
 2026SOL    HW2 6987   1.730   7.289   1.396 -1.1167 -0.6068 -1.2950
 2027SOL     OW 6988   5.694   7.635   5.063 -0.2976  1.0139 -0.1578
 2027SOL    HW1 6989   5.744   7.590   5.132 -2.5254 -1.8855 -0.2304
 2027SOL    HW2 6990   5.760   7.660   4.998  1.6611  2.3378  2.1852
 2028SOL     OW 6991   7.458   2.822   5.748 -0.0111  0.5866  0.0159
 2028SOL    HW1 6992   7.443   2.737   5.789  1.3661 -0.4231 -1.4474
 2028SOL    HW2 6993   7.463   2.883   5.821  1.1881 -0.9545  1.3015
 2029SOL     OW 6994   4.407   4.229   1.245 -0.6564  0.1959 -0.0258
 2029SOL    HW1 6995   4.342   4.172   1.204 -0.1835 -1.5279  1.4971
 2029SOL    HW2 6996   4.473   4.244   1.177 -0.6561 -1.3153 -0.3988
 2030SOL     OW 6997   7.122   0.406   4.201  0.0969  0.2188 -0.4171
 2030SOL    HW1 6998   7.169   0.475   4.247 -1.0249  0.4120  0.4594
 2030SOL    HW2 6999   7.030   0.425   4.215 -0.2540 -1.7901  0.4008
 2031SOL     OW 7000   6.335   4.933   4.797  0.1264 -0.3354 -0.4385
 2031SOL    HW1 7001   6.344   5.009   4.739 -0.8744  0.9500  0.9969
 2031SOL    HW2 7002   6.389   4.956   4.873 -1.0323 -0.5735  0.4686
 2032SOL     OW 7003   4.703   0.993   4.288  0.1362  0.0875  0.3358
 2032SOL    HW1 7004   4.755   1.044   4.351  0.0305  0.1859  0.3431
 2032SOL    HW2 7005   4.642   1.056   4.251  0.2256  0.0396  0.1024
 2033SOL     OW 7006   5.184   1.277   4.633 -0.2362  0.4433  0.2174
 2033SOL    HW1 7007   5.112   1.301   4.574 -0.0448 -0.3633 -0.3566
 2033SOL    HW2 7008   5.193   1.183   4.622 -0.0513  0.3175  1.3841
 2034SOL     OW 7009   3.059   2.317   5.661 -0.6098  0.1613  0.0490
 2034SOL    HW1 7010   3.064   2.372   5.582 -1.9381  0.5580  0.2202
 2034SOL    HW2 7011   3.124   2.355   5.720 -1.6404  1.7224  0.2469
 2035SOL     OW 7012   1.888   0.961   3.964 -0.1140 -0.0554 -0.2667
 2035SOL    HW1 7013   1.916   0.921   3.882  0.2206  2.9712 -1.7519
 2035SOL    HW2 7014   1.968   0.995   4.003 -0.6422  1.4934 -0.4514
 2036SOL     OW 7015   3.561   4.139   4.816 -0.0436  0.4420  0.5606
 2036SOL    HW1 7016   3.610   4.138   4.734  0.2630 -0.9950  0.7391
 2036SOL    HW2 7017   3.514   4.223   4.815  1.8224  1.5366  0.0510
 2037SOL     OW 7018   5.766   0.593   4.868 -0.3063 -0.4165  0.0423
 2037SOL    HW1 7019   5.804   0.506   4.855  0.0437 -0.0833 -1.3213
 2037SOL    HW2 7020   5.702   0.582   4.938  1.1481 -1.3441  1.2678
 2038SOL     OW 7021   6.294   2.076   4.789  0.1773 -0.5414  0.0416
 2038SOL    HW1 7022   6.307   1.982   4.774  0.0354 -0.5533 -0.0105
 2038SOL    HW2 7023   6.382   2.112   4.797  0.2341 -0.6587 -0.0691
 2039SOL     OW 7024   2.256   0.976   4.821 -0.4939  0.2477  0.3948
 2039SOL    HW1 7025   2.258   0.902   4.882 -0.0996  0.0841  0.1877
 2039SOL    HW2 7026   2.164   0.983   4.794 -0.1387 -1.9430 -1.7154
 2040SOL     OW 7027   7.578   0.562   1.574  0.0516  0.2215  0.0791
 2040SOL    HW1 7028   7.663   0.592   1.607 -1.0470  1.6978  1.6701
 2040SOL    HW2 7029   7.589   0.467   1.566  2.4533  0.5325 -1.6406
 2041SOL     OW 7030   4.965   3.968   5.540 -0.0033  0.1796 -0.0364
 2041SOL    HW1 7031   4.894   3.919   5.497  0.0826 -1.0928  1.2039
 2041SOL    HW2 7032   4.921   4.046   5.576 -0.6657 -0.2869  0.1940
 2042SOL     OW 7033   7.567   0.363   2.971 -1.0707  0.6750  0.1639
 2042SOL    HW1 7034   7.625   0.317   3.032 -1.1342  0.8836  0.3858
 2042SOL    HW2 7035   7.481   0.358   3.013 -1.0391  1.1838  0.3019
 2043SOL     OW 7036   5.112   7.062   3.364  0.0814 -0.9433 -0.0528
 2043SOL    HW1 7037   5.144   6.982   3.406 -0.6275 -1.2648 -0.1046
 2043SOL    HW2 7038   5.191   7.111   3.341  0.5749 -2.1407 -1.0286
 2044SOL     OW 7039   5.464   0.011   5.045 -0.2355 -0.6513 -0.4177
 2044SOL    HW1 7040   5.543  -0.035   5.074  0.4909  0.6896 -0.1691
 2044SOL    HW2 7041   5.491   0.058   4.966 -0.9339 -0.5935 -0.6269
 2045SOL     OW 7042   4.502   6.623   4.683 -0.6140  0.2095  0.1271
 2045SOL    HW1 7043   4.565   6.581   4.625 -0.3048  0.2972  0.3943
 2045SOL    HW2 7044   4.419   6.577   4.666 -0.3425 -0.3173  0.2114
 2046SOL     OW 7045   6.502   2.271   7.133  0.5498 -0.5399  0.1357
 2046SOL    HW1 7046   6.419   2.317   7.144  0.0293 -1.3053 -0.4337
 2046SOL    HW2 7047   6.537   2.305   7.051 -0.7297 -2.4150 -1.2689
 2047SOL     OW 7048   7.562   3.508   6.804 -0.1843  0.8744 -0.0317
 2047SOL    HW1 7049   7.478   3.466   6.785  0.4033 -0.0254 -0.7164
 2047SOL    HW2 7050   7.541   3.601   6.813 -1.3767  0.5558  0.6357
 2048SOL     OW 7051   1.089   0.413   5.153 -0.3756  0.2174 -0.4214
 2048SOL    HW1 7052   1.047   0.376   5.231 -1.1424  1.6099 -0.1498
 2048SOL    HW2 7053   1.160   0.467   5.188  1.9059 -2.2653 -0.8768
 2049SOL     OW 7054   6.798   0.821   6.912  0.1414 -0.1725  0.1898
 2049SOL    HW1 7055   6.727   0.802   6.973 -0.6376  0.0059 -0.6409
 2049SOL    HW2 7056   6.876   0.783   6.953 -0.2221  0.5625  1.6187
 2050SOL     OW 7057   5.489   6.344   7.397 -0.6002  0.0556 -0.0412
 2050SOL    HW1 7058   5.445   6.379   7.475 -0.1940  1.4958 -0.4351
 2050SOL    HW2 7059   5.494   6.418   7.336 -0.7595 -1.0032 -1.3841
 2051SOL     OW 7060   6.300   4.522   5.056 -0.2479 -0.1531 -0.2534
 2051SOL    HW1 7061   6.228   4.496   4.999  0.1587 -0.4902 -0.6168
 2051SOL    HW2 7062   6.262   4.589   5.114 -0.4770  0.7472 -1.4113
 2052SOL     OW 7063   5.210   4.184   3.310 -0.1976 -0.2711 -0.6806
 2052SOL    HW1 7064   5.177   4.181   3.400 -0.3818  0.3716 -0.7166
 2052SOL    HW2 7065   5.273   4.257   3.311 -0.2717 -0.2011 -1.0894
 2053SOL     OW 7066   1.312   1.674   5.027  0.1862  0.1012 -0.4168
 2053SOL    HW1 7067   1.389   1.722   4.997  0.4822  0.2397  0.5228
 2053SOL    HW2 7068   1.343   1.626   5.104 -0.9535  1.1065  0.7137
 2054SOL     OW 7069   4.963   5.346   3.049 -0.2405  0.5355  0.6338
 2054SOL    HW1 7070   4.986   5.332   2.957 -3.2344  0.6404 -0.2593
 2054SOL    HW2 7071   4.960   5.258   3.086 -1.1400  0.2600 -0.0252
 2055SOL     OW 7072   7.306   5.334   3.760 -0.7348 -0.0207  0.5202
 2055SOL    HW1 7073   7.294   5.374   3.674 -1.4969 -1.5190 -0.1210
 2055SOL    HW2 7074   7.313   5.407   3.821 -0.9201  1.0625 -0.7292
 2056SOL     OW 7075   6.873   3.741   7.483  0.8474 -0.1062  0.4586
 2056SOL    HW1 7076   6.929   3.818   7.483 -1.7586  1.9671 -0.8848
 2056SOL    HW2 7077   6.806   3.760   7.549 -0.2789 -0.8276 -0.4322
 2057SOL     OW 7078   4.134   0.756   6.826  0.0149 -0.2058  0.3001
 2057SOL    HW1 7079   4.130   0.758   6.730 -2.2328 -0.3593  0.3535
 2057SOL    HW2 7080   4.162   0.667   6.847 -0.4622 -0.4784 -0.2028
 2058SOL     OW 7081   6.975   1.813   7.396 -0.4351  0.5564  0.2648
 2058SOL    HW1 7082   6.893   1.820   7.347  0.1965  0.4668 -0.8414
 2058SOL    HW2 7083   7.043   1.817   7.329  0.4948  1.2655  1.2139
 2059SOL     OW 7084   5.573   4.155   0.720  0.0093  0.4473  0.8967
 2059SOL    HW1 7085   5.627   4.114   0.787  0.2579  1.0629  1.0860
 2059SOL    HW2 7086   5.636   4.197   0.661 -0.0426 -2.1592 -1.1921
 2060SOL     OW 7087   4.600   1.967   3.498 -0.3172 -0.0624  0.0382
 2060SOL    HW1 7088   4.617   1.943   3.588 -0.6737  3.0138  1.0594
 2060SOL    HW2 7089   4.510   1.937   3.481 -1.6431  2.3883  2.0318
 2061SOL     OW 7090   0.518   1.228   7.691  0.4271 -0.3419  0.9225
 2061SOL    HW1 7091   0.446   1.241   7.629  0.6702  3.7214  1.2189
 2061SOL    HW2 7092   0.476   1.188   7.768 -0.5694 -2.0789 -0.4549
 2062SOL     OW 7093   2.120   4.620   6.001 -0.4676 -0.2556 -0.2381
 2062SOL    HW1 7094   2.041   4.638   6.052 -1.4667 -0.1575 -1.7764
 2062SOL    HW2 7095   2.171   4.561   6.057 -0.7815  1.0525  1.5386
 2063SOL     OW 7096   3.479   6.622   1.607  0.1446  0.2079 -0.4727
 2063SOL    HW1 7097   3.518   6.554   1.552 -0.8100 -0.2964 -0.5349
 2063SOL    HW2 7098   3.466   6.696   1.547 -1.3083 -0.4956 -1.0593
 2064SOL     OW 7099   7.682   5.792   3.590  0.5287 -0.5328  0.0158
 2064SOL    HW1 7100   7.658   5.879   3.558  3.4428  0.3157 -0.1135
 2064SOL    HW2 7101   7.605   5.763   3.639 -1.3804  1.1246 -1.7913
 2065SOL     OW 7102   5.159   6.792   0.769 -0.0048  0.2849  0.3411
 2065SOL    HW1 7103   5.215   6.858   0.728 -0.5272  0.5894  0.1062
 2065SOL    HW2 7104   5.218   6.744   0.827 -0.0099  2.2830  2.1184
 2066SOL     OW 7105   4.688   1.453   5.326  0.2731 -0.2853 -0.1852
 2066SOL    HW1 7106   4.623   1.393   5.363  0.9385 -0.3272  0.9938
 2066SOL    HW2 7107   4.773   1.413   5.348  0.7198  0.8481  0.2510
 2067SOL     OW 7108   5.805   0.862   6.892 -0.3141 -0.1964 -0.2102
 2067SOL    HW1 7109   5.878   0.896   6.840 -0.2206  0.7622  0.5246
 2067SOL    HW2 7110   5.837   0.779   6.926  0.2239 -0.0588 -0.3622
 2068SOL     OW 7111   0.195   5.105   7.584  0.2667  0.1329  0.5312
 2068SOL    HW1 7112   0.206   5.160   7.661  0.3172 -1.5297  1.7630
 2068SOL    HW2 7113   0.103   5.078   7.587  1.0230 -2.7381  2.0756
 2069SOL     OW 7114   2.269   6.228   4.319 -0.3042 -0.1917 -0.0002
 2069SOL    HW1 7115   2.268   6.147   4.268  1.2076 -0.9426  1.0739
 2069SOL    HW2 7116   2.284   6.199   4.409 -0.3787  1.2487  0.4961
 2070SOL     OW 7117   0.976   6.068   3.379 -1.1370 -0.3820 -0.1902
 2070SOL    HW1 7118   1.046   6.041   3.320 -0.2635 -1.2665  1.2112
 2070SOL    HW2 7119   0.909   6.001   3.370 -0.1213 -1.6640  1.2889
 2071SOL     OW 7120   5.370   2.204   3.556 -0.2515  0.2490  0.1508
 2071SOL    HW1 7121   5.401   2.231   3.642 -0.7971 -0.4542  0.5798
 2071SOL    HW2 7122   5.293   2.258   3.540  1.4276  2.4173 -1.1720
 2072SOL     OW 7123   3.053   7.653   2.703  0.4076 -0.2598 -0.2685
 2072SOL    HW1 7124   3.043   7.611   2.618  0.7851  0.4628 -0.6767
 2072SOL    HW2 7125   2.981   7.716   2.707  0.9091  0.3305 -0.4350
 2073SOL     OW 7126   0.851   0.366   5.879  0.3643 -0.3784 -0.1943
 2073SOL    HW1 7127   0.767   0.341   5.840  1.2356 -0.8371 -1.8490
 2073SOL    HW2 7128   0.828   0.437   5.939 -1.4450 -1.6643  0.7493
 2074SOL     OW 7129   4.843   3.328   5.893 -0.4411  0.4209 -0.6239
 2074SOL    HW1 7130   4.921   3.332   5.838 -0.6353 -0.3413 -0.9652
 2074SOL    HW2 7131   4.788   3.261   5.852 -0.0941 -1.0052  1.1416
 2075SOL     OW 7132   7.288   2.433   6.888 -0.2790 -0.1699  0.5398
 2075SOL    HW1 7133   7.315   2.506   6.943 -0.2630 -0.3851  0.8193
 2075SOL    HW2 7134   7.194   2.446   6.873 -0.2508 -0.0292  0.4921
 2076SOL     OW 7135   7.565   3.889   4.578 -0.0376  0.3176 -0.0285
 2076SOL    HW1 7136   7.629   3.921   4.641  0.2038 -1.1387  0.5103
 2076SOL    HW2 7137   7.594   3.800   4.557 -0.7918  0.3373 -1.2788
 2077SOL     OW 7138   0.708   3.181   1.608  0.3631 -0.2178  0.5842
 2077SOL    HW1 7139   0.697   3.238   1.532  0.2404 -1.7647 -0.6157
 2077SOL    HW2 7140   0.619   3.152   1.629  0.4780 -0.3819  0.8502
 2078SOL     OW 7141   7.334   2.779   4.359 -0.0663  0.0004  0.5693
 2078SOL    HW1 7142   7.420   2.819   4.346  0.7557 -1.3856  1.5088
 2078SOL    HW2 7143   7.291   2.789   4.274  0.6070  1.6282  0.3741
 2079SOL     OW 7144   1.340   7.000   2.961  0.0690 -0.1551  0.0812
 2079SOL    HW1 7145   1.278   6.926   2.963 -0.8580  0.6049  2.1201
 2079SOL    HW2 7146   1.297   7.066   2.906 -0.6747  0.1232  0.9712
 2080SOL     OW 7147   2.319   4.942   6.827 -0.0178  0.1000  0.5176
 2080SOL    HW1 7148   2.293   4.992   6.750  0.8869  0.0151  0.1430
 2080SOL    HW2 7149   2.391   4.993   6.865  0.3458 -0.4768  0.6112
 2081SOL     OW 7150   7.036   5.810   7.075  0.2308 -0.2079  0.4457
 2081SOL    HW1 7151   6.976   5.769   7.138  1.2656 -0.3861  1.3501
 2081SOL    HW2 7152   7.006   5.780   6.990 -0.7321 -0.5953  0.9086
 2082SOL     OW 7153   0.917   5.284   6.653  0.2203 -0.3189  0.0598
 2082SOL    HW1 7154   1.005   5.255   6.679  1.6232  0.9333 -2.8123
 2082SOL    HW2 7155   0.877   5.207   6.613 -0.3295 -1.0884  1.9938
 2083SOL     OW 7156   3.296   1.459   4.169  0.3414  0.2771 -0.0221
 2083SOL    HW1 7157   3.378   1.508   4.178  1.5438 -1.4403 -1.0767
 2083SOL    HW2 7158   3.323   1.371   4.144 -1.8708 -0.1234 -1.2624
 2084SOL     OW 7159   5.376   3.352   4.802  0.3396 -0.0401 -0.4155
 2084SOL    HW1 7160   5.421   3.423   4.756 -0.7091  0.4259 -0.7398
 2084SOL    HW2 7161   5.345   3.393   4.883 -0.7302  0.0234 -0.8481
 2085SOL     OW 7162   0.267   1.826   7.082  0.4800  0.1774  0.4326
 2085SOL    HW1 7163   0.238   1.917   7.092 -1.1967 -0.3294  0.5816
 2085SOL    HW2 7164   0.261   1.789   7.170 -1.4245 -0.7386 -0.0127
 2086SOL     OW 7165   2.465   1.887   4.964  0.3302  0.2777 -0.1899
 2086SOL    HW1 7166   2.411   1.847   4.896  0.1058  1.4566 -0.7190
 2086SOL    HW2 7167   2.476   1.817   5.029 -0.0023 -0.6583 -1.1050
 2087SOL     OW 7168   3.583   4.912   4.892  0.1345  0.5105  0.1863
 2087SOL    HW1 7169   3.608   4.819   4.887  1.2119  0.8238 -0.7689
 2087SOL    HW2 7170   3.565   4.937   4.801  0.0668  1.2812  0.4062
 2088SOL     OW 7171   6.985   0.420   3.910 -0.5820  0.4725  0.2265
 2088SOL    HW1 7172   6.977   0.446   4.002  0.4081 -1.3833  0.8928
 2088SOL    HW2 7173   6.899   0.383   3.888 -0.2537 -0.8032  1.0155
 2089SOL     OW 7174   3.302   5.013   7.410 -0.4144  0.1878 -0.2981
 2089SOL    HW1 7175   3.238   4.986   7.344  0.5746 -1.1918 -0.7452
 2089SOL    HW2 7176   3.382   5.029   7.360  0.6206 -1.8277  0.6098
 2090SOL     OW 7177   7.631   2.688   7.697  0.3192 -0.1670  0.1540
 2090SOL    HW1 7178   7.602   2.779   7.709  2.7703  0.5734  1.2469
 2090SOL    HW2 7179   7.639   2.678   7.602  1.6567  1.4019  0.0482
 2091SOL     OW 7180   3.234   3.524   5.832  0.5307  0.3009  0.2068
 2091SOL    HW1 7181   3.197   3.467   5.900  0.4083  1.7254  1.3756
 2091SOL    HW2 7182   3.167   3.591   5.817 -0.0349 -0.7064 -2.3340
 2092SOL     OW 7183   2.218   3.625   6.239  0.4633 -0.3148 -0.4999
 2092SOL    HW1 7184   2.124   3.622   6.257  0.7114  0.2512  1.0112
 2092SOL    HW2 7185   2.228   3.575   6.158 -1.4513  1.8355 -2.2003
 2093SOL     OW 7186   0.509   2.989   3.184  0.7274 -0.1289  0.0749
 2093SOL    HW1 7187   0.460   2.920   3.229 -1.8162  1.1186 -0.6474
 2093SOL    HW2 7188   0.577   3.014   3.247  0.7048 -2.1701  0.9811
 2094SOL     OW 7189   1.825   6.238   4.276  0.0512  0.7412  0.4466
 2094SOL    HW1 7190   1.764   6.164   4.269  1.1448 -0.3459  1.6899
 2094SOL    HW2 7191   1.904   6.208   4.231  0.0955  1.6452 -0.0840
 2095SOL     OW 7192   0.984   4.382   1.324  0.1108 -0.5916 -0.0411
 2095SOL    HW1 7193   0.990   4.452   1.390  2.2361  0.2146 -1.0151
 2095SOL    HW2 7194   0.942   4.425   1.249  1.2875 -0.3494 -0.5873
 2096SOL     OW 7195   1.415   7.066   3.214  0.0726 -0.2396 -0.5132
 2096SOL    HW1 7196   1.367   7.009   3.274 -0.2338 -0.8717 -1.3277
 2096SOL    HW2 7197   1.379   7.044   3.128  1.6889 -0.6127 -1.1301
 2097SOL     OW 7198   7.138   0.491   5.666 -0.3710 -0.0996 -0.9148
 2097SOL    HW1 7199   7.192   0.420   5.701 -0.4453 -0.4169 -1.4257
 2097SOL    HW2 7200   7.110   0.459   5.580 -0.9299  0.2881 -0.8788
 2098SOL     OW 7201   5.883   6.555   2.299  0.1541  0.1392  0.1366
 2098SOL    HW1 7202   5.803   6.573   2.348  0.3428  0.0748  0.4736
 2098SOL    HW2 7203   5.938   6.506   2.361  0.1802 -0.4189 -0.3189
 2099SOL     OW 7204   2.191   2.662   1.723  0.2269 -0.4447 -0.4501
 2099SOL    HW1 7205   2.247   2.720   1.775 -1.4040  0.3725  0.4516
 2099SOL    HW2 7206   2.244   2.641   1.646  2.0393 -0.2874  0.6854
 2100SOL     OW 7207   0.496   1.078   4.898  0.1107  0.2084 -0.6970
 2100SOL    HW1 7208   0.476   1.121   4.981  1.1858 -0.0150 -0.3012
 2100SOL    HW2 7209   0.454   1.133   4.831 -0.3166  0.6837 -0.0479
 2101SOL     OW 7210   0.995   4.294   3.402 -0.1171  0.5608  0.4988
 2101SOL    HW1 7211   0.921   4.354   3.410 -0.4263  0.2464  0.0466
 2101SOL    HW2 7212   1.063   4.344   3.356 -1.1961 -0.1097 -2.0261
 2102SOL     OW 7213   3.480   5.113   1.344  0.8362  0.5336  0.0920
 2102SOL    HW1 7214   3.545   5.130   1.275  1.9100  0.6382  1.0884
 2102SOL    HW2 7215   3.398   5.147   1.310  1.3684  0.6608 -1.0929
 2103SOL     OW 7216   1.711   6.389   0.589 -1.1555  0.0968  0.2148
 2103SOL    HW1 7217   1.748   6.469   0.626 -0.9233  0.2690 -0.3629
 2103SOL    HW2 7218   1.743   6.319   0.644 -1.0369  0.3697  0.4938
 2104SOL     OW 7219   1.729   1.191   3.697  0.4865 -0.1229 -0.5698
 2104SOL    HW1 7220   1.642   1.225   3.715  0.7409  0.7299 -0.9431
 2104SOL    HW2 7221   1.769   1.181   3.784  0.3056  0.2519 -0.4427
 2105SOL     OW 7222   3.989   7.513   1.659 -0.1080 -0.3649 -0.0277
 2105SOL    HW1 7223   3.945   7.513   1.574  0.6844 -3.4397 -0.5573
 2105SOL    HW2 7224   4.051   7.585   1.654 -2.3926  1.6767 -0.6841
 2106SOL     OW 7225   7.539   0.344   0.982 -0.5257 -0.5564 -0.5802
 2106SOL    HW1 7226   7.513   0.300   1.063  1.5639 -0.8508 -0.0152
 2106SOL    HW2 7227   7.490   0.425   0.982 -0.3047 -0.3899  1.1877
 2107SOL     OW 7228   4.280   5.346   6.919 -0.2188  0.0034 -0.3764
 2107SOL    HW1 7229   4.360   5.299   6.945 -0.7639 -0.6145  0.2044
 2107SOL    HW2 7230   4.278   5.424   6.974 -0.3636 -0.3239  0.0846
 2108SOL     OW 7231   6.618   7.512   3.662 -0.1735  0.1070  0.5174
 2108SOL    HW1 7232   6.563   7.460   3.603 -0.4668 -0.4306  1.2388
 2108SOL    HW2 7233   6.699   7.526   3.614 -0.0261 -1.1681  0.3501
 2109SOL     OW 7234   0.625   5.384   6.620 -0.3045  0.0999  0.0467
 2109SOL    HW1 7235   0.559   5.324   6.654 -0.1913  0.5035  0.9922
 2109SOL    HW2 7236   0.704   5.364   6.669 -0.3150  1.1491  0.5057
 2110SOL     OW 7237   7.178   1.494   0.368  0.0743 -0.8829 -0.1776
 2110SOL    HW1 7238   7.129   1.524   0.291 -0.7586  1.7302  1.2504
 2110SOL    HW2 7239   7.254   1.448   0.331 -1.3667 -1.6064 -2.4934
 2111SOL     OW 7240   1.332   0.026   1.017 -0.2154 -0.1872 -0.3908
 2111SOL    HW1 7241   1.247  -0.012   1.035 -0.0830  0.2020  1.2395
 2111SOL    HW2 7242   1.394  -0.045   1.031 -0.3301 -1.1240 -3.7953
 2112SOL     OW 7243   5.545   5.716   5.320  0.2577 -0.2973 -0.5169
 2112SOL    HW1 7244   5.576   5.698   5.408  1.3162 -2.7960 -1.3059
 2112SOL    HW2 7245   5.559   5.810   5.308 -0.5413  0.2339  2.1525
 2113SOL     OW 7246   4.984   3.991   6.470 -0.6976  0.0639  0.2208
 2113SOL    HW1 7247   4.988   4.031   6.383 -1.6675  1.1968  0.6770
 2113SOL    HW2 7248   4.935   3.910   6.457  0.6209 -0.6537 -0.5727
 2114SOL     OW 7249   2.901   3.028   6.865  0.1861 -0.3392  0.5074
 2114SOL    HW1 7250   2.986   2.992   6.892 -0.2655 -1.7317  0.1829
 2114SOL    HW2 7251   2.847   3.023   6.944 -0.3315 -1.8864  0.0985
 2115SOL     OW 7252   4.497   2.482   5.716  0.6531 -0.0013 -0.3917
 2115SOL    HW1 7253   4.539   2.545   5.775  1.8527  0.1203 -1.3379
 2115SOL    HW2 7254   4.403   2.498   5.727  0.9162  2.0793 -0.7059
 2116SOL     OW 7255   3.790   7.376   5.260  0.0976  0.1791  0.2241
 2116SOL    HW1 7256   3.860   7.439   5.244  1.3308 -1.3650 -0.7626
 2116SOL    HW2 7257   3.801   7.351   5.352  0.8738 -0.0786  0.0672
 2117SOL     OW 7258   4.312   6.887   7.372 -0.0389 -0.1019  0.4730
 2117SOL    HW1 7259   4.346   6.911   7.458 -0.6094  0.1420  0.6367
 2117SOL    HW2 7260   4.386   6.898   7.313  0.4302 -0.5410  0.9742
 2118SOL     OW 7261   5.004   3.325   3.633 -0.3237  0.3893  0.3963
 2118SOL    HW1 7262   4.998   3.239   3.592 -1.6621  0.4793  0.3312
 2118SOL    HW2 7263   5.018   3.386   3.560  0.2676  0.2619  0.4041
 2119SOL     OW 7264   2.913   3.682   6.654 -0.3522 -0.1845 -0.0791
 2119SOL    HW1 7265   2.883   3.770   6.634 -0.7495 -0.3633 -0.2745
 2119SOL    HW2 7266   2.852   3.649   6.719  0.7293  0.2590  1.2129
 2120SOL     OW 7267   1.202   4.462   0.590 -0.7313  0.1295 -0.2796
 2120SOL    HW1 7268   1.149   4.439   0.667 -1.5828  0.5482 -0.7218
 2120SOL    HW2 7269   1.138   4.494   0.526  0.2492  2.7168 -0.0811
 2121SOL     OW 7270   5.673   6.468   5.012 -0.4383  0.9493 -0.3399
 2121SOL    HW1 7271   5.648   6.410   5.084  1.2801  0.8639  0.2270
 2121SOL    HW2 7272   5.725   6.413   4.954 -0.9977  1.2762 -1.1711
 2122SOL     OW 7273   2.993   0.827   5.776 -0.1573 -0.8512  0.6720
 2122SOL    HW1 7274   2.920   0.889   5.771 -0.4004 -1.1259  0.7783
 2122SOL    HW2 7275   2.952   0.740   5.775  0.2217 -1.0359 -0.2653
 2123SOL     OW 7276   0.769   7.556   6.861 -0.2269  0.5104  0.5545
 2123SOL    HW1 7277   0.678   7.563   6.890  0.1540 -1.1830  2.3814
 2123SOL    HW2 7278   0.820   7.557   6.942  1.1365 -1.6080 -0.1838
 2124SOL     OW 7279   3.307   4.472   4.502  0.1078  0.1091  0.5492
 2124SOL    HW1 7280   3.281   4.537   4.568 -0.1282 -0.3527  0.9159
 2124SOL    HW2 7281   3.258   4.496   4.423 -0.0408  0.3279  0.7071
 2125SOL     OW 7282   5.404   3.468   3.955 -0.4082  0.2548 -0.2673
 2125SOL    HW1 7283   5.352   3.395   3.988 -0.4282  0.3407 -0.1100
 2125SOL    HW2 7284   5.343   3.541   3.950 -0.0795  0.6359  0.8980
 2126SOL     OW 7285   1.296   2.171   1.750 -0.4898 -0.3494  0.2303
 2126SOL    HW1 7286   1.334   2.088   1.778  0.2598  0.3859  1.4885
 2126SOL    HW2 7287   1.226   2.188   1.814 -1.8084 -0.8229 -1.0251
 2127SOL     OW 7288   2.518   4.969   0.074 -0.4180  0.6121  0.2024
 2127SOL    HW1 7289   2.539   4.897   0.015  0.2372 -0.0497  1.1949
 2127SOL    HW2 7290   2.496   5.042   0.017 -1.0620 -0.3538 -0.8390
 2128SOL     OW 7291   0.915   1.048   2.601  0.3701 -0.0281  0.0715
 2128SOL    HW1 7292   1.007   1.075   2.605  0.8092 -1.4953  3.1200
 2128SOL    HW2 7293   0.872   1.101   2.668 -0.8895  0.1059 -0.8127
 2129SOL     OW 7294   6.170   7.382   5.914  0.4029 -0.6083 -0.3950
 2129SOL    HW1 7295   6.249   7.399   5.964  0.6558  1.0124 -1.3092
 2129SOL    HW2 7296   6.200   7.346   5.831  0.3307  1.4627 -1.3720
 2130SOL     OW 7297   1.855   5.076   2.003  0.4006  0.2780  0.6711
 2130SOL    HW1 7298   1.773   5.123   2.019  0.2278  0.1242  0.2558
 2130SOL    HW2 7299   1.851   5.053   1.911 -0.5335 -2.4157  1.2747
 2131SOL     OW 7300   5.386   2.155   1.664  0.2129 -0.2868 -0.2356
 2131SOL    HW1 7301   5.471   2.126   1.697 -0.5832 -0.6890  1.6492
 2131SOL    HW2 7302   5.386   2.250   1.678  0.7420 -0.1225 -1.2645
 2132SOL     OW 7303   5.522   1.888   1.217  0.1587 -0.4714 -0.3969
 2132SOL    HW1 7304   5.577   1.823   1.260  1.2855  0.2649 -0.6619
 2132SOL    HW2 7305   5.524   1.863   1.125  1.1501  0.2809 -0.6040
 2133SOL     OW 7306   3.405   4.013   7.472  1.2609 -0.7501 -0.5517
 2133SOL    HW1 7307   3.339   3.945   7.457  0.0634  0.1356  0.4879
 2133SOL    HW2 7308   3.397   4.035   7.565  1.7356  0.6653 -0.8162
 2134SOL     OW 7309   5.171   3.719   6.695  0.2470  0.0296 -0.1838
 2134SOL    HW1 7310   5.177   3.676   6.781  1.1427 -1.0490 -0.7451
 2134SOL    HW2 7311   5.080   3.707   6.668  0.3882 -1.2421 -0.1612
 2135SOL     OW 7312   3.774   7.295   1.539 -0.8219  0.4444  0.1379
 2135SOL    HW1 7313   3.718   7.353   1.488  1.8287  1.9009 -1.3905
 2135SOL    HW2 7314   3.863   7.327   1.522  0.7107 -3.1043  0.5072
 2136SOL     OW 7315   6.821   5.623   1.578  0.0752 -0.4509  0.2694
 2136SOL    HW1 7316   6.734   5.593   1.551  0.1755 -1.5572  1.0844
 2136SOL    HW2 7317   6.880   5.554   1.548  0.3099 -1.1900  2.2866
 2137SOL     OW 7318   1.398   6.192   5.805 -0.2137 -0.1856  0.4035
 2137SOL    HW1 7319   1.406   6.100   5.780  0.6381  0.1126 -0.4775
 2137SOL    HW2 7320   1.322   6.194   5.863 -0.1163 -1.4727  0.6062
 2138SOL     OW 7321   4.523   3.947   3.043 -1.1636 -0.2748  0.1128
 2138SOL    HW1 7322   4.534   3.854   3.065  0.1429 -0.4542 -1.1129
 2138SOL    HW2 7323   4.444   3.949   2.990 -0.6381 -0.8784 -0.7291
 2139SOL     OW 7324   0.359   0.411   0.826 -0.0306 -0.5418  0.3739
 2139SOL    HW1 7325   0.410   0.492   0.825 -1.3191  0.3379 -1.7767
 2139SOL    HW2 7326   0.414   0.348   0.778  1.2324 -1.2283  2.5426
 2140SOL     OW 7327   1.374   2.413   3.740  0.4963 -0.2024 -0.0511
 2140SOL    HW1 7328   1.435   2.394   3.669 -0.2717 -2.6851 -0.1430
 2140SOL    HW2 7329   1.414   2.373   3.817 -0.1523 -0.2453  0.2712
 2141SOL     OW 7330   0.106   0.027   7.243  0.0033 -0.0350  0.0399
 2141SOL    HW1 7331   0.102   0.078   7.324 -0.8536 -1.1168  0.7042
 2141SOL    HW2 7332   0.107   0.093   7.174 -0.3318  0.8949  0.8872
 2142SOL     OW 7333   2.911   3.960   7.458 -0.0146  0.4364 -0.1796
 2142SOL    HW1 7334   2.871   3.944   7.543  1.0158  0.9707  0.4096
 2142SOL    HW2 7335   2.944   3.875   7.430  0.3374  0.4191  0.3027
 2143SOL     OW 7336   4.301   0.555   5.688  0.4092 -0.5050  0.0402
 2143SOL    HW1 7337   4.367   0.615   5.723 -1.1701  1.5194 -0.2532
 2143SOL    HW2 7338   4.301   0.571   5.593  1.0042 -2.1029 -0.2556
 2144SOL     OW 7339   1.478   7.682   2.917  0.0414  0.2183 -0.6581
 2144SOL    HW1 7340   1.466   7.716   2.828 -0.5911  0.2385 -0.5664
 2144SOL    HW2 7341   1.398   7.706   2.963 -0.6514 -1.7698 -0.7203
 2145SOL     OW 7342   0.114   3.372   5.173 -0.1146  0.0183  0.2978
 2145SOL    HW1 7343   0.175   3.314   5.219  2.6041  1.6986 -0.9259
 2145SOL    HW2 7344   0.119   3.344   5.082  1.5146  2.2176 -0.3776
 2146SOL     OW 7345   1.758   0.753   6.354 -0.0657 -0.7192 -0.0854
 2146SOL    HW1 7346   1.738   0.836   6.313 -0.1322 -0.8786 -0.3779
 2146SOL    HW2 7347   1.840   0.768   6.401  1.3650 -1.1804 -2.2707
 2147SOL     OW 7348   3.364   0.265   0.824  0.3104  0.5380 -0.7353
 2147SOL    HW1 7349   3.435   0.232   0.770  1.5534  1.8162  0.0569
 2147SOL    HW2 7350   3.294   0.287   0.761  0.9697  0.1563 -1.6198
 2148SOL     OW 7351   3.354   6.195   4.506 -0.3398  0.6065 -0.1143
 2148SOL    HW1 7352   3.441   6.229   4.484 -0.2485  0.5941  0.2324
 2148SOL    HW2 7353   3.359   6.102   4.481 -0.3977  0.7045 -0.5031
 2149SOL     OW 7354   2.075   1.354   4.677  0.2990  0.3873  0.4687
 2149SOL    HW1 7355   2.006   1.290   4.657  0.8529  0.4433 -1.9501
 2149SOL    HW2 7356   2.156   1.309   4.655  0.9312  0.9093  1.6547
 2150SOL     OW 7357   4.419   1.029   5.563  0.5078  0.0148 -0.1379
 2150SOL    HW1 7358   4.369   0.980   5.497  0.5630  0.4026 -0.4704
 2150SOL    HW2 7359   4.452   0.962   5.622 -0.3608 -0.2590  0.0556
 2151SOL     OW 7360   2.724   6.512   7.205 -0.2019  0.1575  0.0215
 2151SOL    HW1 7361   2.645   6.484   7.252  0.2692 -2.8577 -0.7393
 2151SOL    HW2 7362   2.692   6.572   7.138 -1.8587 -0.9201 -0.2032
 2152SOL     OW 7363   5.624   5.099   7.081  0.4581  0.1503  0.1484
 2152SOL    HW1 7364   5.542   5.052   7.097 -0.0222  0.3508 -1.5627
 2152SOL    HW2 7365   5.693   5.036   7.103 -0.1545 -0.4881  0.2619
 2153SOL     OW 7366   0.689   2.865   6.073  0.0127  0.3819  0.2586
 2153SOL    HW1 7367   0.687   2.914   5.991  3.4487  1.3436  0.6224
 2153SOL    HW2 7368   0.739   2.786   6.053  0.7378  0.5366  1.3426
 2154SOL     OW 7369   4.291   2.327   0.563  0.8624  0.2201 -0.4843
 2154SOL    HW1 7370   4.226   2.311   0.495  0.3968 -1.1294  0.2497
 2154SOL    HW2 7371   4.265   2.411   0.601  0.4909  0.4597 -1.2506
 2155SOL     OW 7372   1.751   1.700   5.292  0.8909  0.2937  0.3359
 2155SOL    HW1 7373   1.838   1.663   5.308  0.6295 -0.1191  0.8202
 2155SOL    HW2 7374   1.755   1.731   5.202  1.0467 -1.1372 -0.1772
 2156SOL     OW 7375   4.295   1.607   3.353  0.4337  0.9198  0.2219
 2156SOL    HW1 7376   4.270   1.569   3.269 -0.2870  2.6745 -0.3967
 2156SOL    HW2 7377   4.353   1.541   3.392  0.7074  0.0166 -1.5763
 2157SOL     OW 7378   3.570   2.894   5.290 -0.4270  0.6499 -0.4827
 2157SOL    HW1 7379   3.504   2.827   5.305 -0.6350  0.9022 -0.2559
 2157SOL    HW2 7380   3.653   2.849   5.299 -0.4965  0.8650  2.0069
 2158SOL     OW 7381   5.028   7.585   5.040 -0.2341 -0.0722  0.1591
 2158SOL    HW1 7382   5.119   7.560   5.023 -0.4384 -0.1738 -0.8511
 2158SOL    HW2 7383   5.022   7.676   5.014 -0.7705 -0.4773 -1.2144
 2159SOL     OW 7384   4.413   5.442   0.740  0.4692 -0.1626  0.7001
 2159SOL    HW1 7385   4.396   5.534   0.718 -1.9525 -0.9131 -0.9266
 2159SOL    HW2 7386   4.357   5.424   0.815  2.0399  0.0070  1.9716
 2160SOL     OW 7387   5.382   4.157   6.388 -0.2503 -0.5000  0.0723
 2160SOL    HW1 7388   5.330   4.091   6.342  0.1586 -1.8883  1.5336
 2160SOL    HW2 7389   5.470   4.148   6.351 -0.5741  0.5062 -1.0068
 2161SOL     OW 7390   5.930   3.968   0.213 -0.2785 -0.0089  0.8950
 2161SOL    HW1 7391   5.915   3.894   0.154 -0.2233 -0.0216  0.8960
 2161SOL    HW2 7392   5.994   4.022   0.166 -0.4378  0.1188  0.8240
 2162SOL     OW 7393   1.132   4.597   6.474  0.1340  0.1111 -0.7683
 2162SOL    HW1 7394   1.177   4.651   6.409  0.8059 -1.8223 -1.9553
 2162SOL    HW2 7395   1.171   4.510   6.466 -1.1762 -0.6865  0.8370
 2163SOL     OW 7396   5.462   6.308   0.833  0.5661  0.7376 -0.4954
 2163SOL    HW1 7397   5.507   6.392   0.827 -2.1406  2.2668 -1.2048
 2163SOL    HW2 7398   5.484   6.276   0.921  4.0654  0.6103 -1.2847
 2164SOL     OW 7399   6.885   2.457   3.660  0.4806  0.1380 -0.3070
 2164SOL    HW1 7400   6.845   2.404   3.591 -1.2432  1.5757 -0.4719
 2164SOL    HW2 7401   6.959   2.500   3.617  0.8172 -0.7244 -0.6228
 2165SOL     OW 7402   3.254   3.912   2.233  0.1263 -0.5468  0.3733
 2165SOL    HW1 7403   3.278   3.952   2.316  0.7215 -1.0758  0.4679
 2165SOL    HW2 7404   3.335   3.869   2.203  0.3223  0.8278 -1.1781
 2166SOL     OW 7405   7.582   7.131   3.101  0.1210 -0.5201 -0.0243
 2166SOL    HW1 7406   7.539   7.191   3.040 -0.4769 -1.6421 -0.7463
 2166SOL    HW2 7407   7.610   7.057   3.046  1.1981 -0.7243  0.7718
 2167SOL     OW 7408   6.170   6.943   6.578 -0.0049  0.4059  0.0535
 2167SOL    HW1 7409   6.087   6.941   6.625  0.1335 -1.7461  0.2740
 2167SOL    HW2 7410   6.158   6.885   6.503  1.3574 -0.1196  0.2099
 2168SOL     OW 7411   6.855   4.177   7.406  0.3416  0.6547  0.2968
 2168SOL    HW1 7412   6.869   4.111   7.474  0.4087 -0.0994 -0.4420
 2168SOL    HW2 7413   6.875   4.260   7.450 -0.7122  0.2970  1.5152
 2169SOL     OW 7414   3.465   2.061   0.817  0.8046 -0.7803 -0.8695
 2169SOL    HW1 7415   3.534   2.013   0.863  1.7760  1.4771  0.1857
 2169SOL    HW2 7416   3.385   2.040   0.865  1.1896 -1.3992 -0.4882
 2170SOL     OW 7417   5.349   0.204   5.928  0.2414 -0.1953  0.4508
 2170SOL    HW1 7418   5.354   0.218   5.833  2.7729  3.2182  0.8686
 2170SOL    HW2 7419   5.260   0.229   5.952 -0.0882  0.0215 -0.9219
 2171SOL     OW 7420   1.484   7.216   3.513  0.1747  0.4574  0.1425
 2171SOL    HW1 7421   1.423   7.287   3.534  1.1274  1.3173  0.0750
 2171SOL    HW2 7422   1.428   7.139   3.504 -0.9602  1.3190 -0.4307
 2172SOL     OW 7423   2.081   5.951   2.731  0.2157  0.8818 -0.4402
 2172SOL    HW1 7424   2.165   5.985   2.761  0.0874  1.3698 -0.6152
 2172SOL    HW2 7425   2.041   6.025   2.684 -1.4314  1.5855  1.8217
 2173SOL     OW 7426   0.511   5.631   0.008  0.0078 -0.4627 -0.2865
 2173SOL    HW1 7427   0.579   5.563   0.004  0.5570 -0.0384  1.2034
 2173SOL    HW2 7428   0.559   5.710   0.032 -0.7874  0.2241 -0.9366
 2174SOL     OW 7429   2.165   6.509   5.134 -0.2168  0.4661 -0.3440
 2174SOL    HW1 7430   2.196   6.598   5.119 -0.0774  0.4532 -0.1409
 2174SOL    HW2 7431   2.070   6.518   5.139 -0.1765  0.6724  0.1142
 2175SOL     OW 7432   3.309   0.729   7.690 -0.3836 -0.4028 -0.0010
 2175SOL    HW1 7433   3.364   0.713   7.612 -0.0746 -1.4872  0.4173
 2175SOL    HW2 7434   3.231   0.675   7.675 -0.6062 -0.1230  0.1540
 2176SOL     OW 7435   5.500   6.349   0.294  0.6894 -0.4832 -0.0348
 2176SOL    HW1 7436   5.594   6.332   0.296  0.8736  0.1106 -1.8492
 2176SOL    HW2 7437   5.480   6.383   0.381  2.5974  1.4722 -0.2787
 2177SOL     OW 7438   3.820   5.553   0.545  0.0372  0.3099  0.0733
 2177SOL    HW1 7439   3.734   5.557   0.502 -0.6841 -1.5632  1.1843
 2177SOL    HW2 7440   3.817   5.471   0.595  2.1858  0.6160  0.7894
 2178SOL     OW 7441   5.723   2.990   1.335  0.0694 -0.0561  0.0813
 2178SOL    HW1 7442   5.781   3.044   1.388  0.3009 -0.1852 -0.0422
 2178SOL    HW2 7443   5.725   2.904   1.377 -0.6498  0.1387  0.5470
 2179SOL     OW 7444   6.297   3.127   6.922  0.2407 -0.0429 -0.5494
 2179SOL    HW1 7445   6.360   3.184   6.967  1.1036 -0.0507 -1.7001
 2179SOL    HW2 7446   6.351   3.058   6.883 -0.7591 -1.5341  0.5834
 2180SOL     OW 7447   2.696   6.230   4.134  0.4728 -0.1215  0.2736
 2180SOL    HW1 7448   2.690   6.150   4.082 -1.6384 -1.1128  1.8962
 2180SOL    HW2 7449   2.680   6.301   4.072 -4.0433 -1.3353 -0.3167
 2181SOL     OW 7450   4.718   7.256   2.360  0.0715 -0.1344  0.0461
 2181SOL    HW1 7451   4.701   7.318   2.289  3.0193 -0.0258 -0.6915
 2181SOL    HW2 7452   4.739   7.311   2.435  2.1690 -0.1764 -0.4682
 2182SOL     OW 7453   7.064   7.424   5.981  0.4963  0.3536  0.1847
 2182SOL    HW1 7454   7.057   7.483   5.905  0.4271  0.2038  0.0733
 2182SOL    HW2 7455   7.039   7.338   5.946 -1.1993  0.5756  0.7620
 2183SOL     OW 7456   6.812   2.262   5.227  0.0769 -0.0189 -0.6871
 2183SOL    HW1 7457   6.856   2.286   5.308  0.8702 -0.0034 -1.1069
 2183SOL    HW2 7458   6.770   2.343   5.197 -0.2613 -0.0388 -0.2677
 2184SOL     OW 7459   6.653   6.585   0.080  0.4609 -0.1505  0.4481
 2184SOL    HW1 7460   6.744   6.603   0.102  0.3672  1.1666 -0.1708
 2184SOL    HW2 7461   6.653   6.572  -0.014 -0.3544  2.7400 -0.0564
 2185SOL     OW 7462   2.895   4.730   5.988 -0.5195  0.1597  0.4654
 2185SOL    HW1 7463   2.932   4.662   5.932 -1.3367  0.0934  0.0074
 2185SOL    HW2 7464   2.916   4.702   6.077  0.0558 -0.1518  0.2365
 2186SOL     OW 7465   2.927   5.973   4.354 -0.0829 -0.5340 -0.6897
 2186SOL    HW1 7466   2.966   5.965   4.267  1.7748 -0.5255  0.1153
 2186SOL    HW2 7467   2.998   6.001   4.411 -0.9627 -1.6643  1.0844
 2187SOL     OW 7468   1.178   5.140   0.483  0.3432 -0.0982  0.0266
 2187SOL    HW1 7469   1.089   5.132   0.450 -0.0805  2.8180  0.2056
 2187SOL    HW2 7470   1.173   5.110   0.574  0.1453 -2.2482 -0.6512
 2188SOL     OW 7471   0.691   1.917   4.388 -0.1397 -0.0966 -0.2086
 2188SOL    HW1 7472   0.752   1.883   4.323  0.8851  0.0552  0.6435
 2188SOL    HW2 7473   0.701   1.858   4.463 -0.8624  0.0873  0.0435
 2189SOL     OW 7474   4.414   6.274   1.828 -0.4056 -0.9973  0.0450
 2189SOL    HW1 7475   4.328   6.276   1.870 -1.5918 -1.3484 -2.1835
 2189SOL    HW2 7476   4.439   6.366   1.820 -1.8541 -0.6882 -1.6070
 2190SOL     OW 7477   3.906   3.951   3.433 -0.2142  0.8790  0.0120
 2190SOL    HW1 7478   3.896   4.014   3.362 -1.7795  1.1538  0.4316
 2190SOL    HW2 7479   3.840   3.884   3.416 -0.3328  0.7298  0.9784
 2191SOL     OW 7480   4.029   6.578   7.708 -0.2078 -0.0547  0.0520
 2191SOL    HW1 7481   3.947   6.572   7.757 -0.0870  0.1183  0.2800
 2191SOL    HW2 7482   4.097   6.571   7.776 -0.0396  0.4858 -0.0591
 2192SOL     OW 7483   4.601   3.465   0.067 -0.1872  0.6011 -0.2587
 2192SOL    HW1 7484   4.507   3.451   0.059 -0.3002  1.0476  0.2569
 2192SOL    HW2 7485   4.639   3.406   0.002 -0.7763 -0.2412  0.1344
 2193SOL     OW 7486   6.338   5.485   6.332 -0.1237 -0.1971 -0.1279
 2193SOL    HW1 7487   6.414   5.482   6.274 -0.4624  0.9582 -0.6553
 2193SOL    HW2 7488   6.329   5.395   6.364  0.2202 -0.7996 -1.6514
 2194SOL     OW 7489   2.793   2.271   4.757  0.0579  0.1415 -0.7895
 2194SOL    HW1 7490   2.776   2.255   4.850 -1.1579 -1.2242 -1.2129
 2194SOL    HW2 7491   2.854   2.203   4.731 -0.1537  0.0810 -1.1403
 2195SOL     OW 7492   1.030   1.695   1.838  0.3560 -0.1270  0.2685
 2195SOL    HW1 7493   0.952   1.660   1.796 -0.4333 -0.8150  2.1685
 2195SOL    HW2 7494   0.999   1.773   1.884  0.5448 -0.9231  1.8041
 2196SOL     OW 7495   6.397   6.669   4.766 -0.1705 -0.0805  0.8782
 2196SOL    HW1 7496   6.449   6.739   4.806  1.1333 -1.1634  1.1465
 2196SOL    HW2 7497   6.420   6.672   4.673  0.1289 -0.3543  0.9432
 2197SOL     OW 7498   7.650   2.079   7.183  0.2350 -0.5272 -0.3226
 2197SOL    HW1 7499   7.555   2.090   7.192  0.2494 -0.9595  0.5177
 2197SOL    HW2 7500   7.686   2.130   7.255  0.5967 -0.9040 -0.2318
 2198SOL     OW 7501   6.270   4.871   1.963  0.3162 -0.0443  0.0499
 2198SOL    HW1 7502   6.242   4.846   2.051 -0.7414 -0.3233 -0.3418
 2198SOL    HW2 7503   6.210   4.824   1.905  0.8258  0.3411 -0.8131
 2199SOL     OW 7504   5.420   6.794   0.966 -0.1938  0.1484  1.0744
 2199SOL    HW1 7505   5.426   6.712   1.014  3.0301  0.5639  1.5713
 2199SOL    HW2 7506   5.501   6.799   0.916 -0.6830  2.6283  0.3795
 2200SOL     OW 7507   3.275   2.751   7.017  0.1857 -0.4053  0.2695
 2200SOL    HW1 7508   3.342   2.703   7.066  0.9119  3.9781  4.2043
 2200SOL    HW2 7509   3.194   2.738   7.067 -0.7060 -1.1054 -1.2675
 2201SOL     OW 7510   2.391   0.459   0.738 -0.2574  0.3901  0.0250
 2201SOL    HW1 7511   2.349   0.376   0.719  0.9298  0.3457 -2.9791
 2201SOL    HW2 7512   2.371   0.514   0.663  3.1835  1.0408 -0.5792
 2202SOL     OW 7513   5.147   1.040   5.715 -0.0348  0.3524  0.0039
 2202SOL    HW1 7514   5.152   1.123   5.763  1.0903  0.7078 -0.6965
 2202SOL    HW2 7515   5.057   1.037   5.681 -0.0337  1.3823 -0.1205
 2203SOL     OW 7516   0.614   0.295   6.135 -0.5889 -0.0113 -0.3866
 2203SOL    HW1 7517   0.552   0.276   6.065  0.7645  0.0705 -1.6525
 2203SOL    HW2 7518   0.651   0.380   6.112  0.9038 -0.6267 -0.3507
 2204SOL     OW 7519   4.628   0.291   2.266  0.1725  0.1482 -0.2133
 2204SOL    HW1 7520   4.710   0.291   2.315  1.5178  1.3220 -2.2831
 2204SOL    HW2 7521   4.568   0.343   2.319  1.0545  0.0442  0.9164
 2205SOL     OW 7522   3.693   0.955   1.645 -0.5282 -0.3568  0.5976
 2205SOL    HW1 7523   3.690   1.030   1.585 -1.0682  0.0615  1.1272
 2205SOL    HW2 7524   3.714   0.880   1.589 -0.0777  0.1741  0.0400
 2206SOL     OW 7525   6.173   5.297   1.857 -0.7305  0.1120  0.0610
 2206SOL    HW1 7526   6.193   5.387   1.885 -1.4214 -0.0074  1.0098
 2206SOL    HW2 7527   6.187   5.244   1.936 -0.7578 -0.5433 -0.3720
 2207SOL     OW 7528   5.003   2.797   3.290  0.2358 -0.2094  0.5543
 2207SOL    HW1 7529   5.046   2.835   3.213  0.9897 -0.0953  1.0332
 2207SOL    HW2 7530   5.042   2.842   3.365 -1.0757  0.2761  0.9868
 2208SOL     OW 7531   4.049   3.288   7.052 -0.4423 -0.0850  0.0612
 2208SOL    HW1 7532   4.048   3.382   7.036  3.1357 -0.1583 -1.5279
 2208SOL    HW2 7533   4.119   3.275   7.116 -1.2081 -1.6429  0.6361
 2209SOL     OW 7534   5.128   5.719   3.711  1.0856  0.0832 -0.3087
 2209SOL    HW1 7535   5.065   5.669   3.762  1.5755  0.3239  0.5493
 2209SOL    HW2 7536   5.131   5.805   3.752 -0.3180  1.1273 -2.2237
 2210SOL     OW 7537   6.740   3.620   5.090  0.3582  0.7834 -0.2323
 2210SOL    HW1 7538   6.809   3.627   5.155  0.0216 -2.4002  0.6685
 2210SOL    HW2 7539   6.696   3.537   5.111 -2.4413  1.6802 -2.0040
 2211SOL     OW 7540   3.972   2.191   0.877  0.4470  0.2772  0.1017
 2211SOL    HW1 7541   3.952   2.180   0.784  0.4828  0.2655  0.0957
 2211SOL    HW2 7542   4.067   2.197   0.882  0.4876 -0.4011  0.2101
 2212SOL     OW 7543   4.727   7.205   4.091  0.4230 -0.1270 -0.7399
 2212SOL    HW1 7544   4.717   7.168   4.004 -2.2115  1.1709 -1.0804
 2212SOL    HW2 7545   4.652   7.171   4.141  0.8051  0.6746  0.4354
 2213SOL     OW 7546   1.605   5.630   6.768 -0.8329  0.4222 -0.2170
 2213SOL    HW1 7547   1.669   5.699   6.788 -1.1042  0.3400  0.9917
 2213SOL    HW2 7548   1.655   5.565   6.719 -0.3361  1.0101 -0.5166
 2214SOL     OW 7549   4.071   3.484   1.477  0.0832  0.0039  0.0763
 2214SOL    HW1 7550   4.163   3.507   1.492  0.1709 -1.7805  3.4156
 2214SOL    HW2 7551   4.074   3.401   1.430  0.1190  0.4185 -0.6682
 2215SOL     OW 7552   4.854   0.211   6.076  0.2704  0.0126  0.0237
 2215SOL    HW1 7553   4.763   0.219   6.106  0.2834  0.1416  0.0315
 2215SOL    HW2 7554   4.903   0.192   6.156  0.3874  0.9490  0.1923
 2216SOL     OW 7555   2.814   4.260   3.799  0.0656  0.0933  0.3831
 2216SOL    HW1 7556   2.851   4.252   3.887  0.7936  1.1337  0.1894
 2216SOL    HW2 7557   2.766   4.343   3.801  2.7760  1.8380 -1.1060
 2217SOL     OW 7558   2.638   6.519   7.595  0.0472  0.4645  0.0066
 2217SOL    HW1 7559   2.668   6.610   7.588  0.8010  0.2168 -0.1355
 2217SOL    HW2 7560   2.713   6.467   7.566 -0.8918 -0.1546 -1.4221
 2218SOL     OW 7561   5.114   0.134   6.541 -0.5689 -0.3428  0.0312
 2218SOL    HW1 7562   5.067   0.216   6.554 -2.2739 -1.2911  0.1674
 2218SOL    HW2 7563   5.062   0.068   6.587  0.5565 -1.5760 -0.3625
 2219SOL     OW 7564   2.852   2.215   5.369  0.4625  0.3059  0.3374
 2219SOL    HW1 7565   2.859   2.293   5.313 -0.0854  0.2655  0.2068
 2219SOL    HW2 7566   2.839   2.143   5.307 -0.2972  0.2801  0.5205
 2220SOL     OW 7567   7.150   3.272   3.177  0.2748 -0.0876 -0.0755
 2220SOL    HW1 7568   7.113   3.359   3.160  0.6655  0.3505  1.2344
 2220SOL    HW2 7569   7.143   3.227   3.093  0.4670  1.3556 -0.8975
 2221SOL     OW 7570   2.787   5.389   5.507 -0.2551 -0.3469  0.0836
 2221SOL    HW1 7571   2.792   5.387   5.603 -0.0192  0.9291  0.1043
 2221SOL    HW2 7572   2.867   5.344   5.478 -1.0550 -2.1156  0.4535
 2222SOL     OW 7573   1.356   7.215   1.067  0.0069 -0.1128  0.1428
 2222SOL    HW1 7574   1.394   7.292   1.110  1.3381 -0.3557 -0.5743
 2222SOL    HW2 7575   1.394   7.140   1.113 -1.7001 -0.4071  1.2078
 2223SOL     OW 7576   2.150   4.279   7.258  0.2337 -0.6519 -0.1155
 2223SOL    HW1 7577   2.238   4.313   7.275  0.1125 -1.3517  2.2679
 2223SOL    HW2 7578   2.165   4.188   7.231  0.2447 -1.1411  1.4365
 2224SOL     OW 7579   0.758   3.999   7.309 -0.0351 -0.1853  0.3149
 2224SOL    HW1 7580   0.769   3.931   7.376 -0.8599 -0.2531  0.4014
 2224SOL    HW2 7581   0.670   4.033   7.324  0.6188  1.4183  0.7302
 2225SOL     OW 7582   2.928   3.891   1.559  0.1171  0.0061 -0.0781
 2225SOL    HW1 7583   2.894   3.972   1.597 -0.0301  0.0178 -0.2367
 2225SOL    HW2 7584   2.855   3.856   1.508  0.7492  0.7143 -1.5275
 2226SOL     OW 7585   3.548   7.239   3.109 -0.4531 -0.0042 -0.4092
 2226SOL    HW1 7586   3.566   7.168   3.170 -0.5266  2.4394  2.7427
 2226SOL    HW2 7587   3.455   7.231   3.089 -0.2829 -1.2335 -0.7488
 2227SOL     OW 7588   2.013   0.302   1.484 -0.6915  0.1611  0.1989
 2227SOL    HW1 7589   2.005   0.277   1.391  1.0341 -0.1757  0.1215
 2227SOL    HW2 7590   2.095   0.262   1.513 -0.5366  1.3838  1.5266
 2228SOL     OW 7591   3.901   6.833   3.572  0.0791 -0.3145 -0.1741
 2228SOL    HW1 7592   3.868   6.895   3.637 -0.7236  1.1262 -1.8903
 2228SOL    HW2 7593   3.995   6.849   3.569 -0.0228  0.3254 -0.0966
 2229SOL     OW 7594   7.011   1.583   2.018 -0.1990 -0.1295 -0.2059
 2229SOL    HW1 7595   6.932   1.534   1.995 -0.5829  1.1786 -1.8809
 2229SOL    HW2 7596   7.081   1.518   2.018 -0.9823 -0.9937 -0.5076
 2230SOL     OW 7597   3.505   5.795   2.969 -0.2620  0.0807 -0.1657
 2230SOL    HW1 7598   3.470   5.832   2.888  0.1095 -1.0795 -0.8760
 2230SOL    HW2 7599   3.549   5.715   2.942  0.3514 -0.0390  1.1191
 2231SOL     OW 7600   5.257   6.018   0.162 -0.0153 -0.5934  0.7457
 2231SOL    HW1 7601   5.165   6.024   0.135  0.0336  1.9594  0.9197
 2231SOL    HW2 7602   5.306   6.055   0.089  0.6128  0.5886  1.7223
 2232SOL     OW 7603   6.510   2.812   5.212  0.7352 -0.3083  0.5223
 2232SOL    HW1 7604   6.452   2.854   5.276 -1.8565 -2.3673 -0.2705
 2232SOL    HW2 7605   6.512   2.873   5.138 -0.9513 -0.4003  0.3557
 2233SOL     OW 7606   5.392   5.479   6.136  0.4011 -0.4615  0.2910
 2233SOL    HW1 7607   5.327   5.449   6.073 -0.2144  1.8088 -0.2377
 2233SOL    HW2 7608   5.460   5.411   6.133  0.0887 -0.7798 -2.3248
 2234SOL     OW 7609   3.120   0.560   0.771  0.1821  0.1234 -0.1230
 2234SOL    HW1 7610   3.033   0.525   0.791  1.1380 -1.8506  0.8575
 2234SOL    HW2 7611   3.146   0.515   0.691  0.9613 -0.5574  0.5030
 2235SOL     OW 7612   7.540   7.110   2.165  0.0019  0.6933  0.4955
 2235SOL    HW1 7613   7.481   7.054   2.216  1.6815 -0.8380  0.8655
 2235SOL    HW2 7614   7.595   7.048   2.117  0.4204  2.0897 -0.8963
 2236SOL     OW 7615   1.690   4.756   6.584 -0.2527 -0.0284 -0.0916
 2236SOL    HW1 7616   1.612   4.783   6.632 -1.2531 -2.1482 -0.3701
 2236SOL    HW2 7617   1.742   4.708   6.648 -1.0855 -1.9489 -0.7758
 2237SOL     OW 7618   3.998   1.371   6.066  0.6818 -0.0160 -0.6172
 2237SOL    HW1 7619   4.007   1.282   6.100  0.5146 -0.3885 -1.5270
 2237SOL    HW2 7620   3.949   1.361   5.984 -1.4141  1.1413  0.4015
 2238SOL     OW 7621   6.128   4.140   6.904 -0.1786 -0.3035  0.8037
 2238SOL    HW1 7622   6.074   4.062   6.899 -1.7863  0.7884  0.4463
 2238SOL    HW2 7623   6.100   4.184   6.984 -1.0815  1.1323 -0.2605
 2239SOL     OW 7624   4.955   7.409   4.085  0.0103  0.1629 -0.2305
 2239SOL    HW1 7625   4.940   7.486   4.140 -0.7394  1.2361 -1.8287
 2239SOL    HW2 7626   4.867   7.376   4.067  0.3370 -1.2429  0.6209
 2240SOL     OW 7627   5.014   5.571   2.077 -0.1368 -0.0542  0.3271
 2240SOL    HW1 7628   5.049   5.485   2.099 -0.0963 -0.0642  0.2247
 2240SOL    HW2 7629   4.966   5.557   1.995  0.1915  0.0962  0.1058
 2241SOL     OW 7630   4.478   3.247   6.709  0.0227  0.4736 -0.8439
 2241SOL    HW1 7631   4.487   3.218   6.618 -1.0798  2.3022 -1.5783
 2241SOL    HW2 7632   4.387   3.229   6.731  0.8727 -2.4661  0.9054
 2242SOL     OW 7633   5.247   1.611   1.893 -0.2166  0.1352 -0.2693
 2242SOL    HW1 7634   5.203   1.527   1.901 -0.7436  0.4682  0.5233
 2242SOL    HW2 7635   5.224   1.643   1.806  0.2658 -0.6791 -0.7121
 2243SOL     OW 7636   5.993   4.091   4.089 -0.8424  0.3040 -0.3953
 2243SOL    HW1 7637   5.948   4.152   4.031  1.3079  0.9026 -1.5599
 2243SOL    HW2 7638   6.078   4.076   4.047  0.7668  0.5878  2.4361
 2244SOL     OW 7639   5.199   7.737   6.118 -0.2477 -0.2447  0.3741
 2244SOL    HW1 7640   5.145   7.763   6.044 -0.5493 -1.4127  0.1620
 2244SOL    HW2 7641   5.209   7.642   6.109  2.4555 -0.0035 -0.0064
 2245SOL     OW 7642   7.152   5.065   7.531  0.7836 -0.4891  0.2910
 2245SOL    HW1 7643   7.138   4.971   7.522  0.0233 -0.2696 -1.0605
 2245SOL    HW2 7644   7.160   5.079   7.625 -1.5484 -1.6047  0.7323
 2246SOL     OW 7645   6.996   5.977   4.855 -0.0696 -0.1971  0.0527
 2246SOL    HW1 7646   6.911   5.985   4.812  0.5286 -0.1683 -1.1624
 2246SOL    HW2 7647   7.054   6.035   4.805  0.9916 -1.2688 -0.0105
 2247SOL     OW 7648   5.619   5.379   0.394 -0.3461 -0.0142  0.0488
 2247SOL    HW1 7649   5.655   5.466   0.374 -0.8937 -0.0852 -1.3497
 2247SOL    HW2 7650   5.695   5.322   0.399  0.3923  0.9951  4.1242
 2248SOL     OW 7651   6.401   3.132   6.287 -0.4209 -0.0040 -0.3877
 2248SOL    HW1 7652   6.449   3.120   6.205 -0.4847 -0.2772 -0.3884
 2248SOL    HW2 7653   6.318   3.087   6.273 -1.0245  1.1653 -0.6867
 2249SOL     OW 7654   0.416   1.205   5.688 -0.0664 -0.7236 -0.3294
 2249SOL    HW1 7655   0.362   1.279   5.716 -1.0401 -1.3217 -0.5789
 2249SOL    HW2 7656   0.454   1.171   5.768 -2.3456 -2.0458  0.2819
 2250SOL     OW 7657   4.303   7.064   4.189  0.1540 -0.0697 -0.0306
 2250SOL    HW1 7658   4.394   7.039   4.175  0.4155  0.7694  0.1359
 2250SOL    HW2 7659   4.295   7.149   4.147 -1.4910 -1.6094 -3.2268
 2251SOL     OW 7660   6.705   4.388   0.607 -0.2445 -0.0601 -0.0140
 2251SOL    HW1 7661   6.796   4.378   0.577  0.0614  1.8952  0.1280
 2251SOL    HW2 7662   6.686   4.481   0.596 -2.3456 -0.4628 -0.2855
 2252SOL     OW 7663   0.759   6.206   0.184  0.0362 -0.2521  0.0037
 2252SOL    HW1 7664   0.747   6.278   0.121 -1.4667  0.4788  1.0602
 2252SOL    HW2 7665   0.702   6.137   0.152  0.2189 -0.3492 -0.1124
 2253SOL     OW 7666   5.185   4.400   0.986 -0.3002 -0.3507 -0.7827
 2253SOL    HW1 7667   5.111   4.458   1.003  0.1798 -0.0099  0.2497
 2253SOL    HW2 7668   5.146   4.320   0.952 -1.1080 -0.0371 -0.6058
 2254SOL     OW 7669   4.896   5.134   6.282 -0.2650  0.1945 -0.6412
 2254SOL    HW1 7670   4.946   5.144   6.363  0.1743  2.0741 -1.0924
 2254SOL    HW2 7671   4.835   5.063   6.300  0.5706 -0.1710  0.9454
 2255SOL     OW 7672   1.028   3.882   0.397 -0.6468 -0.1912  0.0913
 2255SOL    HW1 7673   1.123   3.869   0.394 -0.6801 -0.3653 -2.8464
 2255SOL    HW2 7674   1.017   3.976   0.413  0.0170 -0.1607  0.4009
 2256SOL     OW 7675   3.658   1.189   3.665  0.5118  0.0303 -0.1593
 2256SOL    HW1 7676   3.595   1.260   3.650  0.3325  0.8558  3.5219
 2256SOL    HW2 7677   3.716   1.192   3.588 -0.0862  3.5307 -0.6520
 2257SOL     OW 7678   7.548   7.419   1.432 -0.2453 -0.1140 -0.2893
 2257SOL    HW1 7679   7.599   7.355   1.482  0.7922 -0.4377 -1.6960
 2257SOL    HW2 7680   7.613   7.482   1.400 -1.0533  0.7870 -0.1812
 2258SOL     OW 7681   5.664   1.698   2.093  0.4208 -0.7823 -0.2021
 2258SOL    HW1 7682   5.727   1.626   2.090  0.6594 -0.5820 -0.0159
 2258SOL    HW2 7683   5.584   1.662   2.052  0.6258 -1.0625 -0.3583
 2259SOL     OW 7684   7.545   1.316   1.847  0.4481 -0.5979  0.2430
 2259SOL    HW1 7685   7.519   1.256   1.918  2.3055 -2.5399 -0.5950
 2259SOL    HW2 7686   7.592   1.260   1.785  0.8477  1.4787 -1.4328
 2260SOL     OW 7687   4.495   0.637   1.529 -0.0221  0.2104 -0.4388
 2260SOL    HW1 7688   4.424   0.637   1.465  0.2693  1.1505 -0.7806
 2260SOL    HW2 7689   4.529   0.726   1.526  1.2675 -0.2633 -0.3949
 2261SOL     OW 7690   6.776   7.650   5.464 -0.3810  0.3255 -0.1513
 2261SOL    HW1 7691   6.786   7.560   5.494  0.0123  0.7106  0.9076
 2261SOL    HW2 7692   6.686   7.654   5.430 -0.1220 -0.6812 -1.0399
 2262SOL     OW 7693   0.620   3.982   5.800 -0.2488 -0.5216  0.4639
 2262SOL    HW1 7694   0.532   4.020   5.809  0.0629  0.1857  0.6208
 2262SOL    HW2 7695   0.644   4.000   5.709 -0.7173 -1.7431  0.0748
 2263SOL     OW 7696   2.349   2.682   2.958 -0.2514 -0.6257 -0.1672
 2263SOL    HW1 7697   2.408   2.670   2.884 -0.6029  2.0494 -0.9798
 2263SOL    HW2 7698   2.387   2.754   3.008 -1.2458 -0.8533  0.9854
 2264SOL     OW 7699   4.382   1.110   0.739  0.7466  0.0483 -0.0432
 2264SOL    HW1 7700   4.400   1.164   0.662 -1.0816  0.2434 -0.3595
 2264SOL    HW2 7701   4.385   1.020   0.706 -0.7124  0.1524 -0.5351
 2265SOL     OW 7702   7.289   6.467   7.328  0.4337 -0.1471  0.0511
 2265SOL    HW1 7703   7.339   6.394   7.291  2.1041  0.8343  0.2532
 2265SOL    HW2 7704   7.350   6.540   7.326 -1.4044  1.4511 -0.8022
 2266SOL     OW 7705   4.204   6.588   1.510  0.3648  0.0176 -0.3311
 2266SOL    HW1 7706   4.128   6.644   1.526 -0.8231 -1.3091 -1.0474
 2266SOL    HW2 7707   4.264   6.643   1.459 -1.7581  0.0538 -3.0795
 2267SOL     OW 7708   4.053   6.935   3.253  0.1214  0.3411  0.4714
 2267SOL    HW1 7709   4.006   6.851   3.258  0.7393  0.0147  1.0943
 2267SOL    HW2 7710   4.119   6.929   3.323 -2.0419  2.7308  2.9519
 2268SOL     OW 7711   5.421   3.603   7.011 -0.5966 -0.5207  0.0515
 2268SOL    HW1 7712   5.422   3.559   6.926  1.6555 -0.2251 -0.1341
 2268SOL    HW2 7713   5.483   3.554   7.065 -1.6963 -0.4678  1.4205
 2269SOL     OW 7714   5.067   3.188   5.465  0.5711  0.5777 -0.1283
 2269SOL    HW1 7715   5.133   3.172   5.397 -1.2225  1.2277 -2.1438
 2269SOL    HW2 7716   5.105   3.258   5.519  1.2969  1.4141 -1.6442
 2270SOL     OW 7717   3.685   6.673   3.567  0.0558 -0.4109  0.4887
 2270SOL    HW1 7718   3.682   6.579   3.584  0.7019 -0.7252 -0.9789
 2270SOL    HW2 7719   3.778   6.693   3.554 -0.2879 -0.2230 -2.3214
 2271SOL     OW 7720   2.729   1.613   5.964  0.0439 -0.4992  0.1064
 2271SOL    HW1 7721   2.711   1.578   6.051  0.0033 -1.4280 -0.2580
 2271SOL    HW2 7722   2.824   1.624   5.961  0.1284 -1.2266 -0.0018
 2272SOL     OW 7723   5.350   0.817   6.280  0.5446  0.2886 -0.3046
 2272SOL    HW1 7724   5.332   0.724   6.292  0.2020  0.4665  0.6157
 2272SOL    HW2 7725   5.301   0.840   6.201  0.3598 -0.2364 -0.3522
 2273SOL     OW 7726   3.120   1.091   3.034 -0.0201 -0.1702 -0.1819
 2273SOL    HW1 7727   3.069   1.172   3.041 -0.1128 -0.1544 -0.9136
 2273SOL    HW2 7728   3.206   1.119   3.003  0.7508 -0.1008  1.9063
 2274SOL     OW 7729   3.064   7.728   0.525  0.0221  0.0327  0.3747
 2274SOL    HW1 7730   3.063   7.815   0.485  0.8129  0.3394  0.9976
 2274SOL    HW2 7731   3.007   7.675   0.469 -0.4803  0.9533  0.0040
 2275SOL     OW 7732   6.147   7.222   1.777 -0.0016  0.5754  0.0471
 2275SOL    HW1 7733   6.150   7.282   1.851 -0.7321  0.6762  0.0016
 2275SOL    HW2 7734   6.233   7.229   1.736  0.2445  0.8657  0.6135
 2276SOL     OW 7735   1.639   1.506   1.858 -0.7016  0.2328  0.1026
 2276SOL    HW1 7736   1.610   1.493   1.768 -0.6363  1.4315 -0.1073
 2276SOL    HW2 7737   1.588   1.580   1.890  0.5564  0.9860  0.4364
 2277SOL     OW 7738   0.393   0.142   6.361 -0.1905 -0.1064  0.1254
 2277SOL    HW1 7739   0.365   0.085   6.289 -0.4227 -0.2514  0.3342
 2277SOL    HW2 7740   0.438   0.083   6.422 -1.1940 -0.2177  0.7654
 2278SOL     OW 7741   5.155   2.026   3.522 -0.1600 -0.3827  0.1788
 2278SOL    HW1 7742   5.139   1.999   3.613  0.7309 -1.8658 -0.0698
 2278SOL    HW2 7743   5.147   2.121   3.524  0.3102 -0.3360  1.9210
 2279SOL     OW 7744   2.752   5.845   5.565  0.2376 -0.6577 -0.9139
 2279SOL    HW1 7745   2.731   5.813   5.477 -0.2848  0.6969 -1.2949
 2279SOL    HW2 7746   2.674   5.890   5.594  1.1557  0.8207 -0.6512
 2280SOL     OW 7747   6.606   2.801   0.919  0.3775  0.4327  0.3211
 2280SOL    HW1 7748   6.691   2.814   0.876 -0.2363  0.5285 -0.9157
 2280SOL    HW2 7749   6.542   2.819   0.850 -0.6298 -0.6924  0.9287
 2281SOL     OW 7750   1.859   2.460   6.146  0.3502 -0.2899 -0.0516
 2281SOL    HW1 7751   1.927   2.412   6.098 -0.3763  0.3807 -1.8256
 2281SOL    HW2 7752   1.881   2.552   6.131  0.0419 -0.0676  0.8435
 2282SOL     OW 7753   3.036   3.161   4.769 -0.2277 -0.4520 -0.4640
 2282SOL    HW1 7754   3.105   3.208   4.817 -0.5814  0.6294 -0.9828
 2282SOL    HW2 7755   3.077   3.138   4.686 -0.7146  0.9070 -1.1024
 2283SOL     OW 7756   3.565   5.309   6.465  0.6789  0.5679  0.3226
 2283SOL    HW1 7757   3.520   5.310   6.550  0.2377 -0.0259  0.0991
 2283SOL    HW2 7758   3.500   5.340   6.403  0.0399 -1.7164 -0.2434
 2284SOL     OW 7759   6.139   0.813   5.804 -0.4583 -0.0195  0.3442
 2284SOL    HW1 7760   6.046   0.810   5.782 -0.2252 -1.3481 -0.5946
 2284SOL    HW2 7761   6.142   0.795   5.898 -1.1603  0.5364  0.4848
 2285SOL     OW 7762   6.564   0.987   5.363 -0.3572  0.0175 -0.1064
 2285SOL    HW1 7763   6.512   0.991   5.283  0.1755 -0.6311 -0.4921
 2285SOL    HW2 7764   6.646   1.032   5.340  0.1941 -1.0316 -0.2423
 2286SOL     OW 7765   4.957   7.176   0.912 -0.1023 -0.0903 -0.2309
 2286SOL    HW1 7766   4.918   7.264   0.904  1.5801  1.0618  2.6639
 2286SOL    HW2 7767   5.041   7.183   0.867  0.1342 -0.1092  0.1993
 2287SOL     OW 7768   6.830   4.778   3.233  0.1407 -0.0817  0.5085
 2287SOL    HW1 7769   6.917   4.775   3.274  0.6254 -1.3583 -0.5210
 2287SOL    HW2 7770   6.788   4.697   3.262 -0.9649  0.8207  1.4928
 2288SOL     OW 7771   3.731   6.062   2.921 -0.1835  0.8974 -0.0940
 2288SOL    HW1 7772   3.752   5.994   2.857 -1.0450  0.5077  0.0365
 2288SOL    HW2 7773   3.803   6.125   2.912  1.8965 -1.1028  1.3864
 2289SOL     OW 7774   1.896   5.356   1.451 -0.0604 -0.2192 -0.1236
 2289SOL    HW1 7775   1.991   5.362   1.451 -0.0576  0.0703 -1.4427
 2289SOL    HW2 7776   1.875   5.312   1.369 -1.2364  3.5649 -2.0647
 2290SOL     OW 7777   2.627   3.361   6.714  0.1289  0.0344 -0.3886
 2290SOL    HW1 7778   2.545   3.315   6.734 -0.3747  1.2469  0.4838
 2290SOL    HW2 7779   2.605   3.418   6.640  0.3383 -0.0760 -0.5339
 2291SOL     OW 7780   1.116   4.717   2.074  0.3446 -0.1296 -0.0866
 2291SOL    HW1 7781   1.116   4.623   2.089 -1.3122  0.0748  1.6311
 2291SOL    HW2 7782   1.054   4.730   2.002  1.0177 -0.3668 -0.7248
 2292SOL     OW 7783   5.525   7.742   3.439  0.1030  0.3802 -0.6553
 2292SOL    HW1 7784   5.488   7.711   3.357 -2.4602  0.1958  0.4900
 2292SOL    HW2 7785   5.449   7.763   3.494  1.6380 -1.1862  2.3292
 2293SOL     OW 7786   0.912   3.205   3.465 -0.1330  0.1186 -0.0263
 2293SOL    HW1 7787   0.944   3.289   3.499 -2.2606  0.7304  0.6594
 2293SOL    HW2 7788   0.905   3.149   3.542 -0.0570 -0.2341 -0.2717
 2294SOL     OW 7789   6.310   1.962   2.839  0.2998  0.2398  0.0340
 2294SOL    HW1 7790   6.379   1.937   2.901 -0.3002 -0.6374  0.3719
 2294SOL    HW2 7791   6.295   1.883   2.787 -0.0070  0.6219 -0.4657
 2295SOL     OW 7792   3.056   3.682   2.294  0.2928 -0.2159 -0.4588
 2295SOL    HW1 7793   3.105   3.754   2.255  0.6991  0.6869  1.5469
 2295SOL    HW2 7794   3.120   3.611   2.303  0.7192  0.2577  0.3234
 2296SOL     OW 7795   0.421   1.584   4.920 -0.6961  0.3390 -0.4896
 2296SOL    HW1 7796   0.372   1.509   4.888  1.3724 -1.0604 -0.5236
 2296SOL    HW2 7797   0.383   1.603   5.006  0.6326 -2.7301  0.9273
 2297SOL     OW 7798   4.374   2.234   3.469  0.3789  0.3788  0.4479
 2297SOL    HW1 7799   4.326   2.238   3.551  2.2821  0.7881  1.6043
 2297SOL    HW2 7800   4.428   2.156   3.476  1.5021  1.1033  0.1569
 2298SOL     OW 7801   3.950   2.893   1.722 -0.0954 -0.0282 -0.1126
 2298SOL    HW1 7802   3.982   2.803   1.714 -1.2159 -0.5026  0.5664
 2298SOL    HW2 7803   3.881   2.888   1.788  0.1778  1.4304  0.2944
 2299SOL     OW 7804   6.900   2.400   3.099  0.1810  0.0669 -0.4584
 2299SOL    HW1 7805   6.940   2.414   3.185 -1.6250 -1.0454  0.6294
 2299SOL    HW2 7806   6.818   2.355   3.118 -1.1669  1.4340 -2.6460
 2300SOL     OW 7807   1.196   5.374   2.871 -0.2584  0.7135 -0.0099
 2300SOL    HW1 7808   1.252   5.317   2.818  1.1403  1.3570  0.7298
 2300SOL    HW2 7809   1.119   5.321   2.890  0.5676 -0.5826 -0.1583
 2301SOL     OW 7810   5.407   3.589   1.158 -0.3815  0.1472 -0.7540
 2301SOL    HW1 7811   5.445   3.677   1.157 -1.5537  0.6595 -2.1181
 2301SOL    HW2 7812   5.325   3.598   1.205  0.1438 -0.5433  0.3578
 2302SOL     OW 7813   2.789   2.394   2.138  0.1568 -0.4106 -0.2631
 2302SOL    HW1 7814   2.858   2.422   2.197  1.6289 -1.5225 -1.3694
 2302SOL    HW2 7815   2.805   2.443   2.057 -0.1771 -0.8729 -0.6158
 2303SOL     OW 7816   0.194   0.420   4.849  0.0418 -0.4526  0.5224
 2303SOL    HW1 7817   0.278   0.463   4.864 -0.3584  0.2453  0.7684
 2303SOL    HW2 7818   0.202   0.383   4.760 -0.6569  2.6331 -0.9604
 2304SOL     OW 7819   5.008   2.909   2.791  0.1832  0.2878  0.1837
 2304SOL    HW1 7820   5.048   2.875   2.711 -1.7300 -0.5640 -0.4638
 2304SOL    HW2 7821   4.914   2.916   2.771 -0.1935  1.1747  1.9755
 2305SOL     OW 7822   6.008   6.906   1.320  0.3702  0.7183  0.8455
 2305SOL    HW1 7823   5.935   6.883   1.377 -0.2994 -1.6829 -0.7937
 2305SOL    HW2 7824   5.979   6.986   1.276  0.3264  1.8268  2.7996
 2306SOL     OW 7825   5.335   3.369   2.087 -0.2431  0.6899 -0.3324
 2306SOL    HW1 7826   5.399   3.310   2.127 -1.3865 -0.8873 -0.7523
 2306SOL    HW2 7827   5.361   3.456   2.117  1.0587 -0.0861  0.9121
 2307SOL     OW 7828   4.615   3.716   0.731  0.2137  0.2080  0.2723
 2307SOL    HW1 7829   4.669   3.768   0.672  0.9889 -0.0202  0.7660
 2307SOL    HW2 7830   4.677   3.662   0.780 -0.5732 -1.5562 -0.5692
 2308SOL     OW 7831   2.637   6.742   3.335 -0.4566  0.2109 -0.6049
 2308SOL    HW1 7832   2.653   6.711   3.424 -1.4416 -1.4582 -0.9584
 2308SOL    HW2 7833   2.680   6.827   3.331  2.5933 -1.1280  0.3965
 2309SOL     OW 7834   6.534   4.904   6.045 -0.0897 -0.1805 -0.0134
 2309SOL    HW1 7835   6.500   4.993   6.037  1.4552  0.3449 -1.1762
 2309SOL    HW2 7836   6.546   4.892   6.139  0.0902  1.0094  0.1309
 2310SOL     OW 7837   7.070   5.615   3.653 -0.0344 -0.6631 -0.0760
 2310SOL    HW1 7838   7.151   5.590   3.610  0.3258 -1.2958  0.9397
 2310SOL    HW2 7839   7.081   5.708   3.674  0.9249 -1.0227  1.0998
 2311SOL     OW 7840   1.770   0.204   1.050 -0.2117 -0.1794  0.0485
 2311SOL    HW1 7841   1.854   0.224   1.092  0.0805 -1.4773  0.1356
 2311SOL    HW2 7842   1.759   0.110   1.063 -0.8261 -0.3493 -1.5346
 2312SOL     OW 7843   6.784   5.163   2.821  0.3363  0.1339  0.0242
 2312SOL    HW1 7844   6.772   5.236   2.882 -2.2597 -1.3989  1.5490
 2312SOL    HW2 7845   6.697   5.146   2.786  0.0619 -4.0424  2.0621
 2313SOL     OW 7846   4.215   3.174   1.518 -0.5868 -0.0341 -0.1824
 2313SOL    HW1 7847   4.201   3.079   1.519 -1.7411  0.0798  2.4929
 2313SOL    HW2 7848   4.308   3.184   1.495 -0.7126 -1.7027 -1.6545
 2314SOL     OW 7849   5.569   1.113   6.737  1.0345 -0.6017 -0.0269
 2314SOL    HW1 7850   5.583   1.045   6.802  1.5485 -0.6296 -0.1639
 2314SOL    HW2 7851   5.651   1.163   6.735  0.9050 -0.3932 -0.4062
 2315SOL     OW 7852   3.677   7.498   0.305  0.0614 -0.2122  0.3981
 2315SOL    HW1 7853   3.677   7.593   0.310  0.9793 -0.1870 -0.0797
 2315SOL    HW2 7854   3.759   7.475   0.263  0.9747 -1.3209  2.5974
 2316SOL     OW 7855   3.125   2.797   6.299  0.2536  0.0672 -0.1737
 2316SOL    HW1 7856   3.090   2.742   6.369  1.7641  0.5694  1.0208
 2316SOL    HW2 7857   3.089   2.884   6.317  1.4909  0.4277  0.6329
 2317SOL     OW 7858   2.102   0.812   5.015 -0.1293 -0.1628 -0.2758
 2317SOL    HW1 7859   2.024   0.831   4.962  0.4710  0.8561 -0.8424
 2317SOL    HW2 7860   2.070   0.808   5.105 -0.7157  1.2874 -0.3844
 2318SOL     OW 7861   0.798   1.233   0.372  0.2998  0.1412 -0.1668
 2318SOL    HW1 7862   0.837   1.269   0.292 -1.5742  1.8044 -0.3926
 2318SOL    HW2 7863   0.706   1.259   0.369  0.2811  0.8020  2.8220
 2319SOL     OW 7864   2.019   1.425   0.857  0.0403 -0.2383 -0.2052
 2319SOL    HW1 7865   2.078   1.400   0.927 -0.1903  0.2922  0.1831
 2319SOL    HW2 7866   1.996   1.343   0.814 -2.7734 -1.1748  2.6635
 2320SOL     OW 7867   6.555   1.802   3.270  0.3400 -0.2683  0.0075
 2320SOL    HW1 7868   6.577   1.743   3.197  2.5170 -0.9734  1.1199
 2320SOL    HW2 7869   6.622   1.870   3.266  0.8374 -0.6237  1.6286
 2321SOL     OW 7870   7.716   6.724   5.527 -0.2357 -0.4019  0.0544
 2321SOL    HW1 7871   7.732   6.630   5.520  0.3921 -0.2611 -0.4281
 2321SOL    HW2 7872   7.777   6.764   5.466 -0.4929  0.3272  0.2608
 2322SOL     OW 7873   6.090   6.052   4.757 -0.0783  0.8438  0.0247
 2322SOL    HW1 7874   6.037   6.122   4.795 -2.1670 -0.1853 -0.7644
 2322SOL    HW2 7875   6.028   5.979   4.746  1.7798 -0.8163 -0.0396
 2323SOL     OW 7876   5.122   7.532   1.245 -0.4917 -0.0807  0.3520
 2323SOL    HW1 7877   5.142   7.449   1.286  0.5054  0.5964  1.2818
 2323SOL    HW2 7878   5.183   7.539   1.172  1.7628  1.2606  2.2324
 2324SOL     OW 7879   3.067   3.792   1.094 -0.2715  0.0569 -0.2365
 2324SOL    HW1 7880   2.998   3.857   1.075 -1.3064 -0.7702  0.5780
 2324SOL    HW2 7881   3.128   3.801   1.021  0.3575  2.8976  0.5268
 2325SOL     OW 7882   6.709   1.801   4.239  0.3730 -0.1063 -0.0047
 2325SOL    HW1 7883   6.789   1.778   4.192 -0.2010  2.2454 -2.4125
 2325SOL    HW2 7884   6.739   1.847   4.317  1.3420 -1.2368  0.3103
 2326SOL     OW 7885   2.361   4.808   4.828  0.1495  0.2612 -0.1655
 2326SOL    HW1 7886   2.268   4.798   4.808 -0.0108 -1.9824  1.3151
 2326SOL    HW2 7887   2.362   4.847   4.916  0.5263 -1.0761  0.4545
 2327SOL     OW 7888   5.347   0.320   3.246  0.4918 -0.0704 -0.1880
 2327SOL    HW1 7889   5.374   0.268   3.170  0.1863 -1.6678  0.7464
 2327SOL    HW2 7890   5.339   0.256   3.317 -0.6305  1.1592  0.8468
 2328SOL     OW 7891   2.665   3.451   0.710  0.1654 -0.1537 -0.2118
 2328SOL    HW1 7892   2.603   3.478   0.642 -0.3047 -3.8599 -1.4965
 2328SOL    HW2 7893   2.622   3.377   0.754  1.8293  0.0745  1.9480
 2329SOL     OW 7894   5.138   5.101   0.983  0.4625 -0.0705  0.4270
 2329SOL    HW1 7895   5.207   5.039   1.006  0.9945 -0.0993 -1.0925
 2329SOL    HW2 7896   5.084   5.053   0.919  0.2642  0.6714  0.0301
 2330SOL     OW 7897   1.042   2.243   6.427 -0.0998  0.4176 -0.1552
 2330SOL    HW1 7898   1.050   2.338   6.433 -0.6124  0.5935 -1.6401
 2330SOL    HW2 7899   0.991   2.229   6.347  1.4289 -1.1634 -0.9132
 2331SOL     OW 7900   1.206   1.362   3.438  0.8252 -0.0848 -0.7062
 2331SOL    HW1 7901   1.130   1.335   3.490  1.2443 -0.2309 -0.1523
 2331SOL    HW2 7902   1.259   1.414   3.498  1.0010  0.2994 -1.1878
 2332SOL     OW 7903   3.166   4.879   3.381  0.0975  0.1595 -0.2369
 2332SOL    HW1 7904   3.259   4.866   3.396 -0.0094  0.1007  0.3900
 2332SOL    HW2 7905   3.123   4.815   3.438 -0.3475  0.7312  0.0839
 2333SOL     OW 7906   7.181   6.630   6.999  0.2093  0.2185  0.2711
 2333SOL    HW1 7907   7.116   6.562   7.015  0.2325  0.3478  0.9224
 2333SOL    HW2 7908   7.211   6.656   7.086  0.1826  1.0728  0.0354
 2334SOL     OW 7909   3.606   3.911   4.934 -0.1420 -0.1002 -0.1348
 2334SOL    HW1 7910   3.581   3.999   4.905 -1.4706 -0.3968  0.0656
 2334SOL    HW2 7911   3.701   3.916   4.946 -0.1994  1.3046 -0.1315
 2335SOL     OW 7912   3.582   3.353   0.006  0.0292 -0.0836 -0.0025
 2335SOL    HW1 7913   3.632   3.353  -0.076 -2.5601  2.1861 -1.7488
 2335SOL    HW2 7914   3.565   3.446   0.023  0.1877 -0.5209  2.9780
 2336SOL     OW 7915   1.982   6.178   6.366 -0.5637 -0.3660 -0.7682
 2336SOL    HW1 7916   1.934   6.154   6.445 -2.5893  1.2799 -1.3932
 2336SOL    HW2 7917   2.044   6.244   6.394 -1.4090  0.3535 -0.5606
 2337SOL     OW 7918   7.325   0.706   5.563 -0.3525  0.3675  0.1463
 2337SOL    HW1 7919   7.257   0.660   5.613 -0.6659 -0.2656 -0.8405
 2337SOL    HW2 7920   7.283   0.726   5.480  0.8231 -0.4871 -0.6785
 2338SOL     OW 7921   6.956   3.643   4.060 -0.6209  0.1262  0.1286
 2338SOL    HW1 7922   6.975   3.563   4.010  1.6017  1.1980 -0.9237
 2338SOL    HW2 7923   6.962   3.616   4.151 -1.1201 -1.1437 -0.1880
 2339SOL     OW 7924   3.713   2.139   3.331  0.2337 -0.0419  0.1146
 2339SOL    HW1 7925   3.737   2.204   3.264 -2.5955 -0.1676 -1.1387
 2339SOL    HW2 7926   3.679   2.191   3.404  1.4857 -0.0103  0.7142
 2340SOL     OW 7927   2.064   7.406   0.037  0.3872 -0.3012 -0.6616
 2340SOL    HW1 7928   1.993   7.344   0.024  0.2723 -0.3524  0.1487
 2340SOL    HW2 7929   2.138   7.353   0.065  0.3310 -0.1025 -0.1143
 2341SOL     OW 7930   3.384   6.793   2.490 -0.5904 -0.5840  0.4729
 2341SOL    HW1 7931   3.435   6.712   2.488  1.2168  0.4840  1.3800
 2341SOL    HW2 7932   3.342   6.797   2.405  1.6070 -1.0485 -0.7015
 2342SOL     OW 7933   1.277   7.310   4.708 -0.1406 -0.1376 -0.0371
 2342SOL    HW1 7934   1.205   7.306   4.771 -0.2078  1.8369  0.0542
 2342SOL    HW2 7935   1.356   7.308   4.763 -0.1925  1.0038  0.1027
 2343SOL     OW 7936   5.140   7.380   0.268  0.8654 -0.3431  0.2176
 2343SOL    HW1 7937   5.161   7.473   0.277 -1.9772  0.3921  0.4286
 2343SOL    HW2 7938   5.119   7.370   0.175  0.4921 -0.5847  0.3258
 2344SOL     OW 7939   5.839   0.904   2.241 -0.1400  0.4976  0.5899
 2344SOL    HW1 7940   5.821   0.991   2.206  0.6107  0.3755 -0.1286
 2344SOL    HW2 7941   5.929   0.886   2.216 -0.2599 -0.4636  0.7999
 2345SOL     OW 7942   4.833   6.244   4.494  0.2156 -0.1254  0.1970
 2345SOL    HW1 7943   4.752   6.282   4.460 -0.7339 -1.2266  1.1642
 2345SOL    HW2 7944   4.859   6.303   4.564  0.4166  0.3904 -0.3054
 2346SOL     OW 7945   6.119   1.451   4.562 -0.0602  0.1544 -0.3088
 2346SOL    HW1 7946   6.060   1.521   4.532 -1.0014  1.0552  3.1414
 2346SOL    HW2 7947   6.060   1.387   4.603  1.0973 -0.7542 -0.0235
 2347SOL     OW 7948   5.993   1.737   3.972  0.1686 -0.4832 -0.2535
 2347SOL    HW1 7949   6.047   1.795   3.918  0.5102 -0.0720  0.5260
 2347SOL    HW2 7950   5.967   1.667   3.912 -1.4412  1.1735 -1.6129
 2348SOL     OW 7951   3.521   1.832   4.778  0.4142  0.2641 -0.8118
 2348SOL    HW1 7952   3.545   1.856   4.689 -2.0386  1.1861 -1.2872
 2348SOL    HW2 7953   3.567   1.896   4.833 -0.2757  1.4936 -1.6253
 2349SOL     OW 7954   0.891   6.861   0.964  0.3204  0.8209  0.4394
 2349SOL    HW1 7955   0.925   6.821   1.044 -1.5388  1.1501  1.4466
 2349SOL    HW2 7956   0.862   6.948   0.991  0.5050  1.2911 -0.8164
 2350SOL     OW 7957   1.240   5.875   0.637  0.0409 -0.0813 -0.3011
 2350SOL    HW1 7958   1.145   5.874   0.643  0.0017 -1.1379 -0.7797
 2350SOL    HW2 7959   1.265   5.782   0.637  1.0588  0.1782 -0.2599
 2351SOL     OW 7960   3.621   2.658   6.778 -0.1960 -0.0727 -0.1602
 2351SOL    HW1 7961   3.632   2.592   6.709 -0.8951 -0.4083  0.0382
 2351SOL    HW2 7962   3.531   2.689   6.767  0.8059  2.5676 -1.7449
 2352SOL     OW 7963   6.835   5.922   1.917 -0.3052  0.5066  0.0444
 2352SOL    HW1 7964   6.827   5.946   1.824 -0.1827 -1.2817 -0.4546
 2352SOL    HW2 7965   6.924   5.948   1.940  1.1503 -2.5297 -1.4972
 2353SOL     OW 7966   1.735   1.266   2.902 -0.8644  0.0192  0.0531
 2353SOL    HW1 7967   1.674   1.231   2.967 -0.1491 -0.4678  0.4756
 2353SOL    HW2 7968   1.800   1.313   2.954  0.1657 -1.0450 -0.2289
 2354SOL     OW 7969   0.055   3.426   0.039 -1.0911  0.3227 -0.5132
 2354SOL    HW1 7970   0.117   3.446   0.110  0.1235 -0.9238 -1.1750
 2354SOL    HW2 7971   0.044   3.509  -0.007  0.7639  0.4383 -0.8534
 2355SOL     OW 7972   7.386   0.596   1.062  0.2678  0.4011 -0.2205
 2355SOL    HW1 7973   7.437   0.561   1.135  0.5240  0.6769 -0.2642
 2355SOL    HW2 7974   7.305   0.627   1.101  0.3260  0.3764 -0.0809
 2356SOL     OW 7975   7.427   6.042   5.580 -0.1516 -0.4207 -0.0928
 2356SOL    HW1 7976   7.468   6.061   5.496  1.6527  1.0334  1.0331
 2356SOL    HW2 7977   7.343   6.088   5.577 -0.7592 -1.5359 -1.5691
 2357SOL     OW 7978   7.095   4.702   3.818 -0.1873  0.1168  0.5205
 2357SOL    HW1 7979   7.158   4.741   3.878  2.5012  0.2132 -2.1445
 2357SOL    HW2 7980   7.097   4.608   3.837  1.9821 -0.0917 -0.4436
 2358SOL     OW 7981   1.945   5.189   3.626  0.0494  0.2381  0.5831
 2358SOL    HW1 7982   1.913   5.264   3.576  0.2166 -0.3749 -0.4730
 2358SOL    HW2 7983   1.870   5.160   3.678  0.0041  1.1733  1.0467
 2359SOL     OW 7984   5.205   6.503   1.265  0.4442 -0.3222  0.1212
 2359SOL    HW1 7985   5.194   6.552   1.184  1.2773  0.0638  0.2343
 2359SOL    HW2 7986   5.193   6.568   1.334 -2.0454 -0.9604  0.4060
 2360SOL     OW 7987   2.828   4.449   0.496  0.3215 -0.1753 -0.0656
 2360SOL    HW1 7988   2.901   4.488   0.544  1.4255 -0.6795 -1.2927
 2360SOL    HW2 7989   2.751   4.472   0.548  1.3554  0.1735  1.3908
 2361SOL     OW 7990   7.047   1.001   1.264 -0.4255  0.1243  0.2761
 2361SOL    HW1 7991   6.987   1.064   1.225  2.2754  2.2359 -0.8225
 2361SOL    HW2 7992   7.050   0.929   1.201 -3.1007 -0.9742  1.2601
 2362SOL     OW 7993   7.225   1.330   6.429  0.3231  0.0380 -0.0212
 2362SOL    HW1 7994   7.198   1.238   6.436 -1.2591  0.5241  0.9789
 2362SOL    HW2 7995   7.225   1.348   6.335  1.9904 -1.3277 -0.3238
 2363SOL     OW 7996   3.211   2.964   2.007  0.6029  0.3037 -0.0579
 2363SOL    HW1 7997   3.302   2.986   1.986  1.1121 -1.9183 -0.4193
 2363SOL    HW2 7998   3.192   3.015   2.086  1.3648  2.5569 -1.2529
 2364SOL     OW 7999   6.862   1.806   1.305  0.1451 -0.2301  0.4410
 2364SOL    HW1 8000   6.955   1.783   1.313  0.0848 -0.8047 -0.3874
 2364SOL    HW2 8001   6.857   1.853   1.222 -0.2564  0.0881  0.6461
 2365SOL     OW 8002   1.254   0.370   0.062 -0.2100  0.0307 -0.3554
 2365SOL    HW1 8003   1.258   0.461   0.093  0.2361 -0.8409  2.4832
 2365SOL    HW2 8004   1.296   0.372  -0.024  1.9380  2.1573  0.6241
 2366SOL     OW 8005   6.542   0.029   3.103  0.1653 -0.1162 -0.8168
 2366SOL    HW1 8006   6.458   0.066   3.075  1.0232  1.7580 -1.0377
 2366SOL    HW2 8007   6.607   0.072   3.048  1.3810 -0.7044  0.1118
 2367SOL     OW 8008   0.233   4.630   5.516 -0.5092  0.2203 -0.5764
 2367SOL    HW1 8009   0.309   4.628   5.574 -0.8819 -0.4671 -0.0902
 2367SOL    HW2 8010   0.235   4.717   5.476  1.1786 -0.1594 -1.4466
 2368SOL     OW 8011   1.845   7.401   5.391 -0.7153  0.0098 -0.2025
 2368SOL    HW1 8012   1.857   7.487   5.431 -2.4912 -1.0138  2.9216
 2368SOL    HW2 8013   1.909   7.344   5.435 -0.5489 -0.5713 -1.1628
 2369SOL     OW 8014   6.273   4.256   0.088  0.3389  0.0455  0.6770
 2369SOL    HW1 8015   6.336   4.188   0.112  0.9473 -0.0081 -0.9656
 2369SOL    HW2 8016   6.195   4.209   0.060  0.0235  0.0894  1.4457
 2370SOL     OW 8017   2.378   4.359   4.031  0.4368 -0.0540 -0.4463
 2370SOL    HW1 8018   2.292   4.346   3.991 -0.5367  0.8927  1.2288
 2370SOL    HW2 8019   2.412   4.271   4.045 -1.4737 -0.5910  1.3144
 2371SOL     OW 8020   0.941   4.788   3.855 -0.2907  0.4706  0.3785
 2371SOL    HW1 8021   0.946   4.709   3.800  1.0545  2.1319 -2.0630
 2371SOL    HW2 8022   0.848   4.798   3.875 -0.7866 -0.4207 -1.3200
 2372SOL     OW 8023   6.991   3.969   7.543 -0.0357  0.0013 -0.2387
 2372SOL    HW1 8024   7.086   3.979   7.550  0.0721 -0.4757 -0.9130
 2372SOL    HW2 8025   6.957   4.004   7.625  0.6888  0.6216 -0.1916
 2373SOL     OW 8026   1.394   3.886   5.906  0.2266 -0.7719 -0.2859
 2373SOL    HW1 8027   1.326   3.894   5.973  1.1728  1.0665  0.5448
 2373SOL    HW2 8028   1.448   3.813   5.935 -0.9706 -1.7817 -0.5665
 2374SOL     OW 8029   1.394   0.292   2.132  1.0019 -0.0822 -0.4001
 2374SOL    HW1 8030   1.478   0.292   2.179  0.6621 -0.2018  0.2169
 2374SOL    HW2 8031   1.419   0.297   2.040  1.6640  1.8883 -0.1627
 2375SOL     OW 8032   0.067   5.759   4.783  0.0042  0.3314  0.3958
 2375SOL    HW1 8033   0.072   5.827   4.850  0.6869  0.1461  0.5384
 2375SOL    HW2 8034   0.123   5.689   4.816 -2.4000 -1.2767  1.3781
 2376SOL     OW 8035   7.472   3.604   2.413 -0.3381  0.3361 -0.0226
 2376SOL    HW1 8036   7.464   3.604   2.509 -1.6621 -0.3491 -0.1169
 2376SOL    HW2 8037   7.471   3.512   2.389  0.5013  0.4858 -0.6792
 2377SOL     OW 8038   4.174   1.205   2.058  0.7314  0.0359 -0.1411
 2377SOL    HW1 8039   4.254   1.226   2.105  0.5282  0.9561 -0.1923
 2377SOL    HW2 8040   4.151   1.286   2.013 -0.5852 -0.0172  0.3980
 2378SOL     OW 8041   4.762   1.242   7.490 -0.1295 -0.1981  0.2489
 2378SOL    HW1 8042   4.778   1.329   7.528  1.7196 -0.4172  0.0932
 2378SOL    HW2 8043   4.700   1.258   7.419  0.1526  0.9960  0.2448
 2379SOL     OW 8044   4.682   6.835   4.696 -0.2504  0.7746  0.0327
 2379SOL    HW1 8045   4.687   6.894   4.770  0.5335  1.0270 -0.2106
 2379SOL    HW2 8046   4.619   6.767   4.723  2.9493 -1.4707  2.6277
 2380SOL     OW 8047   5.812   0.353   4.014 -0.0917  0.0449  0.5302
 2380SOL    HW1 8048   5.773   0.350   4.101 -0.3164 -0.3653  0.4182
 2380SOL    HW2 8049   5.740   0.332   3.955 -0.2086  1.4332  0.1537
 2381SOL     OW 8050   2.083   3.918   4.499 -0.1932  0.3233  0.5097
 2381SOL    HW1 8051   2.103   3.937   4.591 -1.4547 -0.2797  0.9286
 2381SOL    HW2 8052   2.017   3.983   4.475  1.1730  1.4123 -0.4343
 2382SOL     OW 8053   7.080   6.364   4.723 -0.0824  0.6205  0.3007
 2382SOL    HW1 8054   7.001   6.317   4.751  0.6838 -0.5724  0.5376
 2382SOL    HW2 8055   7.116   6.400   4.804  0.3083  0.0458  0.3909
 2383SOL     OW 8056   7.459   2.994   7.120 -0.1707 -0.8107  0.8479
 2383SOL    HW1 8057   7.433   3.080   7.087 -0.3437 -0.6881  1.2941
 2383SOL    HW2 8058   7.526   2.964   7.059  0.0500 -0.2616  0.8146
 2384SOL     OW 8059   0.399   4.017   7.041  0.4689  0.2877  0.1126
 2384SOL    HW1 8060   0.477   4.065   7.070  0.8342 -0.1348 -0.1713
 2384SOL    HW2 8061   0.386   4.045   6.951 -0.2617  1.0684  0.4454
 2385SOL     OW 8062   5.918   7.705   1.041  0.5023  0.4191  0.5310
 2385SOL    HW1 8063   5.825   7.725   1.053 -0.3590 -1.0662 -2.6574
 2385SOL    HW2 8064   5.964   7.779   1.079 -2.0318  1.8644  0.9686
 2386SOL     OW 8065   7.345   5.450   1.572 -0.0770 -0.0968 -0.4647
 2386SOL    HW1 8066   7.276   5.501   1.613  0.7955  1.0407 -0.3475
 2386SOL    HW2 8067   7.392   5.513   1.517  1.9342 -0.3798  0.7861
 2387SOL     OW 8068   1.764   4.694   3.552 -0.2652  0.3091  0.2195
 2387SOL    HW1 8069   1.686   4.743   3.579 -1.1099 -0.1988 -1.2022
 2387SOL    HW2 8070   1.836   4.754   3.569 -1.1323  1.4746 -0.0477
 2388SOL     OW 8071   2.970   1.253   0.042  0.5017  0.1523 -0.4824
 2388SOL    HW1 8072   2.911   1.208   0.102  0.3003  1.5628  0.4265
 2388SOL    HW2 8073   2.965   1.203  -0.040 -1.3409 -0.2077 -0.1796
 2389SOL     OW 8074   4.508   7.355   3.302 -0.2635 -0.2216  0.2292
 2389SOL    HW1 8075   4.539   7.436   3.343  0.1679 -0.3704  0.2032
 2389SOL    HW2 8076   4.506   7.375   3.209  0.3324 -0.3924  0.1717
 2390SOL     OW 8077   6.134   4.360   4.024  0.4664 -0.5092  0.1445
 2390SOL    HW1 8078   6.202   4.426   4.032 -0.6484  0.7441 -0.3580
 2390SOL    HW2 8079   6.147   4.302   4.100  0.5771  1.1279  1.4216
 2391SOL     OW 8080   6.776   5.580   6.602  0.1154 -0.4654  0.3039
 2391SOL    HW1 8081   6.712   5.650   6.591 -0.1711 -0.7563  0.1004
 2391SOL    HW2 8082   6.763   5.523   6.526  1.7360  0.3487 -0.6146
 2392SOL     OW 8083   5.912   1.653   1.384 -0.3565  0.1274  0.2515
 2392SOL    HW1 8084   5.894   1.612   1.469 -0.0471  0.4693  0.4850
 2392SOL    HW2 8085   5.881   1.743   1.394 -0.2683  0.1841  0.0206
 2393SOL     OW 8086   3.736   4.628   6.660 -0.3356 -0.2294 -0.3361
 2393SOL    HW1 8087   3.694   4.625   6.574 -1.0809 -1.7456  0.0476
 2393SOL    HW2 8088   3.748   4.721   6.677  0.0244  0.0975 -2.1703
 2394SOL     OW 8089   0.051   3.577   3.233 -0.4024  0.2932 -0.4741
 2394SOL    HW1 8090   0.080   3.634   3.162 -1.1032 -1.3531 -2.1643
 2394SOL    HW2 8091   0.122   3.514   3.244 -1.0075 -0.4907 -0.9290
 2395SOL     OW 8092   7.353   0.697   4.493  0.4109  0.4813  0.0440
 2395SOL    HW1 8093   7.434   0.726   4.449 -0.0198  1.6264 -0.0256
 2395SOL    HW2 8094   7.283   0.729   4.436 -0.1046 -0.4585  0.1351
 2396SOL     OW 8095   4.946   4.290   3.573  0.6835 -0.3722 -0.3044
 2396SOL    HW1 8096   5.029   4.331   3.548  0.0331  0.1829 -1.6256
 2396SOL    HW2 8097   4.886   4.312   3.502 -1.5890  2.1385  2.1645
 2397SOL     OW 8098   3.242   0.245   7.270 -0.5591 -0.1494  0.1767
 2397SOL    HW1 8099   3.165   0.278   7.224  0.1635 -0.7105 -1.5244
 2397SOL    HW2 8100   3.246   0.297   7.350 -0.5927  2.5579 -1.4352
 2398SOL     OW 8101   3.172   5.520   3.623  0.5731 -0.6504 -0.1057
 2398SOL    HW1 8102   3.159   5.530   3.717 -2.2080 -1.1248 -0.3351
 2398SOL    HW2 8103   3.138   5.602   3.585  1.7063 -0.4419 -0.7073
 2399SOL     OW 8104   6.965   5.840   1.591 -0.1884 -0.0983  0.3819
 2399SOL    HW1 8105   6.894   5.904   1.587  0.4342  0.5577 -0.5367
 2399SOL    HW2 8106   6.924   5.757   1.566 -0.3360  0.5651 -1.7834
 2400SOL     OW 8107   6.695   0.589   7.741 -0.5721  0.1647 -0.5576
 2400SOL    HW1 8108   6.628   0.609   7.806  1.0869 -1.6092  1.8609
 2400SOL    HW2 8109   6.667   0.507   7.702  0.1341 -0.6119  0.5008
 2401SOL     OW 8110   1.103   1.380   7.051 -0.1770  0.4271 -0.6951
 2401SOL    HW1 8111   1.140   1.384   7.140  0.4798 -1.0483 -0.8683
 2401SOL    HW2 8112   1.009   1.392   7.064 -0.3015 -1.2655  0.4253
 2402SOL     OW 8113   6.554   0.194   5.977 -0.5218  0.2784  0.0562
 2402SOL    HW1 8114   6.621   0.261   5.963 -1.3355  1.0083 -0.4642
 2402SOL    HW2 8115   6.587   0.117   5.932  1.1910 -0.2236  2.0056
 2403SOL     OW 8116   7.477   1.983   0.384  0.2524 -0.2109  0.0648
 2403SOL    HW1 8117   7.435   1.897   0.380 -1.7606  0.6503  1.0950
 2403SOL    HW2 8118   7.421   2.039   0.331  0.8097  0.7284  0.4491
 2404SOL     OW 8119   5.552   6.007   4.792 -0.0771 -0.0670  0.0050
 2404SOL    HW1 8120   5.480   5.946   4.778  0.1865 -0.3961  0.0676
 2404SOL    HW2 8121   5.605   5.966   4.861  0.3032  0.0519 -0.2139
 2405SOL     OW 8122   3.541   5.220   0.869  0.8856 -0.6461 -0.0234
 2405SOL    HW1 8123   3.483   5.297   0.870  0.1362 -1.2041 -0.0021
 2405SOL    HW2 8124   3.527   5.180   0.783  1.9212 -0.2843 -0.3701
 2406SOL     OW 8125   5.921   0.572   6.342 -0.1410 -0.3618  0.2929
 2406SOL    HW1 8126   5.861   0.646   6.327 -3.4898 -3.0689 -1.1947
 2406SOL    HW2 8127   6.006   0.603   6.312 -1.3300  2.8601 -0.1612
 2407SOL     OW 8128   1.398   6.946   5.227  0.0741  0.5061 -0.1881
 2407SOL    HW1 8129   1.450   6.869   5.203 -0.4814  0.2103 -0.4607
 2407SOL    HW2 8130   1.317   6.937   5.176 -0.0744  1.1732 -0.0785
 2408SOL     OW 8131   0.190   4.392   4.438  0.2076  0.2286 -0.3913
 2408SOL    HW1 8132   0.275   4.416   4.474  0.4260 -0.2339 -0.5896
 2408SOL    HW2 8133   0.134   4.469   4.454  0.3978  0.1694  0.5966
 2409SOL     OW 8134   6.415   2.602   5.892 -1.0267 -0.3557 -0.2562
 2409SOL    HW1 8135   6.454   2.620   5.806 -0.9118  0.5347 -0.0318
 2409SOL    HW2 8136   6.350   2.671   5.903  0.3990  0.8388  1.2545
 2410SOL     OW 8137   1.643   5.240   3.524  0.1178 -0.2487  0.4480
 2410SOL    HW1 8138   1.581   5.281   3.463  1.1447  0.7231  0.0042
 2410SOL    HW2 8139   1.660   5.307   3.590  0.9165 -0.3819  0.3907
 2411SOL     OW 8140   7.037   0.644   7.262 -0.1819 -0.4830 -0.0463
 2411SOL    HW1 8141   7.069   0.734   7.265 -1.2087 -0.0019 -1.9974
 2411SOL    HW2 8142   6.950   0.648   7.301  0.7802 -1.2008  2.3597
 2412SOL     OW 8143   3.713   7.572   5.910 -0.2990 -0.0555 -0.0890
 2412SOL    HW1 8144   3.707   7.517   5.988 -2.5665 -0.1708 -0.2889
 2412SOL    HW2 8145   3.676   7.656   5.936  0.0655  0.3061 -0.7166
 2413SOL     OW 8146   2.043   4.089   7.464  0.3346 -0.0790 -0.2561
 2413SOL    HW1 8147   2.108   4.112   7.397  0.8456 -0.2876  0.1608
 2413SOL    HW2 8148   1.959   4.091   7.418  0.5539  0.8851 -0.6435
 2414SOL     OW 8149   3.449   3.181   2.456 -0.1576  0.0011  0.7077
 2414SOL    HW1 8150   3.496   3.215   2.380 -2.6078  1.4245 -0.3145
 2414SOL    HW2 8151   3.508   3.116   2.494  2.6283  1.7248 -0.3302
 2415SOL     OW 8152   2.684   1.670   2.587 -0.5918 -0.3307  0.2217
 2415SOL    HW1 8153   2.771   1.635   2.609  0.4604  0.3785 -2.4422
 2415SOL    HW2 8154   2.697   1.714   2.503 -3.0163  1.9273  0.9130
 2416SOL     OW 8155   5.327   4.560   1.892 -0.0303 -0.0547 -0.1925
 2416SOL    HW1 8156   5.269   4.571   1.967  0.3773 -1.0122  0.2843
 2416SOL    HW2 8157   5.409   4.527   1.929  0.5697  0.5438 -0.9394
 2417SOL     OW 8158   3.803   7.318   5.524 -0.2952  0.0456 -0.0877
 2417SOL    HW1 8159   3.730   7.353   5.577 -0.3757 -2.1585  1.3805
 2417SOL    HW2 8160   3.867   7.287   5.588  0.0736 -1.8004 -1.2577
 2418SOL     OW 8161   3.259   3.554   7.722 -0.1489  0.5513  0.3297
 2418SOL    HW1 8162   3.248   3.649   7.727 -0.6658  0.6002 -1.3692
 2418SOL    HW2 8163   3.180   3.522   7.677  1.1215 -0.3930 -1.3494
 2419SOL     OW 8164   1.084   6.436   2.538 -0.2931 -0.5292 -0.0223
 2419SOL    HW1 8165   1.109   6.420   2.446  1.1458 -0.9120  0.4057
 2419SOL    HW2 8166   1.089   6.350   2.579 -0.0426 -0.2170  0.6119
 2420SOL     OW 8167   0.906   4.551   1.551  0.0142 -0.4240 -0.6454
 2420SOL    HW1 8168   0.983   4.531   1.605 -0.2778  0.1772  0.0169
 2420SOL    HW2 8169   0.876   4.635   1.584 -2.3183 -1.7097  0.7420
 2421SOL     OW 8170   3.895   3.057   3.121 -0.7004 -0.3464  0.2302
 2421SOL    HW1 8171   3.827   3.061   3.188 -0.4038 -0.8158  0.5650
 2421SOL    HW2 8172   3.954   3.129   3.142 -0.1159 -1.0298  1.0286
 2422SOL     OW 8173   1.283   6.256   7.120  0.3554  0.0705 -0.0690
 2422SOL    HW1 8174   1.284   6.328   7.057 -0.8069  0.0901 -0.0757
 2422SOL    HW2 8175   1.306   6.297   7.203 -2.1231  0.8421  0.3011
 2423SOL     OW 8176   3.683   5.826   5.255  0.3014 -0.0394  0.4530
 2423SOL    HW1 8177   3.665   5.737   5.285 -0.8695  0.1009  0.2034
 2423SOL    HW2 8178   3.601   5.873   5.268  0.5719  0.7141 -0.4419
 2424SOL     OW 8179   2.994   6.633   6.282  0.1786 -1.0805  0.1791
 2424SOL    HW1 8180   2.938   6.702   6.248 -0.4482 -2.3051 -1.4070
 2424SOL    HW2 8181   2.936   6.578   6.335  0.1093 -1.7055 -0.5243
 2425SOL     OW 8182   2.523   4.398   4.509  0.4518  0.4221  0.1252
 2425SOL    HW1 8183   2.511   4.489   4.536 -3.1529 -0.4673  2.2503
 2425SOL    HW2 8184   2.467   4.389   4.431 -0.3187 -0.2477  0.7416
 2426SOL     OW 8185   2.178   0.542   5.921  0.6710  0.4248  0.3238
 2426SOL    HW1 8186   2.268   0.566   5.900  0.7778  0.1638  0.4820
 2426SOL    HW2 8187   2.125   0.590   5.857  0.8362  1.5561  1.0112
 2427SOL     OW 8188   4.480   4.467   7.005 -0.2169  0.0487 -0.2111
 2427SOL    HW1 8189   4.413   4.525   7.043 -0.2977  0.3946 -0.8624
 2427SOL    HW2 8190   4.443   4.440   6.921 -0.6533 -1.8420  0.5560
 2428SOL     OW 8191   1.678   6.877   5.768 -0.4049  0.3248 -0.0451
 2428SOL    HW1 8192   1.617   6.810   5.799 -0.9486  1.0744  0.5482
 2428SOL    HW2 8193   1.673   6.873   5.672  0.1696 -1.0049 -0.0433
 2429SOL     OW 8194   2.817   7.494   7.393 -0.0148 -0.2495  0.3928
 2429SOL    HW1 8195   2.829   7.513   7.300 -1.1993  0.6575  0.3956
 2429SOL    HW2 8196   2.803   7.580   7.433  0.3546 -0.6412  1.3984
 2430SOL     OW 8197   2.496   0.577   3.441 -0.0496 -0.3888  0.1237
 2430SOL    HW1 8198   2.495   0.520   3.364 -0.7631 -0.2137 -0.0000
 2430SOL    HW2 8199   2.586   0.610   3.444 -0.3319  0.6227 -1.3999
 2431SOL     OW 8200   7.735   0.640   0.781 -0.2493  0.1327  0.1135
 2431SOL    HW1 8201   7.671   0.709   0.763 -1.4437 -0.6554  1.1366
 2431SOL    HW2 8202   7.715   0.572   0.718  2.5312  1.5957 -2.5904
 2432SOL     OW 8203   7.317   2.737   6.657  0.4222  0.8414 -0.2985
 2432SOL    HW1 8204   7.382   2.795   6.618 -0.3306  0.1109 -2.8336
 2432SOL    HW2 8205   7.233   2.772   6.627 -0.1140 -0.6993 -0.7029
 2433SOL     OW 8206   4.933   3.017   3.599  0.1436  0.3857  0.5314
 2433SOL    HW1 8207   5.007   2.974   3.557 -0.2836 -0.4615  0.6315
 2433SOL    HW2 8208   4.874   2.946   3.622 -1.3857  1.1514 -0.8462
 2434SOL     OW 8209   6.167   1.855   2.143  0.3020 -0.5666  0.1543
 2434SOL    HW1 8210   6.229   1.884   2.210  1.5342 -1.6264 -0.5006
 2434SOL    HW2 8211   6.207   1.777   2.105 -1.6470 -1.5393 -0.0000
 2435SOL     OW 8212   7.441   5.108   2.557  0.2111 -0.5369  0.0459
 2435SOL    HW1 8213   7.372   5.123   2.493  2.3775 -3.3886 -3.3495
 2435SOL    HW2 8214   7.498   5.185   2.551  0.0215 -0.4695 -1.0537
 2436SOL     OW 8215   1.640   1.195   4.953  0.4921  0.5967 -0.0943
 2436SOL    HW1 8216   1.598   1.245   5.023 -0.6123 -1.7761  1.0522
 2436SOL    HW2 8217   1.640   1.254   4.878 -0.0741  2.5461  1.3596
 2437SOL     OW 8218   6.953   6.163   0.779  0.0293  0.4033  0.4171
 2437SOL    HW1 8219   7.034   6.208   0.753 -0.3749  2.5556  2.4595
 2437SOL    HW2 8220   6.981   6.101   0.846  0.0513  0.8483  0.8231
 2438SOL     OW 8221   1.420   1.149   4.400 -0.6048 -0.3436 -0.6476
 2438SOL    HW1 8222   1.492   1.196   4.358 -0.1734 -1.6219 -1.4012
 2438SOL    HW2 8223   1.448   1.141   4.491  0.1866 -0.7508 -0.9128
 2439SOL     OW 8224   6.745   5.953   3.802 -0.2583 -0.3026 -0.5195
 2439SOL    HW1 8225   6.672   5.993   3.754 -1.3371  0.3365  1.5346
 2439SOL    HW2 8226   6.787   6.027   3.846  0.7042 -0.8764 -0.4641
 2440SOL     OW 8227   2.490   1.458   5.260 -0.8353  0.5341  0.3340
 2440SOL    HW1 8228   2.407   1.423   5.229  0.2954  0.4461 -2.9661
 2440SOL    HW2 8229   2.556   1.416   5.205  1.3623  1.1221  2.3605
 2441SOL     OW 8230   7.012   1.157   4.769  0.1670  0.3028  0.6420
 2441SOL    HW1 8231   6.958   1.235   4.786 -0.6800 -0.4212  1.4320
 2441SOL    HW2 8232   6.950   1.084   4.777  0.1856 -0.3345 -3.3341
 2442SOL     OW 8233   3.370   6.629   1.256  0.7396  0.1152  0.1952
 2442SOL    HW1 8234   3.338   6.640   1.166  2.0303 -0.7998 -0.4138
 2442SOL    HW2 8235   3.420   6.548   1.253 -0.2746 -0.6444  2.0796
 2443SOL     OW 8236   0.051   6.800   4.302  0.2213 -0.4597 -0.1976
 2443SOL    HW1 8237   0.043   6.833   4.213 -2.7522  1.4592  0.6395
 2443SOL    HW2 8238  -0.017   6.732   4.309  1.0566 -1.2698  0.3835
 2444SOL     OW 8239   5.567   5.128   7.387 -0.2203 -0.1883  0.3654
 2444SOL    HW1 8240   5.649   5.091   7.421  1.3788  1.9268 -1.0083
 2444SOL    HW2 8241   5.528   5.173   7.462  0.2139 -0.6131  0.8548
 2445SOL     OW 8242   4.886   1.669   6.885 -0.4850  0.2508  0.3899
 2445SOL    HW1 8243   4.885   1.722   6.966 -1.1694 -0.9432  1.1903
 2445SOL    HW2 8244   4.806   1.618   6.889 -1.0021  0.8393 -1.5433
 2446SOL     OW 8245   4.423   4.112   6.894 -0.3274  0.3120 -0.1351
 2446SOL    HW1 8246   4.379   4.030   6.872  1.3539 -0.5312 -0.5246
 2446SOL    HW2 8247   4.407   4.123   6.988  0.0833 -0.9070  0.1013
 2447SOL     OW 8248   5.517   5.655   1.279  0.3624  0.1040  0.1608
 2447SOL    HW1 8249   5.444   5.718   1.282 -0.1741 -0.5261  2.2218
 2447SOL    HW2 8250   5.593   5.705   1.309 -0.0130 -0.1305  1.5638
 2448SOL     OW 8251   7.337   0.622   2.593  0.0776  0.6876  0.3140
 2448SOL    HW1 8252   7.421   0.607   2.634  0.0620 -0.1748  0.0637
 2448SOL    HW2 8253   7.348   0.590   2.503 -0.7587 -0.2918  0.5283
 2449SOL     OW 8254   7.548   3.043   0.397 -0.3198 -0.0042 -0.2867
 2449SOL    HW1 8255   7.464   3.052   0.443 -0.2974  0.1412 -0.2730
 2449SOL    HW2 8256   7.552   3.119   0.339 -0.4711 -0.3250 -0.7289
 2450SOL     OW 8257   6.967   6.332   1.935 -0.3123  0.0758  0.3775
 2450SOL    HW1 8258   7.035   6.393   1.963  0.7365 -0.3245 -1.1672
 2450SOL    HW2 8259   6.894   6.388   1.909  0.9116  0.8085 -1.7423
 2451SOL     OW 8260   2.126   5.538   3.641 -0.2904  0.0150  0.1225
 2451SOL    HW1 8261   2.089   5.501   3.722  0.0433 -0.2224  0.1705
 2451SOL    HW2 8262   2.209   5.491   3.630  0.1343  0.7470  0.1748
 2452SOL     OW 8263   4.005   4.692   6.366  0.0060  0.7400  0.0403
 2452SOL    HW1 8264   4.035   4.747   6.438  2.2495 -2.4831  1.8229
 2452SOL    HW2 8265   4.038   4.735   6.288  1.6620  1.9445  1.3298
 2453SOL     OW 8266   0.659   1.130   1.465 -0.5001  0.8844  1.2242
 2453SOL    HW1 8267   0.719   1.201   1.489  0.2717  0.0552  1.8159
 2453SOL    HW2 8268   0.684   1.106   1.376 -0.0597  0.6544  1.4079
 2454SOL     OW 8269   2.950   0.043   4.453 -0.6527 -0.1930  0.1623
 2454SOL    HW1 8270   2.980   0.125   4.492  1.7216 -0.0266 -1.8065
 2454SOL    HW2 8271   2.988  -0.026   4.508  0.0644  0.0324 -0.0516
 2455SOL     OW 8272   3.659   3.819   3.384  0.3323  0.1922 -0.0505
 2455SOL    HW1 8273   3.622   3.907   3.383  0.1949  0.1415  0.2895
 2455SOL    HW2 8274   3.590   3.765   3.423  0.5329 -0.0087  0.0276
 2456SOL     OW 8275   7.691   1.090   4.341  0.2563  0.2339  0.1364
 2456SOL    HW1 8276   7.606   1.111   4.302  0.2316 -0.9420 -0.4795
 2456SOL    HW2 8277   7.673   1.017   4.400  0.6028  0.9094  1.1245
 2457SOL     OW 8278   2.377   2.469   7.030 -0.3113 -0.1265 -0.1279
 2457SOL    HW1 8279   2.381   2.394   7.090 -2.8077  1.1334  1.7687
 2457SOL    HW2 8280   2.439   2.532   7.067 -1.2458  0.3277  0.6919
 2458SOL     OW 8281   7.657   7.577   3.433  0.0267 -0.0527  0.0736
 2458SOL    HW1 8282   7.744   7.560   3.397 -0.0551 -0.8941  0.2533
 2458SOL    HW2 8283   7.597   7.551   3.362 -0.1057 -0.6841  0.4113
 2459SOL     OW 8284   2.851   6.627   0.009  0.7468  0.0417  0.1758
 2459SOL    HW1 8285   2.845   6.713  -0.032 -0.0819  0.5470  1.3116
 2459SOL    HW2 8286   2.928   6.633   0.066  1.0725 -0.1925 -0.2356
 2460SOL     OW 8287   4.799   6.567   1.510  0.2060  0.4394 -0.1837
 2460SOL    HW1 8288   4.821   6.531   1.425  1.6625  0.5204  0.1270
 2460SOL    HW2 8289   4.870   6.628   1.529 -0.0164  0.3205  1.1415
 2461SOL     OW 8290   1.881   4.896   4.289 -0.2665  0.3108 -0.1882
 2461SOL    HW1 8291   1.832   4.935   4.217 -0.7221 -1.8151 -1.1080
 2461SOL    HW2 8292   1.836   4.813   4.306 -0.0785  0.6799  2.4708
 2462SOL     OW 8293   1.043   6.832   5.666  0.2344 -0.9574 -0.0049
 2462SOL    HW1 8294   1.029   6.783   5.747  1.0957 -1.9162 -0.4113
 2462SOL    HW2 8295   1.126   6.879   5.680  0.7070 -1.6082 -0.5329
 2463SOL     OW 8296   0.153   3.999   4.096 -0.1812 -0.2791  0.1215
 2463SOL    HW1 8297   0.093   4.060   4.052 -0.9792 -1.3818 -0.3654
 2463SOL    HW2 8298   0.137   4.014   4.189 -1.2058 -0.5329  0.0019
 2464SOL     OW 8299   0.720   3.681   6.272  0.1658  0.1716 -0.1027
 2464SOL    HW1 8300   0.769   3.760   6.296 -2.1428  1.7650 -0.2360
 2464SOL    HW2 8301   0.674   3.656   6.352  1.4922 -1.6215  0.1724
 2465SOL     OW 8302   3.677   3.046   0.425  0.2353 -0.5351  0.2392
 2465SOL    HW1 8303   3.720   2.995   0.356 -0.2234 -1.2290  0.4586
 2465SOL    HW2 8304   3.674   3.135   0.390  0.0253 -0.8714 -0.6319
 2466SOL     OW 8305   6.189   5.501   5.152  0.1460  0.5550  0.1818
 2466SOL    HW1 8306   6.228   5.422   5.114 -0.6750  0.3332 -0.2249
 2466SOL    HW2 8307   6.106   5.512   5.104 -0.8771  0.3240  1.8175
 2467SOL     OW 8308   3.482   3.233   5.759 -0.3713  0.2709 -0.1530
 2467SOL    HW1 8309   3.547   3.292   5.797 -0.3389  0.0340  0.1622
 2467SOL    HW2 8310   3.437   3.286   5.693  0.0212  0.4859 -0.2469
 2468SOL     OW 8311   5.714   4.414   0.770 -0.0891  0.0354  0.4417
 2468SOL    HW1 8312   5.764   4.443   0.846 -0.3124 -1.3950  1.1658
 2468SOL    HW2 8313   5.774   4.427   0.696  0.8313 -0.2854  1.1030
 2469SOL     OW 8314   7.715   4.674   0.191 -0.2946 -0.1175 -0.0587
 2469SOL    HW1 8315   7.790   4.622   0.161  1.8651  1.6439  1.9140
 2469SOL    HW2 8316   7.695   4.642   0.278 -2.2002 -0.8351 -0.7020
 2470SOL     OW 8317   2.364   2.331   5.782 -0.0086  0.1631  0.0230
 2470SOL    HW1 8318   2.361   2.419   5.743  0.4943  0.1810  0.0201
 2470SOL    HW2 8319   2.304   2.336   5.856  0.2630  0.6144  0.2215
 2471SOL     OW 8320   1.951   3.593   2.594  0.3862 -0.1494  0.2994
 2471SOL    HW1 8321   2.041   3.561   2.594  0.7669  0.8826 -0.5827
 2471SOL    HW2 8322   1.945   3.650   2.517 -1.1275 -0.5019  0.1153
 2472SOL     OW 8323   4.380   2.455   2.777 -0.0415  0.2375  0.1974
 2472SOL    HW1 8324   4.289   2.474   2.757 -0.4445 -0.2185  1.5078
 2472SOL    HW2 8325   4.388   2.470   2.871  0.4232 -2.6710  0.7325
 2473SOL     OW 8326   1.350   1.276   6.655 -0.2466  0.0273 -0.3966
 2473SOL    HW1 8327   1.304   1.288   6.572  1.6406 -1.5169 -1.7704
 2473SOL    HW2 8328   1.442   1.268   6.630  0.7169  2.0175  2.1310
 2474SOL     OW 8329   7.313   0.949   7.694 -0.3793 -0.0057  0.1136
 2474SOL    HW1 8330   7.296   1.024   7.750 -0.6314  0.0422 -0.0253
 2474SOL    HW2 8331   7.310   0.984   7.605 -1.8753 -0.4296 -0.0266
 2475SOL     OW 8332   2.065   5.111   0.544 -0.0483 -0.4813  0.5923
 2475SOL    HW1 8333   2.006   5.169   0.497  0.5306  0.2981  0.8099
 2475SOL    HW2 8334   2.040   5.121   0.636  1.2085  0.8252  0.8347
 2476SOL     OW 8335   5.067   4.758   2.659  0.2295 -0.2773  0.2486
 2476SOL    HW1 8336   5.069   4.662   2.662  0.6246 -0.2481  1.1091
 2476SOL    HW2 8337   5.035   4.778   2.571 -0.6828 -1.2051  0.3430
 2477SOL     OW 8338   4.547   3.877   7.077 -0.1573  0.5736 -0.2009
 2477SOL    HW1 8339   4.500   3.823   7.014  0.4577 -0.4768  0.1934
 2477SOL    HW2 8340   4.620   3.914   7.028  1.5587 -1.9027  0.2426
 2478SOL     OW 8341   0.711   4.446   7.339 -0.9805 -0.1508  0.4216
 2478SOL    HW1 8342   0.713   4.373   7.401 -1.7151  0.3319  1.0413
 2478SOL    HW2 8343   0.802   4.474   7.332 -0.9273  0.0167  1.5795
 2479SOL     OW 8344   2.608   2.412   4.622 -0.3436 -0.3777 -0.4265
 2479SOL    HW1 8345   2.674   2.350   4.652  0.5564 -0.6829 -2.8042
 2479SOL    HW2 8346   2.535   2.357   4.592  0.2594 -0.3413 -2.0844
 2480SOL     OW 8347   0.274   5.139   5.505 -0.0767  0.1999  0.0951
 2480SOL    HW1 8348   0.356   5.127   5.553 -0.3392  0.5797  0.6544
 2480SOL    HW2 8349   0.256   5.053   5.465  1.2078  0.4316 -1.0467
 2481SOL     OW 8350   7.264   0.098   5.375  0.8360  0.3835  0.1566
 2481SOL    HW1 8351   7.194   0.064   5.431  0.8825  0.7309  0.4271
 2481SOL    HW2 8352   7.237   0.075   5.286  0.7500 -0.1532  0.3182
 2482SOL     OW 8353   5.289   4.770   4.719 -0.0397 -0.2433 -0.2527
 2482SOL    HW1 8354   5.373   4.795   4.758  0.6105 -1.5294 -0.7650
 2482SOL    HW2 8355   5.231   4.844   4.737  0.6849 -0.1087  1.7097
 2483SOL     OW 8356   7.329   7.611   4.970 -0.5215 -0.6854  0.0651
 2483SOL    HW1 8357   7.355   7.634   4.881 -0.2803  0.1279  0.3350
 2483SOL    HW2 8358   7.387   7.539   4.995 -1.2667 -1.6157 -0.7879
 2484SOL     OW 8359   4.935   4.442   1.997  0.0001  0.2032 -0.4674
 2484SOL    HW1 8360   4.848   4.432   1.961  0.9954 -0.2120 -2.9480
 2484SOL    HW2 8361   4.964   4.352   2.014 -0.4625  0.3919  1.5218
 2485SOL     OW 8362   0.875   4.368   2.516  0.4986  0.2462 -0.1128
 2485SOL    HW1 8363   0.830   4.293   2.556  0.7814 -1.0352 -2.0542
 2485SOL    HW2 8364   0.807   4.414   2.468  0.2574  1.4831  1.3633
 2486SOL     OW 8365   0.010   5.159   2.321 -0.2753 -0.1289 -0.1345
 2486SOL    HW1 8366  -0.006   5.162   2.416 -0.2408 -0.4941 -0.1165
 2486SOL    HW2 8367  -0.048   5.090   2.289 -1.1342  0.7679 -0.5557
 2487SOL     OW 8368   3.029   1.877   1.949  0.0897 -0.0709 -0.6196
 2487SOL    HW1 8369   2.934   1.874   1.966  0.3084 -0.0274  0.7064
 2487SOL    HW2 8370   3.046   1.969   1.929  0.0824  0.2235  0.6639
 2488SOL     OW 8371   6.849   5.050   3.109  0.2214  0.1122 -0.1068
 2488SOL    HW1 8372   6.764   5.060   3.065  0.7413 -0.4425 -1.2921
 2488SOL    HW2 8373   6.846   4.962   3.146 -0.1008  0.4721  0.7587
 2489SOL     OW 8374   4.231   4.947   7.122 -0.3405 -0.1725  0.3081
 2489SOL    HW1 8375   4.149   4.967   7.167  0.2932 -0.7742  1.7824
 2489SOL    HW2 8376   4.229   5.002   7.044 -1.4016  1.0381  1.1400
 2490SOL     OW 8377   2.101   1.618   2.670 -0.2965  0.3425  0.8086
 2490SOL    HW1 8378   2.021   1.668   2.686 -0.1114  1.2938 -0.9608
 2490SOL    HW2 8379   2.166   1.684   2.645 -0.2989 -0.7496 -2.5912
 2491SOL     OW 8380   0.505   5.651   2.891  0.2790  0.3736  1.0321
 2491SOL    HW1 8381   0.481   5.654   2.798  1.9553  0.3904  0.5813
 2491SOL    HW2 8382   0.455   5.577   2.926 -1.3583  1.1327  0.4408
 2492SOL     OW 8383   2.273   3.222   6.047  0.0811 -0.2143  0.4435
 2492SOL    HW1 8384   2.186   3.228   6.009  0.3154  1.0817  0.0680
 2492SOL    HW2 8385   2.265   3.263   6.133  0.3133 -0.1413  0.4320
 2493SOL     OW 8386   5.546   2.421   0.421  0.1834 -0.3424 -0.5986
 2493SOL    HW1 8387   5.630   2.461   0.400 -0.3620  1.6646  0.7210
 2493SOL    HW2 8388   5.535   2.435   0.515 -1.6086 -0.5316 -0.7366
 2494SOL     OW 8389   3.354   5.064   3.990  0.6482 -0.1316 -0.3230
 2494SOL    HW1 8390   3.311   5.030   3.911  0.5534 -1.5409  0.3128
 2494SOL    HW2 8391   3.382   5.153   3.965 -0.1443 -0.2215 -1.6509
 2495SOL     OW 8392   5.350   5.127   5.461  0.2971  0.5472  0.3251
 2495SOL    HW1 8393   5.272   5.096   5.415 -0.0753  1.7641  0.1169
 2495SOL    HW2 8394   5.382   5.049   5.508  0.2672 -0.5277 -1.3607
 2496SOL     OW 8395   0.004   5.052   6.613  0.2695 -0.5588 -0.2269
 2496SOL    HW1 8396   0.002   5.024   6.521  1.2071 -1.2216 -0.0629
 2496SOL    HW2 8397  -0.088   5.052   6.639 -0.1711  1.1178 -1.5717
 2497SOL     OW 8398   1.241   4.068   6.304  0.6275  0.1823 -0.2195
 2497SOL    HW1 8399   1.326   4.080   6.347 -1.0317  0.7949  3.2204
 2497SOL    HW2 8400   1.204   3.991   6.348 -0.5880 -0.1554 -1.7642
 2498SOL     OW 8401   4.508   2.117   0.815  0.1414 -0.5313 -0.6798
 2498SOL    HW1 8402   4.548   2.057   0.753 -1.5890  0.2911 -2.7144
 2498SOL    HW2 8403   4.493   2.065   0.893  0.8010 -2.0805 -1.5482
 2499SOL     OW 8404   4.453   1.924   6.233 -0.2364  0.0768 -0.5092
 2499SOL    HW1 8405   4.428   1.832   6.220 -1.6695  0.4752 -0.6919
 2499SOL    HW2 8406   4.524   1.920   6.297 -1.7027 -1.0228  1.1406
 2500SOL     OW 8407   1.753   7.049   4.190  0.6088  0.3942  0.2958
 2500SOL    HW1 8408   1.739   7.125   4.246 -0.5931 -0.0783  0.6725
 2500SOL    HW2 8409   1.795   6.985   4.247 -0.3107  0.0347  0.6007
 2501SOL     OW 8410   7.601   1.301   6.850 -0.2415  0.0043 -0.0982
 2501SOL    HW1 8411   7.537   1.272   6.785  0.4143 -1.9108  0.0635
 2501SOL    HW2 8412   7.558   1.283   6.934 -0.1866  0.3914  0.0160
 2502SOL     OW 8413   7.025   5.882   0.632  0.3072  0.5925 -0.4310
 2502SOL    HW1 8414   7.082   5.874   0.709 -1.9855  0.9832  1.4643
 2502SOL    HW2 8415   6.981   5.967   0.645 -1.3568 -0.1035 -1.2470
 2503SOL     OW 8416   0.006   0.675   2.909 -0.1446 -0.1755 -0.7053
 2503SOL    HW1 8417   0.067   0.742   2.881  0.2550 -0.6567 -1.0038
 2503SOL    HW2 8418   0.050   0.629   2.980 -0.9118  0.6537  0.3377
 2504SOL     OW 8419   6.645   5.808   7.284  0.2451  0.1865 -0.4038
 2504SOL    HW1 8420   6.694   5.890   7.273  0.2378  0.1698 -0.5561
 2504SOL    HW2 8421   6.707   5.739   7.261  0.6118  0.0832  0.8218
 2505SOL     OW 8422   2.929   2.266   7.294  0.3470 -0.0393  0.2820
 2505SOL    HW1 8423   2.990   2.206   7.253  2.1526  1.3588  0.7954
 2505SOL    HW2 8424   2.965   2.283   7.381 -1.2080  0.2177  0.9235
 2506SOL     OW 8425   6.337   6.151   0.311  0.5315 -0.3364 -1.1574
 2506SOL    HW1 8426   6.264   6.213   0.306  0.0368 -0.7602  0.2569
 2506SOL    HW2 8427   6.413   6.201   0.280  0.3631  1.3801  0.9164
 2507SOL     OW 8428   4.016   1.607   6.512  0.3430 -0.5319 -0.3543
 2507SOL    HW1 8429   3.982   1.669   6.575 -1.2541 -2.1689  0.4847
 2507SOL    HW2 8430   4.021   1.656   6.430 -0.7009  0.7454  0.3154
 2508SOL     OW 8431   0.161   1.342   3.415  0.3037 -0.2136  0.2841
 2508SOL    HW1 8432   0.150   1.403   3.488  1.9577  2.1603 -1.3107
 2508SOL    HW2 8433   0.245   1.366   3.375  0.5325 -2.8950 -1.0818
 2509SOL     OW 8434   6.897   0.476   5.205 -0.3414 -0.3621 -0.3592
 2509SOL    HW1 8435   6.928   0.388   5.225  0.6475  0.3406  1.5127
 2509SOL    HW2 8436   6.893   0.520   5.290  0.8803  1.9172 -1.3703
 2510SOL     OW 8437   7.715   1.490   1.496  0.0810  0.4850 -0.1571
 2510SOL    HW1 8438   7.684   1.402   1.476  0.3929  0.2419  0.4000
 2510SOL    HW2 8439   7.801   1.476   1.537  1.4084  1.1680 -2.5171
 2511SOL     OW 8440   5.808   7.128   1.746  0.4443  0.0986 -0.1346
 2511SOL    HW1 8441   5.819   7.170   1.831 -0.2195  0.5917 -0.2822
 2511SOL    HW2 8442   5.819   7.200   1.683  0.4946 -0.1823 -0.4493
 2512SOL     OW 8443   1.051   3.798   0.830 -0.5342  0.0074 -0.0668
 2512SOL    HW1 8444   1.096   3.881   0.813  1.0147 -0.9222 -0.7277
 2512SOL    HW2 8445   1.075   3.742   0.756 -1.7207 -0.9661  0.2563
 2513SOL     OW 8446   1.318   4.023   3.693  0.0394 -0.2082 -0.2425
 2513SOL    HW1 8447   1.408   4.037   3.665 -0.0496 -0.9914 -0.9921
 2513SOL    HW2 8448   1.312   4.064   3.779  0.0477  3.2884 -1.7412
 2514SOL     OW 8449   5.213   5.359   5.969  0.7981  0.0659  0.5509
 2514SOL    HW1 8450   5.188   5.373   5.878  0.1400 -1.9134  0.3826
 2514SOL    HW2 8451   5.135   5.381   6.019 -0.3349 -2.8594  0.2667
 2515SOL     OW 8452   5.876   7.376   5.347  0.5875 -0.0358 -0.2326
 2515SOL    HW1 8453   5.782   7.373   5.367  0.6977 -1.5080  0.1186
 2515SOL    HW2 8454   5.890   7.465   5.313 -0.8915  0.2643 -0.1152
 2516SOL     OW 8455   3.775   1.233   1.623 -0.3816  0.3451 -0.5715
 2516SOL    HW1 8456   3.709   1.252   1.690 -0.4665  1.6387 -0.9809
 2516SOL    HW2 8457   3.780   1.314   1.572  2.2203  0.6610  0.0392
 2517SOL     OW 8458   3.716   5.334   2.840 -0.0469  0.4444  0.0331
 2517SOL    HW1 8459   3.682   5.283   2.766 -1.0610  0.2641  0.6033
 2517SOL    HW2 8460   3.793   5.285   2.869  1.7056  1.6643 -2.2305
 2518SOL     OW 8461   7.227   7.714   5.622 -0.1563 -0.1731  0.1392
 2518SOL    HW1 8462   7.232   7.793   5.677  0.5042  0.4652 -0.7966
 2518SOL    HW2 8463   7.311   7.711   5.578 -0.1828 -1.4200  0.1524
 2519SOL     OW 8464   0.147   5.669   1.063 -0.2199  0.0555 -0.2507
 2519SOL    HW1 8465   0.143   5.613   0.986 -1.4316 -0.3409  0.0668
 2519SOL    HW2 8466   0.142   5.608   1.137 -3.5808  0.5696  0.1116
 2520SOL     OW 8467   3.698   1.629   1.198 -0.1804 -0.0038 -0.0984
 2520SOL    HW1 8468   3.745   1.633   1.115 -0.5343 -1.0743 -0.3800
 2520SOL    HW2 8469   3.719   1.710   1.243  1.6120 -0.2826 -0.3775
 2521SOL     OW 8470   0.665   6.896   7.637 -0.3896  0.0973  0.5772
 2521SOL    HW1 8471   0.731   6.866   7.574  0.7804  0.3928  1.6245
 2521SOL    HW2 8472   0.584   6.901   7.586  0.5717  0.6108 -0.9810
 2522SOL     OW 8473   3.013   3.528   7.616 -0.0348  0.4746 -0.1660
 2522SOL    HW1 8474   2.959   3.605   7.601  1.1181  1.8923  2.3931
 2522SOL    HW2 8475   3.046   3.504   7.529 -0.6539  2.6735 -1.0625
 2523SOL     OW 8476   1.568   1.587   3.532 -0.5955  0.1571 -0.0675
 2523SOL    HW1 8477   1.593   1.679   3.544 -1.7822  0.6910 -1.3397
 2523SOL    HW2 8478   1.483   1.579   3.576 -1.2014  0.0880 -1.1994
 2524SOL     OW 8479   0.022   5.285   6.242  0.4385 -0.1648 -0.6113
 2524SOL    HW1 8480   0.007   5.304   6.149 -0.5448  1.5338 -0.1508
 2524SOL    HW2 8481  -0.013   5.197   6.255  0.7439 -0.4951 -1.8668
 2525SOL     OW 8482   1.444   6.564   0.674 -0.0216  0.1902  0.1235
 2525SOL    HW1 8483   1.454   6.659   0.665 -0.0490  0.0248 -2.2718
 2525SOL    HW2 8484   1.401   6.537   0.593 -0.1324 -1.8651  0.8267
 2526SOL     OW 8485   0.726   2.441   6.197  0.0101 -0.4525 -0.8580
 2526SOL    HW1 8486   0.723   2.527   6.155 -1.3172  0.1356  0.3440
 2526SOL    HW2 8487   0.656   2.391   6.154  0.1966 -0.6481 -0.9397
 2527SOL     OW 8488   3.518   4.588   6.262 -0.2936 -0.5025 -0.0353
 2527SOL    HW1 8489   3.597   4.555   6.304 -1.4057 -2.6380  0.5216
 2527SOL    HW2 8490   3.530   4.568   6.169 -0.8327 -2.3918  0.2580
 2528SOL     OW 8491   2.032   7.434   2.663  0.4721  0.0007 -0.1866
 2528SOL    HW1 8492   1.954   7.485   2.682  0.6525 -0.0543  0.7359
 2528SOL    HW2 8493   2.079   7.430   2.746  0.7382 -1.2039 -0.3790
 2529SOL     OW 8494   4.802   2.673   0.759 -0.0913 -0.3329 -0.1119
 2529SOL    HW1 8495   4.884   2.625   0.771  0.2490  0.4305  0.6350
 2529SOL    HW2 8496   4.739   2.605   0.733  0.6810 -0.9808 -0.3473
 2530SOL     OW 8497   7.497   2.599   0.427  0.2229 -0.2774 -0.1679
 2530SOL    HW1 8498   7.434   2.619   0.497 -0.3954 -0.5833 -0.6261
 2530SOL    HW2 8499   7.480   2.666   0.360  0.7224 -0.0635 -0.0828
 2531SOL     OW 8500   6.011   5.856   7.038 -0.1828  0.8827 -0.2079
 2531SOL    HW1 8501   6.054   5.888   6.959  2.3185  0.2006  0.7875
 2531SOL    HW2 8502   5.935   5.913   7.049  1.7012  3.6932 -0.8510
 2532SOL     OW 8503   0.143   5.530   0.822 -0.1865  0.4352  0.4849
 2532SOL    HW1 8504   0.085   5.454   0.824  0.7758 -0.3597 -0.6220
 2532SOL    HW2 8505   0.231   5.493   0.829  0.2700  1.5033  0.6107
 2533SOL     OW 8506   0.031   2.199   0.004  0.3123 -0.2389 -0.1406
 2533SOL    HW1 8507   0.006   2.290   0.021 -2.3288 -1.0317  0.6387
 2533SOL    HW2 8508   0.014   2.154   0.086 -2.5411 -2.1826 -1.6256
 2534SOL     OW 8509   2.476   7.664   3.231  0.0943 -0.4522  0.7955
 2534SOL    HW1 8510   2.482   7.660   3.136  2.3809  0.7059  0.7987
 2534SOL    HW2 8511   2.493   7.574   3.260  0.9952 -0.5159  0.1209
 2535SOL     OW 8512   5.210   6.201   2.499  0.2445 -0.3204 -0.0374
 2535SOL    HW1 8513   5.171   6.191   2.412 -1.4204  1.1463  0.4818
 2535SOL    HW2 8514   5.265   6.123   2.509  0.4915 -0.5170 -2.3833
 2536SOL     OW 8515   0.457   4.234   5.984 -0.3371  0.8330 -0.2578
 2536SOL    HW1 8516   0.378   4.271   6.024  0.3212  1.5492  0.4137
 2536SOL    HW2 8517   0.426   4.157   5.936 -1.1915 -0.0035  1.5278
 2537SOL     OW 8518   3.032   3.068   5.183  0.3257  0.0366  0.3198
 2537SOL    HW1 8519   3.041   2.988   5.133 -1.3895  0.6525 -1.0759
 2537SOL    HW2 8520   3.103   3.124   5.152 -1.1790  0.7085 -2.1263
 2538SOL     OW 8521   3.622   4.972   5.313 -0.2014 -0.0838 -0.2123
 2538SOL    HW1 8522   3.574   4.940   5.389  1.0176 -0.9438  0.2455
 2538SOL    HW2 8523   3.655   5.058   5.339  1.3804 -0.9568  0.8063
 2539SOL     OW 8524   0.177   3.270   1.263 -0.5805  0.7394  0.0737
 2539SOL    HW1 8525   0.234   3.346   1.276  3.6116 -1.5906 -2.3379
 2539SOL    HW2 8526   0.188   3.218   1.343 -0.2703  0.8617  0.1131
 2540SOL     OW 8527   7.546   6.076   6.393 -0.2846  0.0653  0.0901
 2540SOL    HW1 8528   7.640   6.066   6.376 -0.0515 -0.3047  1.5157
 2540SOL    HW2 8529   7.511   6.109   6.310  0.9590 -0.6164 -0.7461
 2541SOL     OW 8530   3.855   2.232   3.139 -0.0676  1.0238 -0.3246
 2541SOL    HW1 8531   3.841   2.196   3.051 -1.3091 -1.8977  0.9395
 2541SOL    HW2 8532   3.945   2.209   3.160 -0.5130 -0.5146  0.0373
 2542SOL     OW 8533   1.784   0.973   0.712 -0.4475 -0.4055  0.4897
 2542SOL    HW1 8534   1.811   1.015   0.630 -0.7881 -2.0671 -0.5075
 2542SOL    HW2 8535   1.689   0.963   0.703 -0.3007 -1.9227  0.4173
 2543SOL     OW 8536   1.504   6.491   7.486  0.2958 -0.3592 -0.2631
 2543SOL    HW1 8537   1.572   6.425   7.472  0.6932  0.0095 -0.1019
 2543SOL    HW2 8538   1.434   6.444   7.531  0.7388 -0.5842  0.1976
 2544SOL     OW 8539   1.115   5.060   0.761  0.8069  0.1057 -0.1150
 2544SOL    HW1 8540   1.160   5.067   0.845  0.0541 -2.4912  0.6012
 2544SOL    HW2 8541   1.022   5.071   0.783  0.7710  2.2575 -1.1006
 2545SOL     OW 8542   6.297   2.902   7.215 -0.2105  0.2675  0.4418
 2545SOL    HW1 8543   6.254   2.887   7.130  0.7043  1.0968 -0.1868
 2545SOL    HW2 8544   6.347   2.823   7.231  1.3724  0.9302 -0.8983
 2546SOL     OW 8545   5.621   2.585   5.224  0.2201 -0.3338  0.4763
 2546SOL    HW1 8546   5.605   2.626   5.139 -0.7676  0.1235  0.8722
 2546SOL    HW2 8547   5.582   2.644   5.288  0.3449 -1.0137  1.2055
 2547SOL     OW 8548   7.632   5.747   5.376  0.1705  0.2106 -0.3234
 2547SOL    HW1 8549   7.603   5.761   5.466 -0.1437  0.9591 -0.5326
 2547SOL    HW2 8550   7.720   5.786   5.372 -0.0836  0.7856 -0.5034
 2548SOL     OW 8551   3.273   3.388   2.465  0.1183  0.0555 -0.1111
 2548SOL    HW1 8552   3.328   3.309   2.463 -1.1002 -0.8814  1.1925
 2548SOL    HW2 8553   3.286   3.424   2.553  0.5728  1.2842 -0.6544
 2549SOL     OW 8554   5.880   3.785   0.021  0.1362 -0.0647 -0.4453
 2549SOL    HW1 8555   5.912   3.736  -0.055 -0.8885 -1.1760 -0.1950
 2549SOL    HW2 8556   5.792   3.812  -0.005 -0.0994 -0.1843  0.2255
 2550SOL     OW 8557   3.064   0.034   7.479  0.2595 -0.3076  0.1766
 2550SOL    HW1 8558   3.088  -0.025   7.407  0.6533  0.5981 -0.4495
 2550SOL    HW2 8559   3.044   0.117   7.437 -0.1162  0.0673  1.0672
 2551SOL     OW 8560   4.189   0.274   2.726  0.3707 -0.4066 -0.6205
 2551SOL    HW1 8561   4.106   0.250   2.684 -0.1917  0.0615  0.2008
 2551SOL    HW2 8562   4.256   0.241   2.666 -0.3954 -1.7800 -0.7519
 2552SOL     OW 8563   4.065   2.196   4.376  0.2304  0.5509 -0.2585
 2552SOL    HW1 8564   4.086   2.118   4.428  1.3547  0.9027 -0.1679
 2552SOL    HW2 8565   4.084   2.170   4.286 -0.8547  0.2360 -0.4088
 2553SOL     OW 8566   0.552   5.164   3.369  0.6477 -0.2218 -0.0562
 2553SOL    HW1 8567   0.475   5.207   3.331 -0.2700 -2.8715 -1.4857
 2553SOL    HW2 8568   0.626   5.219   3.342 -0.2580 -0.3923 -3.3828
 2554SOL     OW 8569   6.094   3.921   0.786  0.2362 -0.3019 -1.0860
 2554SOL    HW1 8570   6.016   3.977   0.784  0.8176  0.5552 -0.3284
 2554SOL    HW2 8571   6.155   3.964   0.727  1.4292  1.0401  0.9980
 2555SOL     OW 8572   6.132   7.410   7.400 -0.0037 -0.5893  0.2064
 2555SOL    HW1 8573   6.132   7.478   7.332 -0.6427 -0.4561  0.3322
 2555SOL    HW2 8574   6.134   7.459   7.482  3.2330 -0.7422  0.3426
 2556SOL     OW 8575   6.341   1.757   6.577  0.0754 -0.4516  0.1316
 2556SOL    HW1 8576   6.379   1.844   6.589 -0.7242  0.1101 -1.0896
 2556SOL    HW2 8577   6.259   1.759   6.627  0.3430 -0.7181  0.5853
 2557SOL     OW 8578   0.065   0.168   4.247  0.7946  0.0162 -0.0688
 2557SOL    HW1 8579   0.099   0.114   4.176 -1.4322 -0.0450 -1.2015
 2557SOL    HW2 8580   0.006   0.230   4.203 -0.5437  0.0690  1.6886
 2558SOL     OW 8581   1.333   0.463   2.608  0.0828  0.1300  0.1160
 2558SOL    HW1 8582   1.353   0.529   2.675  0.9160 -0.6032  0.6073
 2558SOL    HW2 8583   1.242   0.438   2.626  0.2181  0.1242  0.8246
 2559SOL     OW 8584   0.184   1.226   1.035  0.4663  0.0126 -0.1201
 2559SOL    HW1 8585   0.159   1.138   1.007 -1.8572  0.4149  0.4829
 2559SOL    HW2 8586   0.259   1.212   1.093  1.8343 -1.2929 -2.0712
 2560SOL     OW 8587   3.805   5.556   4.457  0.5685 -0.2229  0.2983
 2560SOL    HW1 8588   3.892   5.592   4.439  0.7631 -0.7437  0.1771
 2560SOL    HW2 8589   3.816   5.461   4.452 -0.2538 -0.2932 -0.9715
 2561SOL     OW 8590   5.498   5.460   4.528  0.4235  0.0514 -0.1247
 2561SOL    HW1 8591   5.535   5.548   4.526 -0.0947  0.2935  0.4881
 2561SOL    HW2 8592   5.405   5.473   4.513  0.3187 -0.3727  0.1377
 2562SOL     OW 8593   6.744   1.214   1.930 -0.4210 -0.0736  0.3946
 2562SOL    HW1 8594   6.690   1.153   1.980  0.0970 -1.4016 -0.5996
 2562SOL    HW2 8595   6.697   1.225   1.847 -1.4001  2.2936  1.1941
 2563SOL     OW 8596   1.784   5.145   6.325 -0.3160  0.6851 -0.3378
 2563SOL    HW1 8597   1.715   5.091   6.364 -0.4765  0.4137 -0.9704
 2563SOL    HW2 8598   1.834   5.178   6.399 -0.4173 -0.0714  0.0804
 2564SOL     OW 8599   4.455   4.268   2.114 -0.3724  0.3985  0.3485
 2564SOL    HW1 8600   4.491   4.261   2.203 -0.8762  1.8907  0.7049
 2564SOL    HW2 8601   4.360   4.258   2.126 -0.2680 -2.2538 -0.4201
 2565SOL     OW 8602   5.327   0.040   7.127  0.2693 -0.0754  0.0177
 2565SOL    HW1 8603   5.404   0.051   7.070  0.6841  0.0183  0.5817
 2565SOL    HW2 8604   5.258   0.008   7.069  0.7401 -0.1692 -0.4985
 2566SOL     OW 8605   3.870   4.313   1.568 -0.1365  0.1851 -0.2867
 2566SOL    HW1 8606   3.784   4.319   1.609 -0.5663 -0.0056 -1.1429
 2566SOL    HW2 8607   3.871   4.382   1.503  0.6533  0.6710  0.2208
 2567SOL     OW 8608   6.926   6.824   7.334  0.1767  0.2889 -0.5150
 2567SOL    HW1 8609   6.833   6.809   7.352  0.2698  0.5268  0.1797
 2567SOL    HW2 8610   6.955   6.884   7.402  0.9418 -0.0943 -0.4852
 2568SOL     OW 8611   2.564   0.990   3.427 -0.8060 -0.0589 -0.1258
 2568SOL    HW1 8612   2.611   0.907   3.420 -2.2919 -0.8460 -1.1567
 2568SOL    HW2 8613   2.562   1.024   3.338  1.4646  2.1267  0.5129
 2569SOL     OW 8614   5.198   0.313   1.703 -0.2877  0.6156  0.4127
 2569SOL    HW1 8615   5.261   0.385   1.705  0.3634  0.0704 -0.0969
 2569SOL    HW2 8616   5.143   0.328   1.780 -1.9952  3.2419 -1.1644
 2570SOL     OW 8617   1.575   2.424   2.460  0.4016  0.5199  0.3143
 2570SOL    HW1 8618   1.580   2.330   2.447 -0.7821  0.3542  0.9515
 2570SOL    HW2 8619   1.666   2.453   2.463  0.7721 -0.4484 -0.8566
 2571SOL     OW 8620   1.652   4.721   3.283  0.1959 -0.2681 -0.0912
 2571SOL    HW1 8621   1.692   4.807   3.266 -1.7899  0.5159 -1.1877
 2571SOL    HW2 8622   1.688   4.694   3.368  1.8274  1.0466 -0.3124
 2572SOL     OW 8623   6.063   3.571   2.913  0.0966 -0.2427  0.2751
 2572SOL    HW1 8624   6.120   3.640   2.877  0.8423 -1.2564 -0.5537
 2572SOL    HW2 8625   6.020   3.612   2.988  3.6017 -0.0308  2.3886
 2573SOL     OW 8626   0.751   4.018   0.469  0.3871  0.2709 -0.3140
 2573SOL    HW1 8627   0.744   3.938   0.416 -1.5711 -0.3501  0.7930
 2573SOL    HW2 8628   0.721   4.088   0.410  0.7218 -0.0035 -0.8236
 2574SOL     OW 8629   7.208   5.925   3.743  0.0393  0.3203 -0.6002
 2574SOL    HW1 8630   7.175   5.954   3.828  1.1611 -0.3289  0.0746
 2574SOL    HW2 8631   7.129   5.902   3.694 -0.5760 -0.5051  0.7076
 2575SOL     OW 8632   1.758   6.108   3.229  0.1131  0.2355  0.3490
 2575SOL    HW1 8633   1.740   6.162   3.306 -0.8511  2.1723 -1.1677
 2575SOL    HW2 8634   1.678   6.057   3.216  0.8087 -1.2014  1.4319
 2576SOL     OW 8635   7.359   1.910   0.719  0.5577  0.1124  0.4349
 2576SOL    HW1 8636   7.312   1.834   0.755  2.9905 -0.6827  2.1571
 2576SOL    HW2 8637   7.389   1.880   0.633 -0.3930 -0.0501  0.1443
 2577SOL     OW 8638   2.525   6.927   2.509 -1.2022  0.3419 -0.1392
 2577SOL    HW1 8639   2.534   6.832   2.508 -0.5315  0.4021 -1.9738
 2577SOL    HW2 8640   2.606   6.958   2.549  0.5035  0.2557 -3.2673
 2578SOL     OW 8641   5.792   2.406   0.650  0.3863 -0.0086  0.1594
 2578SOL    HW1 8642   5.857   2.372   0.712  0.1561 -0.2086  0.2916
 2578SOL    HW2 8643   5.768   2.492   0.686  1.1790  0.4334 -0.3273
 2579SOL     OW 8644   2.807   3.720   7.514  0.0098  0.0718 -0.3408
 2579SOL    HW1 8645   2.744   3.660   7.554 -0.6498 -0.6524 -2.3469
 2579SOL    HW2 8646   2.770   3.739   7.427  1.7711  0.8814 -0.9516
 2580SOL     OW 8647   7.707   4.258   1.520  0.3935  0.0994  0.4649
 2580SOL    HW1 8648   7.629   4.295   1.478  0.9447 -1.9825 -2.6790
 2580SOL    HW2 8649   7.692   4.273   1.614 -2.9868  1.2330 -0.1134
 2581SOL     OW 8650   2.321   2.401   5.294 -0.5118 -0.1963  0.0642
 2581SOL    HW1 8651   2.275   2.319   5.308  0.1523 -0.5124  0.4602
 2581SOL    HW2 8652   2.365   2.418   5.378  0.4364 -0.1300 -0.4342
 2582SOL     OW 8653   0.899   4.877   5.691  0.1032  0.1615 -0.1341
 2582SOL    HW1 8654   0.953   4.905   5.617 -0.8267 -1.5824 -1.5393
 2582SOL    HW2 8655   0.849   4.803   5.658  0.2091 -1.1943  2.4948
 2583SOL     OW 8656   1.350   1.424   0.771 -0.1292  0.5819  0.1357
 2583SOL    HW1 8657   1.328   1.458   0.684 -0.4757  1.0966  0.4134
 2583SOL    HW2 8658   1.266   1.417   0.815 -0.0382 -0.4960  0.1462
 2584SOL     OW 8659   7.512   2.653   5.240  0.0028 -0.0659  0.0814
 2584SOL    HW1 8660   7.542   2.688   5.323  0.3981  0.1597 -0.1508
 2584SOL    HW2 8661   7.488   2.563   5.259  0.1336 -0.0295  0.4289
 2585SOL     OW 8662   2.796   4.053   2.728 -0.0317  0.3339  0.4049
 2585SOL    HW1 8663   2.767   4.045   2.819  0.7191  0.3869  0.6511
 2585SOL    HW2 8664   2.891   4.060   2.733 -0.0793  2.1320 -0.2597
 2586SOL     OW 8665   3.279   6.666   1.808  0.1817 -0.1714 -0.3206
 2586SOL    HW1 8666   3.354   6.634   1.759  1.8237  2.3624  0.3187
 2586SOL    HW2 8667   3.316   6.696   1.891 -1.8180 -0.2974  0.6793
 2587SOL     OW 8668   6.742   3.323   3.864  0.3123  0.2711  0.3209
 2587SOL    HW1 8669   6.669   3.370   3.824  0.4387  1.6970  1.6718
 2587SOL    HW2 8670   6.760   3.251   3.804 -1.5723  0.4458 -0.5194
 2588SOL     OW 8671   6.325   0.446   1.044 -0.3245 -0.6258 -0.4780
 2588SOL    HW1 8672   6.379   0.525   1.051 -1.3323  0.0728 -0.3022
 2588SOL    HW2 8673   6.369   0.382   1.099 -0.7180  0.5450  1.3091
 2589SOL     OW 8674   7.395   5.305   5.943  0.0044 -0.1546 -0.4267
 2589SOL    HW1 8675   7.434   5.267   5.864  0.4661 -0.4316 -0.0722
 2589SOL    HW2 8676   7.432   5.253   6.015  0.0862  0.5156  0.0176
 2590SOL     OW 8677   3.108   5.254   3.152 -0.0032  0.1257  0.0577
 2590SOL    HW1 8678   3.188   5.214   3.119  0.6126  1.3331  0.0288
 2590SOL    HW2 8679   3.074   5.192   3.216  0.7187 -0.5977 -0.2530
 2591SOL     OW 8680   4.360   1.554   4.449  0.1538 -0.8057 -0.0216
 2591SOL    HW1 8681   4.397   1.623   4.504  0.4442 -0.2716 -0.8683
 2591SOL    HW2 8682   4.436   1.500   4.424 -0.0202 -1.2245  0.3475
 2592SOL     OW 8683   0.402   4.643   3.546 -0.3228 -0.0025 -0.3196
 2592SOL    HW1 8684   0.352   4.725   3.541 -1.5674 -0.7317 -0.2615
 2592SOL    HW2 8685   0.361   4.587   3.481  1.4926 -0.1008 -1.4320
 2593SOL     OW 8686   2.857   0.856   7.584 -0.6046  0.2738  0.3469
 2593SOL    HW1 8687   2.842   0.803   7.506 -0.5946  1.8986 -0.8166
 2593SOL    HW2 8688   2.910   0.930   7.553  0.9729  0.0325  2.2802
 2594SOL     OW 8689   6.472   4.771   3.192 -0.1355  0.1781  0.0740
 2594SOL    HW1 8690   6.496   4.823   3.116 -0.3756  2.0264  1.1934
 2594SOL    HW2 8691   6.459   4.835   3.262 -2.0279 -1.2435  1.1456
 2595SOL     OW 8692   3.645   2.335   4.402  0.1378  0.7455 -0.1167
 2595SOL    HW1 8693   3.718   2.392   4.423  0.0487  0.6414  0.4832
 2595SOL    HW2 8694   3.659   2.257   4.455 -0.0298  0.4282 -0.5268
 2596SOL     OW 8695   2.289   4.203   6.864  0.0961 -0.1235  0.4109
 2596SOL    HW1 8696   2.342   4.146   6.921  1.7934  1.7764  0.8724
 2596SOL    HW2 8697   2.332   4.289   6.871 -1.8716  1.0263 -0.8746
 2597SOL     OW 8698   1.740   7.633   7.530  0.1505 -0.2504  0.3341
 2597SOL    HW1 8699   1.697   7.631   7.444  0.5558 -0.7921  0.1399
 2597SOL    HW2 8700   1.708   7.555   7.575 -0.4122  0.2643  0.8621
 2598SOL     OW 8701   5.623   7.275   3.767 -0.6828 -0.1868  0.7316
 2598SOL    HW1 8702   5.643   7.261   3.674 -0.8186  0.3509  0.6172
 2598SOL    HW2 8703   5.531   7.301   3.768 -0.6990 -0.2533  1.0230
 2599SOL     OW 8704   2.305   1.133   1.321  0.2128  0.1754 -0.0203
 2599SOL    HW1 8705   2.287   1.198   1.389  0.7520 -1.4504  1.7757
 2599SOL    HW2 8706   2.308   1.049   1.368 -0.1047 -1.1272 -2.1837
 2600SOL     OW 8707   3.799   3.929   0.851 -0.1644 -0.3368  0.2453
 2600SOL    HW1 8708   3.891   3.956   0.843  0.4882 -2.7859 -2.0347
 2600SOL    HW2 8709   3.751   3.990   0.795  0.7335 -1.3723 -1.7710
 2601SOL     OW 8710   3.810   7.201   1.204 -0.4981 -0.4176  0.3744
 2601SOL    HW1 8711   3.785   7.163   1.120 -0.4959 -0.1880  0.2698
 2601SOL    HW2 8712   3.845   7.287   1.181 -0.7830 -0.2322  0.6433
 2602SOL     OW 8713   3.519   6.034   4.357 -0.9490 -0.4323 -0.1427
 2602SOL    HW1 8714   3.583   6.087   4.404 -0.9651 -0.6720  0.1523
 2602SOL    HW2 8715   3.501   6.083   4.277 -2.2426  0.8733  0.8994
 2603SOL     OW 8716   4.449   0.563   6.453 -0.1553  0.0731 -0.0882
 2603SOL    HW1 8717   4.440   0.646   6.500 -0.6865 -0.6690  1.1674
 2603SOL    HW2 8718   4.390   0.503   6.499 -0.1908 -0.8668 -1.3065
 2604SOL     OW 8719   5.705   3.424   3.951  0.4798 -0.4242  0.8017
 2604SOL    HW1 8720   5.652   3.492   3.909  1.4882 -1.1037 -1.7745
 2604SOL    HW2 8721   5.652   3.394   4.024 -1.8066  0.3277 -0.4454
 2605SOL     OW 8722   3.617   6.538   0.619  0.1844 -0.2273 -0.4575
 2605SOL    HW1 8723   3.709   6.564   0.630  0.9938 -2.8039 -0.3484
 2605SOL    HW2 8724   3.567   6.613   0.651  2.2607  0.8813  0.4299
 2606SOL     OW 8725   2.171   4.919   1.600  0.1685  0.5786 -0.0876
 2606SOL    HW1 8726   2.222   4.840   1.582  0.1913  0.7190 -0.6633
 2606SOL    HW2 8727   2.172   4.927   1.695 -0.3736 -0.4695  0.0216
 2607SOL     OW 8728   0.377   3.808   6.502 -0.4034 -0.1871 -0.1516
 2607SOL    HW1 8729   0.418   3.836   6.421 -2.1247 -1.8174 -1.7159
 2607SOL    HW2 8730   0.439   3.832   6.571 -0.3222  4.3963 -1.4789
 2608SOL     OW 8731   4.740   2.639   7.729  0.0370 -0.1704  0.1954
 2608SOL    HW1 8732   4.698   2.723   7.751  0.0471 -0.0912 -0.0915
 2608SOL    HW2 8733   4.820   2.664   7.682 -0.9042 -0.3674 -1.5978
 2609SOL     OW 8734   6.707   1.992   0.875 -0.4584  0.0840  0.5416
 2609SOL    HW1 8735   6.699   2.060   0.941 -1.2045  1.5237 -0.9392
 2609SOL    HW2 8736   6.797   1.997   0.845 -0.6937  0.9395 -0.0560
 2610SOL     OW 8737   1.160   1.616   3.861 -0.2852 -0.0292 -0.0674
 2610SOL    HW1 8738   1.084   1.588   3.913 -0.0766  0.4223  0.4945
 2610SOL    HW2 8739   1.233   1.609   3.922  0.1507 -0.5639 -0.6372
 2611SOL     OW 8740   5.465   1.355   1.665  0.2352 -0.1801 -0.2086
 2611SOL    HW1 8741   5.481   1.448   1.684  0.3606 -0.1507 -0.4577
 2611SOL    HW2 8742   5.550   1.313   1.678 -0.3842 -0.7335  2.6356
 2612SOL     OW 8743   5.318   1.154   4.915  0.5043 -0.5477 -0.1722
 2612SOL    HW1 8744   5.263   1.170   4.992 -0.2514 -0.2050 -0.7765
 2612SOL    HW2 8745   5.343   1.241   4.885  0.1680 -0.6518 -0.7618
 2613SOL     OW 8746   1.758   5.082   5.334  0.5707  0.3365 -0.4775
 2613SOL    HW1 8747   1.800   4.999   5.358 -0.9551 -0.5181 -0.6242
 2613SOL    HW2 8748   1.702   5.103   5.410  0.1697  0.6943 -0.8676
 2614SOL     OW 8749   6.315   0.145   3.044  0.0446  0.0633 -0.0657
 2614SOL    HW1 8750   6.239   0.178   3.091 -0.8734 -1.3117 -0.5337
 2614SOL    HW2 8751   6.353   0.222   3.002 -1.7086  0.6260 -0.6966
 2615SOL     OW 8752   0.634   6.812   1.315  0.6235 -0.3731 -0.5676
 2615SOL    HW1 8753   0.641   6.803   1.220 -0.0865  1.3500 -0.8189
 2615SOL    HW2 8754   0.551   6.858   1.329  2.0725  2.0513  0.6669
 2616SOL     OW 8755   3.501   0.820   6.729 -0.0078 -0.5214 -0.3050
 2616SOL    HW1 8756   3.594   0.830   6.750  0.0430  0.4781 -0.9688
 2616SOL    HW2 8757   3.478   0.733   6.763  0.9247 -0.3834  0.7208
 2617SOL     OW 8758   7.144   3.521   0.961 -0.8433 -0.3068  0.0702
 2617SOL    HW1 8759   7.172   3.603   1.002 -0.5687 -1.3806  2.2089
 2617SOL    HW2 8760   7.053   3.511   0.990 -0.9097 -0.7142 -0.2740
 2618SOL     OW 8761   5.228   5.834   5.231 -0.2975 -0.1612  0.6729
 2618SOL    HW1 8762   5.256   5.821   5.321  2.0291 -0.1342  0.0164
 2618SOL    HW2 8763   5.255   5.755   5.185  0.8170  0.8460 -0.4753
 2619SOL     OW 8764   2.708   6.644   1.385  0.1206  0.3165 -0.3126
 2619SOL    HW1 8765   2.780   6.581   1.394  1.1585  1.7603  2.3865
 2619SOL    HW2 8766   2.701   6.658   1.290  1.9552 -1.4547 -0.7874
 2620SOL     OW 8767   5.704   4.696   7.574  0.2968 -0.1107 -0.2690
 2620SOL    HW1 8768   5.612   4.704   7.601 -0.0053 -0.7295 -1.0564
 2620SOL    HW2 8769   5.705   4.618   7.518  0.7915  1.3132 -2.3427
 2621SOL     OW 8770   2.078   7.469   2.022 -0.0613 -0.3130 -0.1398
 2621SOL    HW1 8771   2.125   7.514   1.952  2.1781  0.2120  1.5956
 2621SOL    HW2 8772   2.110   7.378   2.018 -0.1719 -0.3591  0.0068
 2622SOL     OW 8773   3.530   5.495   7.482  0.5109 -0.3695  0.1143
 2622SOL    HW1 8774   3.460   5.533   7.429 -0.4064 -0.6684  1.0702
 2622SOL    HW2 8775   3.490   5.419   7.524  1.2120 -0.1619  1.2077
 2623SOL     OW 8776   1.398   7.309   2.016  0.0402 -0.4689 -0.8802
 2623SOL    HW1 8777   1.327   7.367   2.044  2.3839  1.7339  0.9887
 2623SOL    HW2 8778   1.420   7.259   2.095  1.4975 -0.0094 -0.9642
 2624SOL     OW 8779   6.779   6.717   2.484 -0.4343 -0.0202 -0.4853
 2624SOL    HW1 8780   6.806   6.775   2.412 -0.3157  1.2694  0.5760
 2624SOL    HW2 8781   6.690   6.691   2.462 -0.8981  1.4610 -0.4406
 2625SOL     OW 8782   0.199   7.547   3.423 -0.2622 -0.0916 -0.7357
 2625SOL    HW1 8783   0.267   7.514   3.363 -0.5224  0.9720 -1.6444
 2625SOL    HW2 8784   0.246   7.608   3.481 -0.5429  1.2913 -1.8998
 2626SOL     OW 8785   2.924   6.946   3.473  0.4566 -0.2847 -0.1844
 2626SOL    HW1 8786   3.017   6.925   3.470  0.0017 -2.9377  1.0412
 2626SOL    HW2 8787   2.897   6.922   3.561 -1.5358 -0.2486 -0.7424
 2627SOL     OW 8788   0.038   2.569   4.539  0.2153 -0.6158  0.2535
 2627SOL    HW1 8789   0.042   2.637   4.607  0.9612 -0.0986 -0.2864
 2627SOL    HW2 8790   0.018   2.489   4.587 -2.0795  0.1780  0.7562
 2628SOL     OW 8791   4.571   3.419   1.488  0.1449  0.4629  0.0262
 2628SOL    HW1 8792   4.569   3.325   1.469  0.0293  0.0406  1.9745
 2628SOL    HW2 8793   4.611   3.458   1.410  0.4671 -1.2163 -0.6952
 2629SOL     OW 8794   5.948   7.181   0.106  0.2187  0.0667 -0.2140
 2629SOL    HW1 8795   5.901   7.222   0.033 -0.9498 -0.9276 -0.0507
 2629SOL    HW2 8796   5.949   7.088   0.085 -0.7067 -0.3303  1.3207
 2630SOL     OW 8797   0.690   1.767   4.618  0.2811 -0.3163  0.8985
 2630SOL    HW1 8798   0.782   1.740   4.619  0.4196  0.1585  1.2480
 2630SOL    HW2 8799   0.679   1.817   4.699  0.1898  1.2099 -0.0239
 2631SOL     OW 8800   0.962   1.369   5.166 -0.7103  0.0271  0.3094
 2631SOL    HW1 8801   1.050   1.351   5.200 -1.1223 -0.6881  1.0365
 2631SOL    HW2 8802   0.950   1.303   5.098 -0.3173  0.7419 -0.4580
 2632SOL     OW 8803   7.097   4.840   5.781  0.7188 -0.2067 -0.6276
 2632SOL    HW1 8804   7.085   4.781   5.707 -0.5904 -1.8954  0.8341
 2632SOL    HW2 8805   7.071   4.788   5.857  2.1399  1.4082  1.0484
 2633SOL     OW 8806   2.438   1.548   5.928  0.6736 -0.2300 -0.4769
 2633SOL    HW1 8807   2.524   1.582   5.954  0.9334  0.3106 -2.0002
 2633SOL    HW2 8808   2.394   1.530   6.012  1.6167  1.0980  0.3513
 2634SOL     OW 8809   0.509   1.642   6.259  0.5172  0.5054 -0.0282
 2634SOL    HW1 8810   0.471   1.695   6.189 -0.6496 -0.7037 -0.3678
 2634SOL    HW2 8811   0.527   1.704   6.330  2.9206  1.9957 -1.7841
 2635SOL     OW 8812   2.071   2.402   5.709 -0.5655 -0.7835 -0.8877
 2635SOL    HW1 8813   2.031   2.484   5.738 -0.3543 -1.4814  1.5895
 2635SOL    HW2 8814   2.148   2.429   5.659 -0.2138  0.5616  0.3190
 2636SOL     OW 8815   0.186   5.725   3.692 -0.0718  0.8633  0.4561
 2636SOL    HW1 8816   0.153   5.699   3.778 -1.0002  1.0966  0.1773
 2636SOL    HW2 8817   0.111   5.764   3.648  0.5645  1.3644 -0.2140
 2637SOL     OW 8818   3.685   4.791   5.830  0.2063  0.3298 -0.0434
 2637SOL    HW1 8819   3.642   4.723   5.882  0.8556 -0.1419 -0.1062
 2637SOL    HW2 8820   3.673   4.871   5.881 -1.5346  0.3877 -0.5124
 2638SOL     OW 8821   3.292   1.361   0.880 -0.8372 -0.3008 -0.1646
 2638SOL    HW1 8822   3.326   1.432   0.934 -0.1429 -1.4762  1.0400
 2638SOL    HW2 8823   3.279   1.289   0.941  0.6939 -1.9514 -1.6369
 2639SOL     OW 8824   7.423   4.988   3.365 -0.5114 -0.4525  0.3920
 2639SOL    HW1 8825   7.406   4.930   3.292 -0.5496  0.2191 -0.1432
 2639SOL    HW2 8826   7.497   5.043   3.336 -2.8303  2.3557 -0.6915
 2640SOL     OW 8827   0.774   3.545   4.513 -0.0978 -0.6571 -0.7710
 2640SOL    HW1 8828   0.713   3.582   4.449 -0.3526 -1.2163 -0.8593
 2640SOL    HW2 8829   0.719   3.493   4.571 -0.0751  0.9565  0.7862
 2641SOL     OW 8830   2.345   1.283   5.835 -0.3115  0.1978  0.0588
 2641SOL    HW1 8831   2.362   1.334   5.914  0.1607  0.5104 -0.2377
 2641SOL    HW2 8832   2.369   1.193   5.859  1.4201  0.5590 -0.2132
 2642SOL     OW 8833   1.376   4.880   0.952 -0.1101 -0.0242  0.1999
 2642SOL    HW1 8834   1.304   4.823   0.924 -1.0426 -0.1322  2.6298
 2642SOL    HW2 8835   1.334   4.963   0.974  0.6108  0.1503  0.9497
 2643SOL     OW 8836   4.285   5.206   6.101  0.2685 -0.1811 -0.0641
 2643SOL    HW1 8837   4.316   5.230   6.189 -2.3581 -2.5247  1.6636
 2643SOL    HW2 8838   4.195   5.237   6.097  0.5181  0.4323 -2.2463
 2644SOL     OW 8839   0.119   3.074   1.685  0.6991  0.0380 -0.5650
 2644SOL    HW1 8840   0.060   3.004   1.656  1.2319 -0.1790 -1.1492
 2644SOL    HW2 8841   0.135   3.054   1.777  1.0312 -0.7609 -0.7793
 2645SOL     OW 8842   0.289   2.080   6.177 -0.0064  0.2242 -0.5175
 2645SOL    HW1 8843   0.206   2.034   6.191 -1.0143  2.0662 -0.0650
 2645SOL    HW2 8844   0.268   2.147   6.111  1.6774 -0.6077 -1.9790
 2646SOL     OW 8845   2.029   1.114   1.169  0.0297  0.8782  0.2144
 2646SOL    HW1 8846   2.061   1.203   1.184  0.9405  0.6582 -0.2936
 2646SOL    HW2 8847   2.104   1.069   1.131 -0.9860  0.3947 -1.2958
 2647SOL     OW 8848   2.384   6.903   0.413 -0.8930 -0.2901  0.2099
 2647SOL    HW1 8849   2.302   6.864   0.385 -0.8106 -0.1807 -0.1825
 2647SOL    HW2 8850   2.447   6.831   0.412 -0.8337 -0.2355 -0.1261
 2648SOL     OW 8851   1.402   0.006   7.399 -0.0825 -0.1509 -0.3728
 2648SOL    HW1 8852   1.477  -0.031   7.352  0.3143  1.4023 -1.0320
 2648SOL    HW2 8853   1.365   0.070   7.338 -1.7083 -0.5827  0.1085
 2649SOL     OW 8854   5.599   1.854   6.037 -0.1409 -0.2388  0.5468
 2649SOL    HW1 8855   5.585   1.943   6.005  2.8632  1.9596  4.4790
 2649SOL    HW2 8856   5.534   1.843   6.107  1.4201  0.2523  2.1601
 2650SOL     OW 8857   5.619   7.734   1.908  0.6364  0.6794  0.0123
 2650SOL    HW1 8858   5.661   7.712   1.991  1.7481 -0.9400 -0.9216
 2650SOL    HW2 8859   5.526   7.737   1.929  0.4120 -3.6754  0.6787
 2651SOL     OW 8860   4.155   3.529   2.482 -0.3532 -0.1935  0.2078
 2651SOL    HW1 8861   4.064   3.541   2.457 -0.7651 -3.2555 -0.0177
 2651SOL    HW2 8862   4.198   3.497   2.403  0.8227  0.5882  0.4983
 2652SOL     OW 8863   3.331   4.839   1.309 -0.1667  0.2852  0.1573
 2652SOL    HW1 8864   3.410   4.856   1.257 -0.0294 -0.1602  0.2129
 2652SOL    HW2 8865   3.334   4.905   1.379  1.2878 -1.0223  1.4064
 2653SOL     OW 8866   0.862   4.175   5.214 -0.4748 -0.0929  0.3683
 2653SOL    HW1 8867   0.937   4.122   5.187 -0.7688 -0.3997  0.1398
 2653SOL    HW2 8868   0.792   4.111   5.231 -1.1287  0.2580 -0.8441
 2654SOL     OW 8869   1.876   4.020   2.115 -0.0516  0.3085 -0.5821
 2654SOL    HW1 8870   1.883   4.113   2.095  0.1919  0.9269  1.9964
 2654SOL    HW2 8871   1.966   3.992   2.133 -0.3867  0.2437  1.1356
 2655SOL     OW 8872   6.686   1.476   0.238  0.2946  0.2289  0.0820
 2655SOL    HW1 8873   6.605   1.487   0.188  1.2983 -0.5408 -1.8121
 2655SOL    HW2 8874   6.710   1.565   0.265 -0.9672  0.5019  0.3848
 2656SOL     OW 8875   2.573   6.224   2.661 -0.1001 -0.4540 -0.3475
 2656SOL    HW1 8876   2.660   6.215   2.621 -0.0922 -2.5385  0.0285
 2656SOL    HW2 8877   2.591   6.232   2.755 -0.2476  1.7036 -0.4486
 2657SOL     OW 8878   1.237   5.129   6.023  1.1766  0.2084  0.2487
 2657SOL    HW1 8879   1.169   5.195   6.022  1.2999  0.3308 -0.2458
 2657SOL    HW2 8880   1.190   5.046   6.015  0.7795 -0.0201  3.4602
 2658SOL     OW 8881   0.944   1.536   4.045  0.2175  0.1090 -0.2061
 2658SOL    HW1 8882   0.906   1.546   4.133 -1.0858 -0.6682 -0.6538
 2658SOL    HW2 8883   0.920   1.447   4.018  1.4993 -0.0384 -0.9493
 2659SOL     OW 8884   1.804   5.261   0.511  0.0093 -0.3342  0.4269
 2659SOL    HW1 8885   1.727   5.252   0.454 -0.6613  1.7516  0.9395
 2659SOL    HW2 8886   1.769   5.295   0.593  1.3048 -0.8248  1.2044
 2660SOL     OW 8887   7.717   6.687   7.502 -0.3662  0.4389 -1.1480
 2660SOL    HW1 8888   7.650   6.656   7.441 -2.6124  1.4584  0.6299
 2660SOL    HW2 8889   7.704   6.781   7.506 -0.8544  0.3407  1.4052
 2661SOL     OW 8890   1.253   3.760   5.474  0.1281  0.9003 -0.1607
 2661SOL    HW1 8891   1.240   3.687   5.533  0.7476 -0.1868 -1.3303
 2661SOL    HW2 8892   1.281   3.832   5.531  0.2531  0.0311  0.9127
 2662SOL     OW 8893   6.356   6.550   6.681  0.4542 -0.1077  0.2420
 2662SOL    HW1 8894   6.324   6.468   6.718 -0.9145 -0.0694 -0.7704
 2662SOL    HW2 8895   6.288   6.614   6.702 -0.5351 -0.1406 -2.4265
 2663SOL     OW 8896   3.525   0.197   2.188 -0.5361  0.5245 -0.1235
 2663SOL    HW1 8897   3.556   0.277   2.145  0.3844  1.4196  2.0312
 2663SOL    HW2 8898   3.432   0.213   2.205 -0.7467  0.4348 -1.1752
 2664SOL     OW 8899   5.945   7.629   5.205  0.3220  0.7469  0.6431
 2664SOL    HW1 8900   6.014   7.600   5.145 -0.3936  0.4829 -0.0711
 2664SOL    HW2 8901   5.990   7.640   5.289  0.7666 -1.8645  0.8334
 2665SOL     OW 8902   6.299   4.920   5.379 -0.0189 -0.2332 -0.6337
 2665SOL    HW1 8903   6.248   4.977   5.437  0.5100  1.1170 -1.4494
 2665SOL    HW2 8904   6.390   4.947   5.395  0.7996 -3.8498  2.2189
 2666SOL     OW 8905   3.177   5.917   6.354 -0.3150 -0.1798  0.1669
 2666SOL    HW1 8906   3.102   5.869   6.320 -0.4295 -0.0405  0.2183
 2666SOL    HW2 8907   3.141   5.969   6.426 -0.5210  1.1757 -0.8653
 2667SOL     OW 8908   4.770   7.149   3.062  0.0455 -0.4220 -0.9628
 2667SOL    HW1 8909   4.835   7.195   3.114  0.7736  0.0433 -2.2439
 2667SOL    HW2 8910   4.809   7.141   2.975 -0.7753 -1.9398 -1.2330
 2668SOL     OW 8911   6.952   4.662   0.598 -0.3193  0.0028 -0.3903
 2668SOL    HW1 8912   6.923   4.684   0.510  0.2981  0.1780 -0.5587
 2668SOL    HW2 8913   6.994   4.576   0.589 -0.6172 -0.1631 -0.1915
 2669SOL     OW 8914   5.972   6.279   4.890 -0.3816  0.3458 -0.7579
 2669SOL    HW1 8915   6.053   6.293   4.940  0.7620 -0.2128 -2.3591
 2669SOL    HW2 8916   5.918   6.223   4.946  0.1093  1.1406  0.5523
 2670SOL     OW 8917   7.620   4.676   0.822 -0.2076 -0.1159  0.2981
 2670SOL    HW1 8918   7.541   4.667   0.769  0.1402  2.5326 -0.8586
 2670SOL    HW2 8919   7.603   4.624   0.901 -2.9761  0.1527 -0.0322
 2671SOL     OW 8920   0.072   1.366   6.429  0.1729  0.1765  0.3171
 2671SOL    HW1 8921   0.106   1.343   6.343  0.9478 -0.2402  0.7309
 2671SOL    HW2 8922  -0.019   1.390   6.413  0.4909  0.7177 -0.7076
 2672SOL     OW 8923   6.386   3.681   2.831 -0.0528 -0.6033  0.0740
 2672SOL    HW1 8924   6.303   3.728   2.827  0.3393 -0.0041 -1.8087
 2672SOL    HW2 8925   6.368   3.596   2.791 -0.1011 -1.0639  1.0366
 2673SOL     OW 8926   3.277   5.001   5.738  0.2842 -0.5596 -0.2497
 2673SOL    HW1 8927   3.269   4.948   5.658  0.1739 -0.0562 -0.5757
 2673SOL    HW2 8928   3.252   4.941   5.808 -0.0027 -0.8982 -0.6322
 2674SOL     OW 8929   2.688   0.100   4.391  0.2309  0.7508 -0.4652
 2674SOL    HW1 8930   2.770   0.063   4.422 -1.1698 -0.8182  1.6223
 2674SOL    HW2 8931   2.649   0.031   4.337 -0.3480  0.9372 -0.2974
 2675SOL     OW 8932   1.962   6.971   6.667  0.3130  0.0358 -0.0661
 2675SOL    HW1 8933   1.882   7.000   6.624  0.4098  0.8842  0.2983
 2675SOL    HW2 8934   2.008   7.052   6.689  0.8350 -0.4162  0.5487
 2676SOL     OW 8935   5.502   7.559   7.531 -0.1665  0.7618 -0.2297
 2676SOL    HW1 8936   5.452   7.591   7.456 -1.6475 -1.4899 -0.3032
 2676SOL    HW2 8937   5.536   7.474   7.503 -1.4003 -0.5063  1.8524
 2677SOL     OW 8938   0.509   2.399   4.489 -0.0721  0.0894 -0.2062
 2677SOL    HW1 8939   0.474   2.365   4.571 -2.1306  2.4265  0.0403
 2677SOL    HW2 8940   0.592   2.439   4.513 -0.1325 -0.2037  0.5188
 2678SOL     OW 8941   6.418   4.156   2.908 -0.4791 -0.7094 -0.1113
 2678SOL    HW1 8942   6.459   4.074   2.882 -0.9048 -0.6943 -0.8512
 2678SOL    HW2 8943   6.365   4.133   2.984 -0.4101 -1.0690 -0.1706
 2679SOL     OW 8944   7.200   0.146   2.257  0.4132 -0.1433  0.2249
 2679SOL    HW1 8945   7.285   0.124   2.217 -0.4233  0.3800 -2.0231
 2679SOL    HW2 8946   7.208   0.237   2.282  0.6408 -0.1963  0.3469
 2680SOL     OW 8947   1.586   4.343   3.256  0.3708  0.7647  0.8258
 2680SOL    HW1 8948   1.652   4.363   3.190  0.0358 -0.0231  0.2374
 2680SOL    HW2 8949   1.535   4.424   3.264 -0.2314  0.5691 -0.6484
 2681SOL     OW 8950   6.116   1.619   1.226 -0.3861 -0.0562  0.2997
 2681SOL    HW1 8951   6.046   1.601   1.289 -1.2761 -0.4044 -0.7608
 2681SOL    HW2 8952   6.078   1.597   1.141  1.3472 -1.2010 -0.2243
 2682SOL     OW 8953   3.524   5.021   6.658 -0.4981  0.0547  0.3124
 2682SOL    HW1 8954   3.441   5.020   6.705 -1.3567  2.5580 -0.9655
 2682SOL    HW2 8955   3.551   5.113   6.658  1.6459 -0.5016 -0.4112
 2683SOL     OW 8956   0.841   0.880   1.444  0.3668  0.4096 -0.3918
 2683SOL    HW1 8957   0.933   0.876   1.473  0.4481  2.7064 -0.1464
 2683SOL    HW2 8958   0.795   0.918   1.519 -0.7894 -0.5597 -0.5852
 2684SOL     OW 8959   7.464   4.074   1.831 -0.2354 -0.3005 -0.0259
 2684SOL    HW1 8960   7.415   3.995   1.853  0.3735 -0.7027 -0.0795
 2684SOL    HW2 8961   7.487   4.112   1.916 -2.7029  1.2468  0.0539
 2685SOL     OW 8962   5.086   0.768   7.196 -1.1054 -0.0806  0.3619
 2685SOL    HW1 8963   5.091   0.703   7.266 -0.0666 -1.8828 -1.2689
 2685SOL    HW2 8964   5.138   0.842   7.228 -0.3064 -1.0270  1.3426
 2686SOL     OW 8965   7.437   3.850   7.299  0.1732 -0.3255  0.4942
 2686SOL    HW1 8966   7.510   3.900   7.335 -0.6910  0.4613  1.2180
 2686SOL    HW2 8967   7.377   3.917   7.265 -0.4229 -0.9352  0.3234
 2687SOL     OW 8968   5.572   0.212   5.632  0.4105  0.3398  0.2406
 2687SOL    HW1 8969   5.642   0.223   5.697 -0.0603  1.9447  0.5300
 2687SOL    HW2 8970   5.611   0.157   5.563  2.1478  1.6191  0.1377
 2688SOL     OW 8971   2.650   7.431   6.714 -0.0185 -0.0623 -0.1948
 2688SOL    HW1 8972   2.701   7.351   6.730 -1.0261 -0.3414  1.8512
 2688SOL    HW2 8973   2.710   7.502   6.738  0.1516 -0.2966  0.0855
 2689SOL     OW 8974   2.706   6.227   1.336  0.1410 -0.1622 -0.8836
 2689SOL    HW1 8975   2.669   6.227   1.248 -1.6590  2.6062 -0.2632
 2689SOL    HW2 8976   2.638   6.267   1.391  1.4328 -1.2135  1.6807
 2690SOL     OW 8977   6.352   3.502   1.294 -0.2103 -0.1782  0.2622
 2690SOL    HW1 8978   6.294   3.567   1.254 -1.7617 -2.2583 -1.0623
 2690SOL    HW2 8979   6.294   3.429   1.317  1.6343 -1.6387  0.5111
 2691SOL     OW 8980   2.622   5.421   0.154 -0.6663 -0.1818 -0.3310
 2691SOL    HW1 8981   2.716   5.414   0.142 -0.4167 -1.5146  1.8410
 2691SOL    HW2 8982   2.591   5.330   0.156 -1.8266  0.1995  0.1325
 2692SOL     OW 8983   1.718   4.120   3.296  0.8019 -0.0351 -0.2054
 2692SOL    HW1 8984   1.776   4.150   3.225 -0.7234  1.6770 -0.8038
 2692SOL    HW2 8985   1.657   4.192   3.309  0.3497 -0.7554  2.1558
 2693SOL     OW 8986   6.629   2.804   5.889  0.1920 -0.0127  0.4854
 2693SOL    HW1 8987   6.581   2.838   5.964  0.8033 -0.6471  1.1864
 2693SOL    HW2 8988   6.684   2.734   5.926  2.0765  1.0567 -0.1820
 2694SOL     OW 8989   4.453   3.832   5.477 -0.3308  0.5821  0.1144
 2694SOL    HW1 8990   4.409   3.748   5.465 -1.0636  0.8850  0.6144
 2694SOL    HW2 8991   4.509   3.819   5.553  0.1405  0.3219 -0.2708
 2695SOL     OW 8992   1.039   6.293   1.707 -0.0128 -0.0408  0.1714
 2695SOL    HW1 8993   1.094   6.219   1.733  0.3080 -0.1331 -0.7656
 2695SOL    HW2 8994   1.083   6.331   1.631 -1.2884 -0.1987 -0.6766
 2696SOL     OW 8995   3.780   4.571   2.034  0.8660 -0.0741  0.0647
 2696SOL    HW1 8996   3.729   4.619   1.969 -0.3981 -0.5682  0.6608
 2696SOL    HW2 8997   3.830   4.506   1.983  1.1633  0.6323 -0.5556
 2697SOL     OW 8998   5.672   6.463   6.013  0.5039 -0.0707 -0.2681
 2697SOL    HW1 8999   5.668   6.503   5.925  1.9584  0.3004 -0.1811
 2697SOL    HW2 9000   5.742   6.398   6.007  0.5747 -0.0813  0.6058
 2698SOL     OW 9001   5.493   6.987   5.142 -0.0609 -0.1702 -0.3778
 2698SOL    HW1 9002   5.557   6.922   5.115 -2.0986 -1.7217 -1.7640
 2698SOL    HW2 9003   5.477   6.969   5.235 -0.0693 -1.1938 -0.5733
 2699SOL     OW 9004   3.793   1.259   4.991 -0.1221 -0.2205 -0.1527
 2699SOL    HW1 9005   3.756   1.254   4.903  1.6760  0.6895 -1.0116
 2699SOL    HW2 9006   3.732   1.315   5.039  0.0104  1.1668 -1.4948
 2700SOL     OW 9007   2.584   5.864   3.220 -0.0554  0.2332  0.0232
 2700SOL    HW1 9008   2.578   5.813   3.301  0.6051 -0.2170 -0.2008
 2700SOL    HW2 9009   2.533   5.814   3.156 -0.8444  0.7541  0.2359
 2701SOL     OW 9010   1.047   2.830   2.957  0.2476  0.1956  0.5107
 2701SOL    HW1 9011   1.085   2.917   2.969  1.0239 -0.0500 -0.0690
 2701SOL    HW2 9012   1.063   2.786   3.041  0.3063  0.4472  0.6325
 2702SOL     OW 9013   6.631   1.296   5.922  0.1349  0.2314 -0.1876
 2702SOL    HW1 9014   6.571   1.253   5.983 -0.3116 -0.3814 -1.0416
 2702SOL    HW2 9015   6.702   1.329   5.978 -1.4508  1.8738  0.9920
 2703SOL     OW 9016   6.944   4.737   7.355 -0.5048  0.3127 -0.1682
 2703SOL    HW1 9017   6.913   4.824   7.329 -0.8647  0.1876 -0.1658
 2703SOL    HW2 9018   6.935   4.736   7.450 -1.4642 -0.0865 -0.2552
 2704SOL     OW 9019   6.097   2.974   3.247 -0.3747 -0.3718  0.0778
 2704SOL    HW1 9020   6.124   2.898   3.299  0.4411 -0.5829 -0.6369
 2704SOL    HW2 9021   6.005   2.957   3.226 -0.3758 -0.8556  0.4430
 2705SOL     OW 9022   3.757   3.126   6.318  0.5886 -0.1494 -0.0397
 2705SOL    HW1 9023   3.830   3.112   6.378  0.3925  1.1635  0.5247
 2705SOL    HW2 9024   3.799   3.133   6.232  1.1785  0.8697  0.3121
 2706SOL     OW 9025   2.435   2.916   5.391 -0.2950 -0.0698  0.1603
 2706SOL    HW1 9026   2.406   2.831   5.425 -0.4877 -0.5344 -1.1041
 2706SOL    HW2 9027   2.361   2.949   5.342  0.9408 -0.9059 -2.4447
 2707SOL     OW 9028   1.806   5.839   0.055  0.4990  0.0667  0.0955
 2707SOL    HW1 9029   1.728   5.787   0.039 -0.3807  1.0865  0.9418
 2707SOL    HW2 9030   1.776   5.929   0.054  1.8936  0.5586 -0.7799
 2708SOL     OW 9031   0.701   1.796   4.090  0.2621  0.4086 -0.4709
 2708SOL    HW1 9032   0.733   1.713   4.124 -0.5337 -0.0012 -0.7014
 2708SOL    HW2 9033   0.605   1.789   4.094  0.1784  1.8327  0.7538
 2709SOL     OW 9034   2.514   2.933   6.713 -0.4385  0.7037  0.5080
 2709SOL    HW1 9035   2.431   2.979   6.701  0.2338  1.6597 -0.7485
 2709SOL    HW2 9036   2.579   2.988   6.667  0.0840 -2.5296 -3.0907
 2710SOL     OW 9037   3.231   1.983   4.263 -0.1945 -0.0507 -0.4470
 2710SOL    HW1 9038   3.187   1.930   4.197  0.5611  0.0740 -1.0691
 2710SOL    HW2 9039   3.160   2.019   4.317 -0.8167 -0.2408 -1.1256
 2711SOL     OW 9040   6.087   1.027   5.064 -0.0376  0.2022 -0.2967
 2711SOL    HW1 9041   6.154   0.961   5.050 -2.1419 -1.7370 -1.8764
 2711SOL    HW2 9042   6.122   1.107   5.024  1.6351 -0.5087 -0.3091
 2712SOL     OW 9043   6.688   4.610   1.735  0.0178  0.4255 -0.2869
 2712SOL    HW1 9044   6.607   4.560   1.739 -0.8192  1.8105  1.9949
 2712SOL    HW2 9045   6.693   4.655   1.819  3.2455  0.3182 -0.2968
 2713SOL     OW 9046   7.094   0.505   6.817 -0.1464  0.1426 -0.0101
 2713SOL    HW1 9047   7.030   0.541   6.878 -2.0056 -2.2464 -0.4329
 2713SOL    HW2 9048   7.061   0.418   6.795  3.0515 -1.0819 -0.5609
 2714SOL     OW 9049   2.594   6.221   5.980 -0.1973  0.0379 -0.6601
 2714SOL    HW1 9050   2.556   6.285   5.919 -1.1745 -0.5782 -0.7138
 2714SOL    HW2 9051   2.688   6.222   5.960 -0.2433  1.2030 -0.8908
 2715SOL     OW 9052   0.511   5.735   2.034 -0.0762 -0.0035  0.0790
 2715SOL    HW1 9053   0.498   5.717   1.941 -1.8528  1.9132 -0.1200
 2715SOL    HW2 9054   0.559   5.818   2.036  1.9474 -1.1290  0.9147
 2716SOL     OW 9055   1.968   2.022   4.441  0.0070  0.4132  0.1065
 2716SOL    HW1 9056   1.892   2.069   4.474 -1.4979  0.1447 -2.6849
 2716SOL    HW2 9057   1.948   2.006   4.349  3.0073 -0.6114 -0.4744
 2717SOL     OW 9058   3.754   2.502   0.750  0.4026 -0.2181  0.5217
 2717SOL    HW1 9059   3.691   2.552   0.698  0.0519 -0.1687  0.9889
 2717SOL    HW2 9060   3.746   2.412   0.719 -1.1801 -0.5552  1.7733
 2718SOL     OW 9061   6.466   2.882   3.720  0.1174 -0.0023  0.2024
 2718SOL    HW1 9062   6.396   2.868   3.784  0.8420 -1.4635  0.7075
 2718SOL    HW2 9063   6.527   2.942   3.763 -0.4008  0.6275  0.0737
 2719SOL     OW 9064   4.322   7.492   1.798 -0.3735  0.3319  0.1637
 2719SOL    HW1 9065   4.409   7.527   1.818 -0.3536 -0.6634  2.0572
 2719SOL    HW2 9066   4.286   7.553   1.733  1.6507  0.8494 -0.5485
 2720SOL     OW 9067   2.273   7.661   5.251 -0.4239 -0.4518  0.1073
 2720SOL    HW1 9068   2.338   7.591   5.244 -0.6352 -0.6867  0.4513
 2720SOL    HW2 9069   2.223   7.656   5.170 -1.7645 -2.0417  0.9748
 2721SOL     OW 9070   4.968   1.675   3.461  0.0829  0.4561 -0.0600
 2721SOL    HW1 9071   5.053   1.708   3.432 -0.0550  0.0745 -0.9218
 2721SOL    HW2 9072   4.908   1.749   3.449 -0.0783  0.1467 -1.2891
 2722SOL     OW 9073   4.122   2.282   5.843 -0.6893 -0.0041  0.0135
 2722SOL    HW1 9074   4.130   2.201   5.893 -0.1132 -1.1634 -1.8586
 2722SOL    HW2 9075   4.135   2.256   5.752 -2.2084  1.9406 -0.8346
 2723SOL     OW 9076   2.462   2.153   2.005  0.4445  0.1620  0.3854
 2723SOL    HW1 9077   2.485   2.142   1.913 -3.3771 -1.5420 -0.5921
 2723SOL    HW2 9078   2.504   2.079   2.049 -1.4141 -1.8699 -0.9879
 2724SOL     OW 9079   4.069   1.399   1.683 -0.1723 -0.5129 -0.5040
 2724SOL    HW1 9080   4.066   1.304   1.684  0.6661 -0.5565 -1.0483
 2724SOL    HW2 9081   4.126   1.423   1.756 -0.3523 -0.4305 -0.3900
 2725SOL     OW 9082   2.537   5.969   0.355 -0.1775  0.6008  0.1920
 2725SOL    HW1 9083   2.557   5.953   0.447  0.2647 -2.1964 -0.3068
 2725SOL    HW2 9084   2.490   5.891   0.327  2.4277 -0.1241 -2.7039
 2726SOL     OW 9085   7.195   7.458   1.042 -0.2011 -0.3026  0.3378
 2726SOL    HW1 9086   7.142   7.403   0.985  0.3437 -0.1127 -0.3638
 2726SOL    HW2 9087   7.179   7.547   1.012  1.6350 -0.3210 -0.9128
 2727SOL     OW 9088   1.578   3.964   3.555 -0.4471 -0.1024  0.2614
 2727SOL    HW1 9089   1.645   4.027   3.527 -0.4720  0.0974  0.6526
 2727SOL    HW2 9090   1.521   3.954   3.478 -0.4579  0.3745  0.2062
 2728SOL     OW 9091   2.067   0.129   2.947 -0.1777  0.6029 -0.2222
 2728SOL    HW1 9092   2.024   0.127   2.861 -0.1285  2.4712 -0.3371
 2728SOL    HW2 9093   2.036   0.051   2.991 -1.3312  0.3458 -1.4182
 2729SOL     OW 9094   2.686   0.052   0.270 -0.3089  0.0299 -0.1360
 2729SOL    HW1 9095   2.737   0.012   0.340 -0.7872  0.4357  0.4601
 2729SOL    HW2 9096   2.602   0.007   0.273  0.1471 -0.9825 -1.4394
 2730SOL     OW 9097   6.950   3.288   4.733  0.4645 -0.3445 -1.1377
 2730SOL    HW1 9098   7.005   3.287   4.812  0.6260 -0.4150 -1.2502
 2730SOL    HW2 9099   6.972   3.371   4.690  0.3429 -0.2851 -1.0859
 2731SOL     OW 9100   5.946   0.046   4.150  0.3854  0.0479 -0.0428
 2731SOL    HW1 9101   5.963   0.078   4.061 -0.6825 -0.9329 -0.6251
 2731SOL    HW2 9102   5.987   0.111   4.207  2.0563  0.1152 -1.2578
 2732SOL     OW 9103   5.874   6.210   0.177  0.7067  0.0711 -0.2209
 2732SOL    HW1 9104   5.795   6.156   0.168  1.0549 -0.3764 -0.7240
 2732SOL    HW2 9105   5.890   6.242   0.088  1.4182 -0.3205 -0.2388
 2733SOL     OW 9106   3.624   1.286   0.933  0.7660  0.1457 -0.5423
 2733SOL    HW1 9107   3.710   1.271   0.894  0.0682 -0.1802 -2.0176
 2733SOL    HW2 9108   3.576   1.336   0.867  0.4356  2.1028  1.0679
 2734SOL     OW 9109   0.215   0.021   1.364  0.3820  0.5066  0.6233
 2734SOL    HW1 9110   0.310   0.036   1.362  0.7281 -1.4728 -0.2772
 2734SOL    HW2 9111   0.205  -0.062   1.410 -0.5963 -1.0196 -2.0960
 2735SOL     OW 9112   3.280   2.987   1.741 -0.0827 -0.5743 -0.6056
 2735SOL    HW1 9113   3.225   2.977   1.819  0.4544 -1.3173 -0.3111
 2735SOL    HW2 9114   3.301   2.897   1.715  0.2084 -0.3171 -1.2737
 2736SOL     OW 9115   0.198   2.332   5.793 -0.4801 -0.0180 -0.0989
 2736SOL    HW1 9116   0.208   2.302   5.703 -0.0994 -0.6586  0.1541
 2736SOL    HW2 9117   0.280   2.378   5.813 -0.7691  0.5708 -0.2439
 2737SOL     OW 9118   5.947   3.006   5.234 -0.1008 -0.4427 -0.2217
 2737SOL    HW1 9119   5.963   2.952   5.157  0.1659  1.0487 -1.2517
 2737SOL    HW2 9120   5.864   3.050   5.215 -0.1553 -0.2378  0.4644
 2738SOL     OW 9121   0.194   3.067   6.117 -0.0890  0.0116 -0.6864
 2738SOL    HW1 9122   0.131   3.083   6.187  1.1771  3.9853 -0.2293
 2738SOL    HW2 9123   0.245   2.993   6.148 -2.1129 -0.9528  0.6223
 2739SOL     OW 9124   3.842   5.318   4.214  0.0872 -0.4616  0.3875
 2739SOL    HW1 9125   3.860   5.397   4.163 -1.3237 -1.0637 -1.1407
 2739SOL    HW2 9126   3.923   5.302   4.263  0.6636  1.4895  0.1747
 2740SOL     OW 9127   1.005   3.236   1.080  0.1621 -0.0520 -0.3301
 2740SOL    HW1 9128   1.053   3.305   1.125  1.5912 -0.7138 -0.7751
 2740SOL    HW2 9129   0.916   3.270   1.072  0.3305  0.8867  1.2452
 2741SOL     OW 9130   7.386   0.627   4.103  0.6571  0.1016 -0.4629
 2741SOL    HW1 9131   7.332   0.646   4.026  0.0404 -0.0219 -0.0705
 2741SOL    HW2 9132   7.336   0.662   4.177  0.0215 -1.9689  0.1557
 2742SOL     OW 9133   0.014   4.466   7.036  0.0300 -0.1276  0.2043
 2742SOL    HW1 9134   0.102   4.431   7.028  0.0427 -0.0518  0.0019
 2742SOL    HW2 9135   0.018   4.524   7.112 -0.3658 -1.6802  1.4723
 2743SOL     OW 9136   4.901   6.398   3.374 -0.1048 -0.1355  0.4548
 2743SOL    HW1 9137   4.832   6.337   3.348 -1.4310  1.2454  0.6069
 2743SOL    HW2 9138   4.874   6.482   3.337  2.1241  0.2238 -0.4991
 2744SOL     OW 9139   5.129   1.159   0.691  0.1319 -0.0108 -0.4366
 2744SOL    HW1 9140   5.148   1.145   0.599  0.5978  2.4267 -0.7954
 2744SOL    HW2 9141   5.035   1.178   0.694  0.0902 -0.2231 -0.3881
 2745SOL     OW 9142   1.164   1.847   4.057  0.0219 -0.0116 -0.1486
 2745SOL    HW1 9143   1.219   1.916   4.096 -0.3421 -0.3295  0.9879
 2745SOL    HW2 9144   1.226   1.781   4.026  0.3323 -0.8981  2.1200
 2746SOL     OW 9145   6.553   1.387   2.943 -0.3854  0.3516 -0.0601
 2746SOL    HW1 9146   6.624   1.331   2.976  0.6284  1.6485  0.0340
 2746SOL    HW2 9147   6.568   1.392   2.849 -0.6652  0.2074 -0.1124
 2747SOL     OW 9148   2.386   6.708   7.420 -0.1900  0.0170 -0.7756
 2747SOL    HW1 9149   2.394   6.674   7.509 -0.9302  1.2135 -0.2270
 2747SOL    HW2 9150   2.477   6.721   7.392  0.1643  2.9740  1.1911
 2748SOL     OW 9151   3.246   3.214   7.025 -0.4111  0.3351 -0.1941
 2748SOL    HW1 9152   3.224   3.262   6.945 -2.2163 -1.7349 -1.0254
 2748SOL    HW2 9153   3.174   3.232   7.085 -1.0664 -1.1793 -0.4809
 2749SOL     OW 9154   3.724   0.098   1.266  0.0068  0.1679 -0.0320
 2749SOL    HW1 9155   3.774   0.099   1.184 -1.9839  2.4579 -1.3778
 2749SOL    HW2 9156   3.643   0.053   1.243 -0.7146  1.1387  0.5675
 2750SOL     OW 9157   1.619   5.184   0.284 -0.0926 -0.2114  0.0041
 2750SOL    HW1 9158   1.591   5.093   0.272 -0.3618 -0.2459  0.8299
 2750SOL    HW2 9159   1.546   5.237   0.252 -0.9704 -0.3012  1.7126
 2751SOL     OW 9160   0.462   1.789   2.569  0.2473 -0.7874  0.0823
 2751SOL    HW1 9161   0.520   1.848   2.520  3.2757 -2.5471  1.3058
 2751SOL    HW2 9162   0.476   1.703   2.530 -0.1928 -1.5739  1.5754
 2752SOL     OW 9163   6.481   3.639   4.018 -0.1203  0.1087  0.3221
 2752SOL    HW1 9164   6.531   3.707   4.064  0.9654  0.4089 -1.2258
 2752SOL    HW2 9165   6.408   3.687   3.979 -0.8106 -0.0768  1.3541
 2753SOL     OW 9166   1.904   3.390   4.468 -0.3920  0.1575  0.0572
 2753SOL    HW1 9167   1.847   3.327   4.511  0.7632 -0.4252  0.8051
 2753SOL    HW2 9168   1.982   3.340   4.445  0.8323  1.4154  1.2475
 2754SOL     OW 9169   2.611   2.519   6.303 -0.2868  0.3513  0.2880
 2754SOL    HW1 9170   2.554   2.485   6.234 -0.8422  1.6666  0.0797
 2754SOL    HW2 9171   2.551   2.554   6.369  0.2574 -0.0921  1.0379
 2755SOL     OW 9172   4.218   0.013   4.995 -0.3914  0.5417  0.0245
 2755SOL    HW1 9173   4.268  -0.063   5.025  0.3628  1.2861  0.6949
 2755SOL    HW2 9174   4.203  -0.003   4.902  1.4676  0.4719 -0.3041
 2756SOL     OW 9175   3.268   3.433   2.737  0.4217 -0.6993  0.4387
 2756SOL    HW1 9176   3.253   3.527   2.747 -1.8850 -0.9209 -0.2761
 2756SOL    HW2 9177   3.194   3.392   2.782 -0.9817 -2.0153 -2.7687
 2757SOL     OW 9178   4.830   4.024   2.382  0.4177 -0.4096  0.3632
 2757SOL    HW1 9179   4.807   3.932   2.399 -1.7030  0.0193  0.0324
 2757SOL    HW2 9180   4.756   4.059   2.333  1.1195  1.5416  0.6055
 2758SOL     OW 9181   5.336   4.373   7.684 -0.0891 -0.6576 -0.2588
 2758SOL    HW1 9182   5.383   4.348   7.764 -0.2317 -0.3270 -0.0707
 2758SOL    HW2 9183   5.369   4.461   7.663 -1.9469  0.4036  0.9240
 2759SOL     OW 9184   6.151   0.850   0.253 -0.3064  0.2491 -0.0425
 2759SOL    HW1 9185   6.105   0.785   0.199 -0.0789  0.1287 -0.0903
 2759SOL    HW2 9186   6.214   0.890   0.194  0.2876 -0.2295  0.2551
 2760SOL     OW 9187   4.209   5.748   2.905  0.3328 -0.0316 -0.4971
 2760SOL    HW1 9188   4.123   5.758   2.945  0.2990  2.9093 -1.0564
 2760SOL    HW2 9189   4.264   5.712   2.975 -0.7952  0.4631  0.6867
 2761SOL     OW 9190   2.159   0.569   2.292 -0.5001 -0.0161  0.3631
 2761SOL    HW1 9191   2.220   0.578   2.219 -2.2997 -0.8783 -1.3418
 2761SOL    HW2 9192   2.085   0.624   2.267 -1.4676 -0.9209  1.1841
 2762SOL     OW 9193   6.236   5.584   5.429 -0.4283  0.3492  0.0877
 2762SOL    HW1 9194   6.254   5.513   5.491 -2.9538 -0.3304  0.1657
 2762SOL    HW2 9195   6.199   5.539   5.352 -1.5311  1.5062 -0.0960
 2763SOL     OW 9196   3.589   1.698   5.939 -0.5192 -0.2341  0.1601
 2763SOL    HW1 9197   3.662   1.748   5.975 -0.7114  0.1810 -0.0139
 2763SOL    HW2 9198   3.601   1.610   5.973 -0.6914  0.1451  1.2452
 2764SOL     OW 9199   6.897   5.738   3.923 -0.8071  0.0793 -0.2270
 2764SOL    HW1 9200   6.824   5.748   3.984  0.5607  1.3364  1.3019
 2764SOL    HW2 9201   6.889   5.814   3.864 -0.8471  0.0978 -0.1982
 2765SOL     OW 9202   6.985   5.463   2.282 -0.1031 -0.3015 -0.2846
 2765SOL    HW1 9203   6.904   5.472   2.332  0.4767  1.3415  0.4473
 2765SOL    HW2 9204   7.040   5.405   2.335 -0.5037 -0.8018 -0.4089
 2766SOL     OW 9205   6.807   6.767   6.163  0.5538 -0.1401 -0.1927
 2766SOL    HW1 9206   6.766   6.683   6.180  1.0976 -0.2205  0.7706
 2766SOL    HW2 9207   6.820   6.806   6.249  1.5744  0.3176 -0.5369
 2767SOL     OW 9208   5.026   2.173   4.351  0.7137  0.0383  0.5032
 2767SOL    HW1 9209   5.034   2.080   4.328 -0.1790 -0.0742  0.6442
 2767SOL    HW2 9210   4.976   2.174   4.433  0.2605  0.6744  0.2268
 2768SOL     OW 9211   1.817   3.727   3.538  0.4153 -0.1336 -0.0021
 2768SOL    HW1 9212   1.802   3.820   3.521 -1.3984 -0.5889 -1.2800
 2768SOL    HW2 9213   1.820   3.721   3.634  0.0179  1.1710  0.1240
 2769SOL     OW 9214   1.074   4.764   6.681 -0.5655 -0.4987  0.1177
 2769SOL    HW1 9215   1.165   4.791   6.694 -0.4572 -1.0743  0.6119
 2769SOL    HW2 9216   1.078   4.691   6.621 -0.7397 -0.2892 -0.1545
 2770SOL     OW 9217   2.034   7.449   7.491  0.0315  0.4255 -0.1708
 2770SOL    HW1 9218   2.109   7.397   7.460 -2.1929 -1.9248 -2.0729
 2770SOL    HW2 9219   2.026   7.425   7.583 -0.8866 -2.8453 -0.9639
 2771SOL     OW 9220   0.560   1.345   0.265  0.1528 -1.1421 -0.0794
 2771SOL    HW1 9221   0.536   1.409   0.198 -0.6031 -1.9007 -0.5601
 2771SOL    HW2 9222   0.485   1.286   0.269  0.8658 -2.0464  0.2915
 2772SOL     OW 9223   3.574   4.232   2.133  0.3033  0.4176  0.1647
 2772SOL    HW1 9224   3.565   4.153   2.188 -2.7312  0.1466 -0.5769
 2772SOL    HW2 9225   3.590   4.198   2.045  0.1209  0.6651  0.0353
 2773SOL     OW 9226   4.539   0.941   6.708  0.2960  0.0938  0.1572
 2773SOL    HW1 9227   4.486   1.021   6.708  0.4303  0.2190 -1.4185
 2773SOL    HW2 9228   4.585   0.943   6.792 -1.3599  0.5239  1.1049
 2774SOL     OW 9229   0.764   4.137   3.874 -0.2146  0.4324 -0.8587
 2774SOL    HW1 9230   0.745   4.210   3.814  1.1525  1.1349 -0.4773
 2774SOL    HW2 9231   0.854   4.113   3.854  0.6980  1.4562  1.6794
 2775SOL     OW 9232   0.829   3.044   2.502 -0.0168 -0.5133  0.1556
 2775SOL    HW1 9233   0.849   3.129   2.463  0.8461 -1.7556 -2.3254
 2775SOL    HW2 9234   0.883   3.041   2.581 -1.4304  1.9107  1.3052
 2776SOL     OW 9235   6.130   3.790   7.039 -0.6944  0.6147  0.5677
 2776SOL    HW1 9236   6.204   3.831   7.083 -0.8180  0.4418  0.9378
 2776SOL    HW2 9237   6.064   3.778   7.107 -0.6641 -0.2013  0.4689
 2777SOL     OW 9238   7.206   0.936   4.083 -0.0544  0.4632 -0.4060
 2777SOL    HW1 9239   7.192   0.967   3.994 -1.9037  0.8787 -0.0116
 2777SOL    HW2 9240   7.194   1.014   4.138  1.5720  0.3265  0.2040
 2778SOL     OW 9241   4.102   7.059   2.522 -0.2873 -0.0486  0.4211
 2778SOL    HW1 9242   4.014   7.056   2.483  0.1797 -0.1208 -0.6778
 2778SOL    HW2 9243   4.087   7.053   2.616 -1.5566  1.5620  0.3735
 2779SOL     OW 9244   2.527   5.019   7.082  0.0917  0.3308 -0.3569
 2779SOL    HW1 9245   2.494   5.090   7.028  0.0974  0.6107  0.0046
 2779SOL    HW2 9246   2.467   5.015   7.156  0.5000  0.4312 -0.0158
 2780SOL     OW 9247   1.701   0.528   1.482 -0.0413 -0.4442  0.2851
 2780SOL    HW1 9248   1.673   0.472   1.555 -0.0895 -0.3882  0.3092
 2780SOL    HW2 9249   1.647   0.500   1.409  1.9519 -2.5305 -0.5311
 2781SOL     OW 9250   3.508   1.406   3.022 -0.4396 -0.5819 -0.2790
 2781SOL    HW1 9251   3.422   1.412   3.064 -1.0023 -0.5156 -1.3977
 2781SOL    HW2 9252   3.505   1.323   2.973 -0.6601  0.3899 -1.9760
 2782SOL     OW 9253   5.722   3.694   3.559  0.3555  0.2866 -0.0444
 2782SOL    HW1 9254   5.735   3.604   3.529  0.2865  0.1164  0.4229
 2782SOL    HW2 9255   5.716   3.746   3.479 -2.2927 -0.4688 -0.4441
 2783SOL     OW 9256   6.014   6.494   1.380  0.0032  0.2702  0.0749
 2783SOL    HW1 9257   6.067   6.568   1.410 -0.5952  0.3471  0.9830
 2783SOL    HW2 9258   6.018   6.430   1.451  1.6870 -1.2336 -1.2728
 2784SOL     OW 9259   0.524   4.486   6.731  0.5354 -0.0574  0.1014
 2784SOL    HW1 9260   0.441   4.465   6.774 -0.9108  1.7720 -1.5857
 2784SOL    HW2 9261   0.527   4.581   6.729  1.5527 -0.0723 -1.8657
 2785SOL     OW 9262   3.233   2.565   5.268 -0.1149  0.4452 -0.1432
 2785SOL    HW1 9263   3.214   2.655   5.243 -1.9541  1.2703  3.4788
 2785SOL    HW2 9264   3.317   2.570   5.314 -0.6909  0.5717  0.9345
 2786SOL     OW 9265   5.332   0.320   5.670 -0.3941 -0.1123 -0.3603
 2786SOL    HW1 9266   5.405   0.273   5.630  0.7877  1.3430 -0.0098
 2786SOL    HW2 9267   5.284   0.357   5.597 -0.3116 -0.4133 -0.5691
 2787SOL     OW 9268   2.821   2.797   6.634 -0.1409  0.1976  0.0024
 2787SOL    HW1 9269   2.839   2.813   6.726  1.2750 -0.1960 -0.1816
 2787SOL    HW2 9270   2.772   2.715   6.633 -0.7287  0.5325  0.4278
 2788SOL     OW 9271   4.874   7.363   5.615  0.1160 -0.7671  0.2895
 2788SOL    HW1 9272   4.935   7.384   5.684 -0.4804  0.2977  0.5111
 2788SOL    HW2 9273   4.788   7.367   5.657 -0.2774  0.2425 -0.5779
 2789SOL     OW 9274   2.988   5.664   7.604 -0.4633 -0.1280 -0.0931
 2789SOL    HW1 9275   2.995   5.571   7.583 -0.2250 -0.0637 -0.2955
 2789SOL    HW2 9276   2.925   5.699   7.541 -1.7638 -0.4602  0.9599
 2790SOL     OW 9277   3.946   5.107   6.749 -0.0282  0.2294 -0.4345
 2790SOL    HW1 9278   3.876   5.130   6.688  0.0817  1.0373 -0.2627
 2790SOL    HW2 9279   4.014   5.172   6.734 -0.2194  0.7719  0.9176
 2791SOL     OW 9280   0.288   2.397   6.796 -0.0266 -0.0399 -0.2380
 2791SOL    HW1 9281   0.222   2.421   6.861 -1.6373 -0.1750 -1.7303
 2791SOL    HW2 9282   0.362   2.365   6.847 -0.8468  0.7396  1.5368
 2792SOL     OW 9283   2.689   1.155   2.037  0.0361 -0.6100 -0.5022
 2792SOL    HW1 9284   2.743   1.137   2.114  0.1261 -0.1512 -0.4557
 2792SOL    HW2 9285   2.661   1.246   2.048  1.3090 -0.0226 -1.7574
 2793SOL     OW 9286   1.716   7.123   6.960  0.0045  0.2410 -0.3653
 2793SOL    HW1 9287   1.807   7.093   6.961  0.2976  1.0695  1.2082
 2793SOL    HW2 9288   1.678   7.083   6.881  1.4516 -0.9196 -0.5174
 2794SOL     OW 9289   4.093   6.164   3.680  0.1968 -0.4092 -0.0342
 2794SOL    HW1 9290   4.157   6.131   3.744  0.1501  0.7509  0.6323
 2794SOL    HW2 9291   4.138   6.236   3.636 -0.9573  1.1515  1.1922
 2795SOL     OW 9292   0.390   4.141   0.407 -0.2611 -0.0462  0.1959
 2795SOL    HW1 9293   0.355   4.089   0.479  0.7366  1.2231  1.6831
 2795SOL    HW2 9294   0.334   4.219   0.405 -0.7971 -0.4386 -0.9890
 2796SOL     OW 9295   5.295   6.981   4.921  0.0288 -0.5456 -1.1028
 2796SOL    HW1 9296   5.278   6.887   4.915  1.2728 -0.8824  0.0210
 2796SOL    HW2 9297   5.346   6.991   5.002 -0.4004  1.1486 -1.0009
 2797SOL     OW 9298   4.391   2.725   2.300 -0.7149  0.4266  0.3696
 2797SOL    HW1 9299   4.317   2.784   2.310 -1.0066  0.0081  0.7104
 2797SOL    HW2 9300   4.463   2.781   2.273 -1.0237  0.9183  0.5590
 2798SOL     OW 9301   5.062   0.605   3.179 -0.1863 -0.4818  0.0583
 2798SOL    HW1 9302   5.155   0.625   3.189 -0.7085  2.7426 -0.4182
 2798SOL    HW2 9303   5.025   0.617   3.266 -0.2501 -1.4947  0.1887
 2799SOL     OW 9304   1.259   0.362   6.886  0.1388 -0.0745  0.1943
 2799SOL    HW1 9305   1.175   0.380   6.844 -0.6839  0.2487  1.8942
 2799SOL    HW2 9306   1.318   0.428   6.851 -0.5820  0.3680 -0.2258
 2800SOL     OW 9307   0.244   4.494   7.416 -0.2973 -0.4216  0.0610
 2800SOL    HW1 9308   0.269   4.557   7.484  1.0368  0.5829 -1.3006
 2800SOL    HW2 9309   0.182   4.541   7.361 -0.0393 -0.6214 -0.4069
 2801SOL     OW 9310   5.961   1.002   6.697 -0.5875 -0.2355  0.2814
 2801SOL    HW1 9311   5.948   0.967   6.609  3.1512  0.6976 -0.8330
 2801SOL    HW2 9312   5.977   1.095   6.683  2.2967 -0.4386  1.5769
 2802SOL     OW 9313   0.984   4.429   7.302 -0.2849  0.4116  0.0390
 2802SOL    HW1 9314   0.986   4.386   7.387  1.0507  2.4726  1.1432
 2802SOL    HW2 9315   1.066   4.403   7.260 -0.0621  0.8742  0.1831
 2803SOL     OW 9316   2.662   6.677   4.309  0.0973  0.1047 -0.4825
 2803SOL    HW1 9317   2.662   6.582   4.301 -1.5368 -0.0119  0.4478
 2803SOL    HW2 9318   2.696   6.709   4.225 -1.4078 -1.2700 -1.6862
 2804SOL     OW 9319   1.725   1.205   3.989  0.4091  0.2429 -0.2025
 2804SOL    HW1 9320   1.632   1.182   3.986  0.2050  1.1072 -1.3785
 2804SOL    HW2 9321   1.770   1.122   4.003 -0.5537 -0.1519  0.6311
 2805SOL     OW 9322   2.431   6.007   4.223 -0.1970  0.0911 -0.4972
 2805SOL    HW1 9323   2.401   5.955   4.297 -0.6057  1.2435  0.1769
 2805SOL    HW2 9324   2.515   6.043   4.252 -0.4160  0.6448 -0.5329
 2806SOL     OW 9325   6.465   0.822   3.528 -0.2997  0.0100  0.0989
 2806SOL    HW1 9326   6.548   0.832   3.574 -0.1393 -1.1782  0.1057
 2806SOL    HW2 9327   6.418   0.904   3.543  1.6563  1.5263 -1.5581
 2807SOL     OW 9328   0.624   4.874   1.901 -0.5582  0.2431 -0.8785
 2807SOL    HW1 9329   0.615   4.779   1.888  1.9102 -0.3044  0.8802
 2807SOL    HW2 9330   0.533   4.906   1.900 -1.5905 -2.3567  0.0921
 2808SOL     OW 9331   6.914   3.392   3.431  0.2176  0.2816  0.0963
 2808SOL    HW1 9332   6.856   3.361   3.501  0.5599  1.0611  0.7437
 2808SOL    HW2 9333   7.002   3.363   3.458  0.3748  0.7391  0.0920
 2809SOL     OW 9334   6.982   6.127   2.570 -0.2487 -0.0971 -0.3737
 2809SOL    HW1 9335   6.909   6.065   2.580  0.0270 -0.2953  0.4594
 2809SOL    HW2 9336   7.027   6.125   2.654 -0.4450  1.5246 -0.2008
 2810SOL     OW 9337   4.173   1.273   2.636  0.0112 -0.3618 -0.4007
 2810SOL    HW1 9338   4.234   1.211   2.676  0.5550  0.9500  0.8778
 2810SOL    HW2 9339   4.087   1.248   2.672 -0.1780 -1.8694 -1.7860
 2811SOL     OW 9340   1.828   5.191   6.854 -0.3117 -0.2146 -0.2975
 2811SOL    HW1 9341   1.738   5.189   6.886 -0.4774 -0.3232 -0.7767
 2811SOL    HW2 9342   1.879   5.151   6.925 -0.7765 -1.1523 -0.4806
 2812SOL     OW 9343   0.746   5.704   5.319 -0.3630  0.0712 -0.4087
 2812SOL    HW1 9344   0.709   5.622   5.352  1.0954 -0.0558  1.0303
 2812SOL    HW2 9345   0.832   5.680   5.285 -0.5703  0.7530 -1.4510
 2813SOL     OW 9346   6.184   5.441   2.550 -0.5640  0.0161 -0.1719
 2813SOL    HW1 9347   6.204   5.353   2.582  2.0349 -0.9039 -3.6581
 2813SOL    HW2 9348   6.264   5.491   2.566 -0.5590  0.5537 -1.7219
 2814SOL     OW 9349   6.279   7.224   4.464  0.3678  0.0583  0.0749
 2814SOL    HW1 9350   6.232   7.196   4.542  0.8507  1.4094  0.8802
 2814SOL    HW2 9351   6.253   7.161   4.396 -1.0108 -0.4085  1.0005
 2815SOL     OW 9352   2.481   6.438   5.096  0.2991  0.1892  0.5725
 2815SOL    HW1 9353   2.448   6.351   5.073 -1.1007  1.0944 -1.0220
 2815SOL    HW2 9354   2.570   6.422   5.127  0.1231 -1.7973  0.2019
 2816SOL     OW 9355   1.969   3.554   5.489 -0.2761 -0.1210 -0.2988
 2816SOL    HW1 9356   2.020   3.627   5.523 -0.6391 -0.0930  0.1922
 2816SOL    HW2 9357   1.961   3.572   5.395  3.0002 -1.5400 -1.0102
 2817SOL     OW 9358   0.561   3.654   6.720  0.4682 -0.5312  0.5792
 2817SOL    HW1 9359   0.582   3.732   6.772 -0.2326  0.8706 -1.1306
 2817SOL    HW2 9360   0.643   3.633   6.675  0.5030 -0.3709  0.5647
 2818SOL     OW 9361   0.461   2.044   4.551 -0.7028  0.5073  0.3625
 2818SOL    HW1 9362   0.419   1.960   4.570 -0.2922  0.1674 -0.2272
 2818SOL    HW2 9363   0.533   2.023   4.493 -1.7992  1.4746 -1.4557
 2819SOL     OW 9364   1.400   2.953   5.545 -0.0682 -0.0528 -0.3591
 2819SOL    HW1 9365   1.420   3.006   5.622 -1.2797  0.2656 -0.2423
 2819SOL    HW2 9366   1.402   2.863   5.576 -2.4330  0.1552  0.5343
 2820SOL     OW 9367   4.968   3.844   4.975  0.3378 -0.3828  0.3425
 2820SOL    HW1 9368   4.899   3.891   5.022 -1.0193  0.1498 -2.0139
 2820SOL    HW2 9369   5.021   3.914   4.936  1.5358 -0.8099  1.1668
 2821SOL     OW 9370   1.694   5.933   1.324  0.2847  0.1850 -0.0978
 2821SOL    HW1 9371   1.774   5.914   1.275  0.6263  0.7657  0.2200
 2821SOL    HW2 9372   1.648   5.849   1.327  0.7847 -0.1136 -0.4574
 2822SOL     OW 9373   3.847   3.305   0.743  0.2744  0.3209 -0.5928
 2822SOL    HW1 9374   3.776   3.333   0.800 -2.2074 -0.7360 -2.9356
 2822SOL    HW2 9375   3.830   3.349   0.660  2.1427 -0.3293 -1.3861
 2823SOL     OW 9376   6.560   1.799   5.125  1.1262 -0.6785 -0.2740
 2823SOL    HW1 9377   6.613   1.880   5.126  0.3536 -0.1659 -0.1771
 2823SOL    HW2 9378   6.521   1.798   5.038  0.5677 -0.5670 -0.0296
 2824SOL     OW 9379   6.084   4.646   6.820 -0.1100 -0.0540 -0.2259
 2824SOL    HW1 9380   6.054   4.676   6.734  3.0902 -0.9327 -1.8215
 2824SOL    HW2 9381   6.178   4.660   6.819  0.4239 -2.5366  2.1068
 2825SOL     OW 9382   0.497   6.468   4.196  0.1094  0.1027  1.4947
 2825SOL    HW1 9383   0.589   6.479   4.223  0.6147 -2.3411  1.0083
 2825SOL    HW2 9384   0.503   6.421   4.113 -1.6032  0.7387  0.9777
 2826SOL     OW 9385   1.396   4.518   2.301  0.6970  0.4900  0.3676
 2826SOL    HW1 9386   1.390   4.457   2.228  1.0621 -0.1832  0.8883
 2826SOL    HW2 9387   1.434   4.598   2.263  0.1456  0.4279 -0.3291
 2827SOL     OW 9388   2.545   4.447   0.620 -0.0969 -0.1047 -0.4820
 2827SOL    HW1 9389   2.470   4.495   0.653  0.0179 -1.1566  1.4543
 2827SOL    HW2 9390   2.509   4.388   0.555 -0.8425 -0.0788 -0.1025
 2828SOL     OW 9391   0.230   4.579   2.817  0.0895  0.1865 -0.5663
 2828SOL    HW1 9392   0.173   4.572   2.894 -0.8169 -2.1712 -1.3648
 2828SOL    HW2 9393   0.319   4.573   2.852 -0.3169 -1.0862  0.2953
 2829SOL     OW 9394   2.058   6.703   7.523 -0.1463 -0.3293  0.3315
 2829SOL    HW1 9395   1.981   6.651   7.502 -1.2299  2.2890 -2.8586
 2829SOL    HW2 9396   2.128   6.664   7.471 -0.2867 -0.2576  0.0892
 2830SOL     OW 9397   4.420   4.514   1.044  0.5187  0.0044 -0.0395
 2830SOL    HW1 9398   4.427   4.591   0.988  0.3730 -0.5981 -0.9112
 2830SOL    HW2 9399   4.431   4.440   0.985 -0.6839 -0.6859  0.5550
 2831SOL     OW 9400   4.167   1.142   1.453  0.1913  0.4687  0.1847
 2831SOL    HW1 9401   4.115   1.080   1.402  1.1072 -0.6898  0.6067
 2831SOL    HW2 9402   4.132   1.137   1.541  1.0225 -0.3601  0.4846
 2832SOL     OW 9403   5.788   7.070   5.994  0.9405  0.3449  0.3444
 2832SOL    HW1 9404   5.830   6.990   5.962  1.8011  0.1421  1.8926
 2832SOL    HW2 9405   5.826   7.140   5.942  1.6970 -0.0548  0.3508
 2833SOL     OW 9406   6.078   7.712   0.745  0.1212  0.1761  0.0772
 2833SOL    HW1 9407   6.032   7.689   0.826  0.2338  0.4775  0.2272
 2833SOL    HW2 9408   6.014   7.694   0.675  0.2336 -0.6557  0.1835
 2834SOL     OW 9409   1.843   2.478   2.512 -0.4025  0.7784  0.1994
 2834SOL    HW1 9410   1.873   2.407   2.570 -2.3854 -0.5818 -0.3449
 2834SOL    HW2 9411   1.921   2.531   2.498  0.7368 -0.2767  2.0814
 2835SOL     OW 9412   3.452   3.369   4.322  0.1876  0.6274  0.3814
 2835SOL    HW1 9413   3.376   3.323   4.287 -0.3267  1.7751 -0.0707
 2835SOL    HW2 9414   3.438   3.371   4.416 -1.7454  3.0637  0.1631
 2836SOL     OW 9415   3.605   4.267   6.536  0.3292  0.7936 -0.3863
 2836SOL    HW1 9416   3.542   4.240   6.469 -0.3537  2.4723 -0.4625
 2836SOL    HW2 9417   3.582   4.215   6.613  0.3869 -0.3237 -1.0966
 2837SOL     OW 9418   7.209   5.465   2.578  0.4447 -0.1392 -0.4182
 2837SOL    HW1 9419   7.126   5.449   2.623  1.1022  1.2282  1.4239
 2837SOL    HW2 9420   7.198   5.552   2.539  1.8485  1.2633  2.1043
 2838SOL     OW 9421   5.969   1.917   0.010 -0.4800  0.0330 -0.1930
 2838SOL    HW1 9422   5.965   2.013   0.011 -2.3032  0.0667 -2.2953
 2838SOL    HW2 9423   6.062   1.896   0.019  0.1676  2.0752 -1.4826
 2839SOL     OW 9424   3.563   6.809   0.995 -0.3271  0.0243  0.6117
 2839SOL    HW1 9425   3.631   6.742   1.004 -0.1109  0.2450  0.6458
 2839SOL    HW2 9426   3.606   6.890   1.023 -0.4495  0.2549  0.1325
 2840SOL     OW 9427   7.363   0.590   7.475  0.1667  0.1062 -0.3225
 2840SOL    HW1 9428   7.401   0.665   7.430 -0.8605  0.1722 -1.0917
 2840SOL    HW2 9429   7.423   0.574   7.548  1.0080  0.9591 -0.8038
 2841SOL     OW 9430   3.344   0.522   3.881  0.3908  0.8854 -0.7922
 2841SOL    HW1 9431   3.346   0.618   3.875  0.2910  0.8245 -2.0176
 2841SOL    HW2 9432   3.328   0.493   3.791 -1.9702 -0.2351 -0.0765
 2842SOL     OW 9433   3.817   5.399   6.798 -0.7234  0.1942  0.4189
 2842SOL    HW1 9434   3.812   5.471   6.736 -0.3549 -1.1075 -1.1864
 2842SOL    HW2 9435   3.897   5.352   6.774 -0.2447 -0.0090  2.2849
 2843SOL     OW 9436   7.103   5.376   4.096 -0.0305  0.2474  0.0260
 2843SOL    HW1 9437   7.166   5.372   4.169  0.0431  0.3233 -0.0325
 2843SOL    HW2 9438   7.142   5.439   4.035  1.4429 -2.0144 -1.5179
 2844SOL     OW 9439   7.718   7.588   7.572  0.5607  0.7249  0.1143
 2844SOL    HW1 9440   7.774   7.536   7.631  0.4934  1.9031  1.2558
 2844SOL    HW2 9441   7.779   7.640   7.520  0.5666  1.6484  1.0196
 2845SOL     OW 9442   0.006   1.231   5.751 -0.3939  0.3433 -0.1193
 2845SOL    HW1 9443   0.057   1.184   5.686 -1.2871 -0.6986 -0.1119
 2845SOL    HW2 9444  -0.066   1.270   5.701 -1.4947 -1.0670  0.2897
 2846SOL     OW 9445   5.324   6.935   3.203 -0.2899 -0.1423  0.9900
 2846SOL    HW1 9446   5.276   6.949   3.122 -1.7684 -3.1722  1.2105
 2846SOL    HW2 9447   5.364   7.020   3.222 -0.8877  0.9920 -2.2137
 2847SOL     OW 9448   0.403   4.576   7.692  1.0194  0.0352  0.2862
 2847SOL    HW1 9449   0.494   4.578   7.662  1.0045 -0.2982  0.2168
 2847SOL    HW2 9450   0.361   4.650   7.646  1.4400  0.6977  0.9430
 2848SOL     OW 9451   0.292   1.084   2.307  0.6425 -0.7879  0.1355
 2848SOL    HW1 9452   0.263   1.009   2.254  1.0241  0.4572 -1.9436
 2848SOL    HW2 9453   0.257   1.066   2.394 -1.2053 -2.2872 -0.8243
 2849SOL     OW 9454   0.142   4.572   4.036  0.1705 -0.2391 -0.0393
 2849SOL    HW1 9455   0.099   4.636   4.093  1.5909 -0.9170  1.8965
 2849SOL    HW2 9456   0.228   4.609   4.019 -0.5320  0.3983 -2.6342
 2850SOL     OW 9457   3.652   4.356   1.682  0.4596  0.2037  0.6103
 2850SOL    HW1 9458   3.606   4.385   1.761  0.7140  0.7812  0.5449
 2850SOL    HW2 9459   3.592   4.377   1.611  0.6667  0.6351  0.5580
 2851SOL     OW 9460   0.670   2.836   2.678 -0.2950 -0.3672  0.2741
 2851SOL    HW1 9461   0.621   2.860   2.756 -1.0183  1.7223 -0.7421
 2851SOL    HW2 9462   0.762   2.832   2.707 -0.7070 -1.3033  1.5349
 2852SOL     OW 9463   0.731   5.852   3.435  0.0756 -0.0409  0.7352
 2852SOL    HW1 9464   0.706   5.839   3.344 -0.5191  0.5337  0.8079
 2852SOL    HW2 9465   0.804   5.792   3.449 -0.7063 -1.1368  0.2661
 2853SOL     OW 9466   4.223   2.223   3.681  0.5230  0.1736 -0.4149
 2853SOL    HW1 9467   4.149   2.167   3.658  1.0656  0.1771 -2.3369
 2853SOL    HW2 9468   4.235   2.209   3.775 -1.6461 -0.1146 -0.1219
 2854SOL     OW 9469   3.833   0.726   3.092 -0.8012  0.2482  0.4176
 2854SOL    HW1 9470   3.822   0.664   3.163  0.4799 -0.3193  0.1471
 2854SOL    HW2 9471   3.925   0.718   3.067 -1.0929  0.8295 -0.9376
 2855SOL     OW 9472   4.874   2.442   5.216 -0.0775 -0.0082  0.5802
 2855SOL    HW1 9473   4.880   2.488   5.132 -1.3763 -0.4243  0.2450
 2855SOL    HW2 9474   4.946   2.379   5.214  0.7265  0.8865  0.3663
 2856SOL     OW 9475   3.046   5.920   6.813 -0.0225  0.5219  0.0405
 2856SOL    HW1 9476   3.090   5.848   6.857  0.4228  0.5318 -0.3836
 2856SOL    HW2 9477   3.009   5.973   6.884 -1.4288 -0.7778  0.3388
 2857SOL     OW 9478   7.563   0.076   3.156 -0.2131 -0.7591  0.1345
 2857SOL    HW1 9479   7.527   0.084   3.244  1.6404  0.4548  0.8290
 2857SOL    HW2 9480   7.507   0.011   3.113  0.5556 -3.6203  3.0956
 2858SOL     OW 9481   4.444   7.545   0.616 -0.6763  0.7564  0.3256
 2858SOL    HW1 9482   4.477   7.631   0.641  0.5434  0.3465  0.2010
 2858SOL    HW2 9483   4.523   7.490   0.608 -1.2771  0.0736 -1.3530
 2859SOL     OW 9484   4.499   0.574   0.537 -0.2323 -0.2578  0.6717
 2859SOL    HW1 9485   4.511   0.480   0.528  1.2384 -0.1540  1.3050
 2859SOL    HW2 9486   4.470   0.586   0.627 -2.2414 -0.2151  0.0841
 2860SOL     OW 9487   7.579   4.779   7.460  0.1099  0.0723  0.2938
 2860SOL    HW1 9488   7.532   4.808   7.539  0.2275  1.7748 -0.2457
 2860SOL    HW2 9489   7.567   4.849   7.397  0.8357 -0.8421 -0.9098
 2861SOL     OW 9490   5.289   5.722   4.595  0.3980 -0.3775  0.5814
 2861SOL    HW1 9491   5.248   5.637   4.581  0.1061 -0.1664  0.1230
 2861SOL    HW2 9492   5.296   5.760   4.508 -1.2333  0.8747  0.9546
 2862SOL     OW 9493   4.018   5.836   6.212  0.1965 -0.1307  0.1376
 2862SOL    HW1 9494   3.934   5.812   6.173 -1.0128  0.6508  2.0808
 2862SOL    HW2 9495   4.053   5.904   6.155 -2.2734  2.1598  1.1141
 2863SOL     OW 9496   1.801   3.854   4.023  0.1098  0.1713  0.0489
 2863SOL    HW1 9497   1.811   3.857   3.928 -1.2276  0.3040 -0.1111
 2863SOL    HW2 9498   1.769   3.766   4.041 -2.7012  1.0976 -0.0031
 2864SOL     OW 9499   3.167   4.521   1.328  0.2322  0.5045 -0.5734
 2864SOL    HW1 9500   3.237   4.570   1.286  0.4814 -0.5474 -1.4436
 2864SOL    HW2 9501   3.211   4.468   1.395  0.4581 -0.8342 -1.7153
 2865SOL     OW 9502   4.667   6.594   7.688  0.1901  0.0387  0.1827
 2865SOL    HW1 9503   4.695   6.637   7.608 -0.8001 -0.8970 -0.7066
 2865SOL    HW2 9504   4.748   6.571   7.734  0.7610  0.5753 -0.5433
 2866SOL     OW 9505   4.453   2.533   1.303  0.0447 -0.0669 -0.0676
 2866SOL    HW1 9506   4.460   2.494   1.216 -0.9258 -0.9167  0.2148
 2866SOL    HW2 9507   4.469   2.460   1.363 -1.7270 -0.0709  0.4681
 2867SOL     OW 9508   4.812   5.450   0.850 -0.2769 -0.2355  0.4694
 2867SOL    HW1 9509   4.878   5.473   0.915 -0.1479 -0.2958  0.3603
 2867SOL    HW2 9510   4.845   5.369   0.810 -0.6467 -0.5308  0.7424
 2868SOL     OW 9511   0.767   3.156   2.926 -0.2904  0.1066 -0.4332
 2868SOL    HW1 9512   0.745   3.067   2.954 -0.4394  0.1454 -0.4226
 2868SOL    HW2 9513   0.751   3.210   3.003 -1.8333  0.3848 -0.8928
 2869SOL     OW 9514   5.886   0.113   5.015  0.1003  0.3847 -0.1278
 2869SOL    HW1 9515   5.913   0.054   4.945  0.4350 -0.5140  0.7248
 2869SOL    HW2 9516   5.964   0.121   5.071 -0.4427  0.3142  0.6573
 2870SOL     OW 9517   5.755   4.797   3.417 -0.0839 -0.2823 -0.1570
 2870SOL    HW1 9518   5.709   4.713   3.407  1.9216 -1.5929  0.8245
 2870SOL    HW2 9519   5.792   4.815   3.330  0.3267 -0.9793 -0.1370
 2871SOL     OW 9520   2.886   3.270   6.347 -0.0834  0.1686  0.0438
 2871SOL    HW1 9521   2.881   3.365   6.360  0.4235  0.2584 -0.3826
 2871SOL    HW2 9522   2.911   3.235   6.433 -0.0615  0.4373  0.1473
 2872SOL     OW 9523   1.357   0.133   0.271  0.7040 -0.8324 -0.0417
 2872SOL    HW1 9524   1.394   0.145   0.183  0.9552 -2.5331 -0.2018
 2872SOL    HW2 9525   1.266   0.164   0.263  1.1740  0.5281 -0.4442
 2873SOL     OW 9526   3.477   7.043   4.728 -0.2898 -0.0618 -0.1736
 2873SOL    HW1 9527   3.471   6.949   4.744 -0.7388 -0.5692 -2.7508
 2873SOL    HW2 9528   3.551   7.053   4.668  0.8026  1.4860  1.3223
 2874SOL     OW 9529   6.267   5.797   3.861 -0.2160  0.1427 -0.4311
 2874SOL    HW1 9530   6.358   5.824   3.853 -0.4073  0.5999 -1.2635
 2874SOL    HW2 9531   6.264   5.741   3.938  0.7270  0.2924 -0.2817
 2875SOL     OW 9532   5.294   0.271   0.431 -0.5234  0.4011 -0.5565
 2875SOL    HW1 9533   5.256   0.292   0.346  1.8146  0.7164 -1.5952
 2875SOL    HW2 9534   5.283   0.351   0.483 -0.8031  0.6520 -1.0031
 2876SOL     OW 9535   2.529   0.273   4.955  0.0581 -0.6635 -0.0465
 2876SOL    HW1 9536   2.504   0.339   5.020 -0.7268  0.1184 -1.1043
 2876SOL    HW2 9537   2.623   0.283   4.947  0.1869 -0.8394  1.0269
 2877SOL     OW 9538   1.160   1.271   3.805  0.3711 -0.0070 -0.7136
 2877SOL    HW1 9539   1.107   1.202   3.766  0.0632 -2.1100  3.0103
 2877SOL    HW2 9540   1.097   1.340   3.827 -0.0306 -0.3933 -0.6453
 2878SOL     OW 9541   2.089   1.054   4.116 -0.0487  0.2039  0.1814
 2878SOL    HW1 9542   2.095   1.131   4.173 -2.6007  1.3499 -0.9096
 2878SOL    HW2 9543   2.158   1.066   4.051  0.4558  0.8765  0.8326
 2879SOL     OW 9544   4.416   6.853   3.421  0.2954  0.2732 -0.6853
 2879SOL    HW1 9545   4.429   6.939   3.382  0.6482 -0.3111 -1.8823
 2879SOL    HW2 9546   4.418   6.792   3.348 -2.7135 -0.5267 -0.2199
 2880SOL     OW 9547   3.137   3.476   7.381 -0.3602 -0.0219 -0.0540
 2880SOL    HW1 9548   3.155   3.383   7.366  1.1921  0.0728  1.0326
 2880SOL    HW2 9549   3.164   3.518   7.299  4.9845  0.1093  1.3816
 2881SOL     OW 9550   5.993   3.264   0.797  0.2314  0.0047  0.2372
 2881SOL    HW1 9551   5.988   3.353   0.832  0.1749 -0.0252  0.3050
 2881SOL    HW2 9552   6.083   3.256   0.766  0.0952  0.2627 -0.2388
 2882SOL     OW 9553   3.667   7.691   2.570  0.3624 -0.5293  0.4457
 2882SOL    HW1 9554   3.592   7.631   2.564 -0.2623  0.2826 -0.2070
 2882SOL    HW2 9555   3.733   7.642   2.619 -0.0445 -1.8320 -0.2404
 2883SOL     OW 9556   0.290   0.549   0.312 -0.1889 -0.3820  0.6850
 2883SOL    HW1 9557   0.282   0.567   0.406 -1.3697 -0.0020  0.5297
 2883SOL    HW2 9558   0.378   0.577   0.289 -0.1540  0.2367  1.5417
 2884SOL     OW 9559   7.545   2.121   1.659 -0.6899 -0.5515 -0.5283
 2884SOL    HW1 9560   7.633   2.083   1.661 -0.8626 -0.9277  0.3109
 2884SOL    HW2 9561   7.530   2.151   1.748 -1.0293  0.4307 -0.9037
 2885SOL     OW 9562   2.577   1.390   0.824  0.1792  0.0477  0.1346
 2885SOL    HW1 9563   2.520   1.408   0.899 -0.6401 -1.2967 -0.1302
 2885SOL    HW2 9564   2.661   1.428   0.849 -0.4618  0.9147  1.1022
 2886SOL     OW 9565   0.592   5.247   4.645 -0.4899 -0.5926 -0.4151
 2886SOL    HW1 9566   0.646   5.320   4.674  0.5351 -1.5964  0.2902
 2886SOL    HW2 9567   0.618   5.231   4.555  1.8438 -2.2419  0.4440
 2887SOL     OW 9568   6.116   4.059   2.096 -1.2995 -0.6651  0.0103
 2887SOL    HW1 9569   6.185   4.031   2.157  0.8903  1.9017 -1.0993
 2887SOL    HW2 9570   6.063   4.120   2.146 -0.2893  0.4385 -0.2266
 2888SOL     OW 9571   4.078   1.292   7.077 -0.5545  0.0066  0.1859
 2888SOL    HW1 9572   4.088   1.240   7.156  0.1618 -0.5107 -0.2361
 2888SOL    HW2 9573   4.007   1.248   7.029  0.9844 -1.4980 -0.8432
 2889SOL     OW 9574   2.688   0.832   4.991 -0.0448 -0.3659 -0.4471
 2889SOL    HW1 9575   2.658   0.874   4.910 -1.5675  0.7176  0.6040
 2889SOL    HW2 9576   2.625   0.862   5.057  2.8616  1.2974  1.8038
 2890SOL     OW 9577   5.506   5.711   1.758  0.4840  0.4546 -0.2331
 2890SOL    HW1 9578   5.577   5.656   1.791  0.3553  0.4076 -0.0342
 2890SOL    HW2 9579   5.446   5.722   1.832 -0.0604 -0.0681 -0.5812
 2891SOL     OW 9580   5.535   3.599   4.703 -0.1403  0.2286  0.5183
 2891SOL    HW1 9581   5.480   3.674   4.679 -0.1349  0.1404  0.2284
 2891SOL    HW2 9582   5.623   3.623   4.672 -0.3290 -0.3219 -0.4778
 2892SOL     OW 9583   6.615   4.320   2.419 -0.0440  0.0784 -0.7796
 2892SOL    HW1 9584   6.652   4.259   2.355  1.1041  0.6477 -0.6962
 2892SOL    HW2 9585   6.552   4.372   2.368  0.1674 -0.0982 -1.2325
 2893SOL     OW 9586   3.034   1.940   5.266  0.4668  0.3689 -0.4190
 2893SOL    HW1 9587   3.102   1.937   5.199  1.0803  3.0805 -0.0247
 2893SOL    HW2 9588   3.063   2.007   5.328 -1.6511  0.2727  0.8039
 2894SOL     OW 9589   5.097   4.424   5.842  0.3131  0.0208 -0.0810
 2894SOL    HW1 9590   5.135   4.426   5.930 -0.3538 -0.3210  0.2248
 2894SOL    HW2 9591   5.165   4.383   5.788  0.4856 -0.3483  0.4035
 2895SOL     OW 9592   5.292   6.199   6.309 -0.5889 -0.5765 -0.3460
 2895SOL    HW1 9593   5.330   6.166   6.391 -1.5641 -2.6298 -0.6658
 2895SOL    HW2 9594   5.367   6.231   6.259  0.0570  0.5314  1.2332
 2896SOL     OW 9595   7.056   5.648   2.879 -0.2055  0.0207  0.2032
 2896SOL    HW1 9596   7.114   5.609   2.945  1.1286 -0.2953 -1.0937
 2896SOL    HW2 9597   7.106   5.721   2.843 -0.7439 -0.0455 -0.7149
 2897SOL     OW 9598   7.711   2.288   0.630  0.5543  0.0970  0.3164
 2897SOL    HW1 9599   7.716   2.366   0.574 -0.7896  0.9725  1.3465
 2897SOL    HW2 9600   7.618   2.281   0.652  0.6061 -1.9588  0.0564
 2898SOL     OW 9601   6.005   1.317   5.752  0.0218  0.7413  0.0291
 2898SOL    HW1 9602   5.968   1.232   5.778  1.0472  0.5758  1.0268
 2898SOL    HW2 9603   6.072   1.294   5.688 -0.9332  0.9714 -1.0944
 2899SOL     OW 9604   3.665   0.323   6.307 -0.0569 -0.1281  0.4740
 2899SOL    HW1 9605   3.706   0.406   6.329  3.0938 -1.5505  0.4552
 2899SOL    HW2 9606   3.631   0.336   6.219  0.7335  1.0159  0.3131
 2900SOL     OW 9607   1.526   0.856   2.458  0.5426 -0.2818  0.5577
 2900SOL    HW1 9608   1.485   0.813   2.533  2.2417 -3.5078 -0.1399
 2900SOL    HW2 9609   1.616   0.874   2.486 -0.0824  3.0737  0.7976
 2901SOL     OW 9610   2.386   4.053   3.496 -0.2182 -0.0774 -0.0668
 2901SOL    HW1 9611   2.365   3.960   3.505  1.0006 -0.1976  2.1454
 2901SOL    HW2 9612   2.469   4.064   3.541 -0.4538  2.1539 -0.0497
 2902SOL     OW 9613   4.403   4.888   0.632  0.4679  0.2391  0.4444
 2902SOL    HW1 9614   4.319   4.896   0.588  0.5640  0.1472  0.2409
 2902SOL    HW2 9615   4.411   4.795   0.652 -0.4147  0.5362  2.3499
 2903SOL     OW 9616   1.857   5.455   2.746  0.1649 -0.4522 -0.1408
 2903SOL    HW1 9617   1.866   5.551   2.745  0.4941 -0.4824 -0.3375
 2903SOL    HW2 9618   1.911   5.427   2.820  1.5388 -0.6146 -1.1607
 2904SOL     OW 9619   3.295   5.742   2.050 -0.1676  0.0635  0.1888
 2904SOL    HW1 9620   3.268   5.687   1.976 -1.2248  0.8258 -0.0173
 2904SOL    HW2 9621   3.221   5.737   2.111 -0.3373  1.3244  0.1143
 2905SOL     OW 9622   5.444   1.546   5.137  0.1269  0.4980  0.1561
 2905SOL    HW1 9623   5.532   1.579   5.115  0.0425  1.6315  1.3741
 2905SOL    HW2 9624   5.460   1.460   5.176  0.4515 -0.4816 -1.9734
 2906SOL     OW 9625   0.852   5.563   4.429  0.2688 -0.4838 -0.5298
 2906SOL    HW1 9626   0.833   5.594   4.518  1.4029  1.0659 -0.7756
 2906SOL    HW2 9627   0.843   5.642   4.375  0.7594 -1.1593 -1.6135
 2907SOL     OW 9628   6.761   5.254   6.183  0.0284  0.2170  0.0856
 2907SOL    HW1 9629   6.722   5.308   6.116  1.3029  1.5118  0.3386
 2907SOL    HW2 9630   6.855   5.255   6.164  0.4684  0.8732  2.0273
 2908SOL     OW 9631   7.292   2.787   6.066 -0.2396  0.2010 -0.0756
 2908SOL    HW1 9632   7.369   2.838   6.090 -0.6329  0.2442  1.1877
 2908SOL    HW2 9633   7.327   2.706   6.029  0.3969  0.6168 -0.3916
 2909SOL     OW 9634   5.198   3.423   0.833  1.0082  0.7439 -0.5059
 2909SOL    HW1 9635   5.148   3.388   0.760  0.1304  0.6929  0.0990
 2909SOL    HW2 9636   5.189   3.518   0.826 -0.2248  0.7096  0.2885
 2910SOL     OW 9637   4.667   1.097   2.188 -0.1971  0.0840 -0.2510
 2910SOL    HW1 9638   4.701   1.035   2.124 -1.0194  0.1610 -0.7740
 2910SOL    HW2 9639   4.698   1.182   2.158 -0.3758  0.0932 -0.4087
 2911SOL     OW 9640   5.628   7.518   4.736  0.2120 -0.0810 -0.4582
 2911SOL    HW1 9641   5.606   7.440   4.787  1.9495  0.6729  1.6192
 2911SOL    HW2 9642   5.719   7.506   4.712  0.2026  0.8510 -0.9967
 2912SOL     OW 9643   0.261   5.847   6.819 -0.0106 -0.4059 -0.0138
 2912SOL    HW1 9644   0.312   5.778   6.776 -1.4081 -0.8353 -1.0537
 2912SOL    HW2 9645   0.313   5.872   6.895  0.8716 -2.0812 -0.0327
 2913SOL     OW 9646   4.373   7.292   6.041  0.1969 -0.4040 -0.2373
 2913SOL    HW1 9647   4.324   7.257   6.116 -0.3858  1.7657  0.4808
 2913SOL    HW2 9648   4.432   7.356   6.080 -1.1240  1.8348 -1.7342
 2914SOL     OW 9649   2.826   4.960   4.561 -0.1055 -0.6431  0.4307
 2914SOL    HW1 9650   2.842   4.993   4.650  0.7462  1.8091 -0.5321
 2914SOL    HW2 9651   2.772   5.028   4.520  1.9086 -0.2403 -1.7622
 2915SOL     OW 9652   1.680   0.395   0.836  0.1149 -0.0032 -0.0283
 2915SOL    HW1 9653   1.697   0.350   0.919  0.7604  0.1576 -0.0690
 2915SOL    HW2 9654   1.735   0.473   0.840 -1.8426  1.4286  0.5519
 2916SOL     OW 9655   0.875   1.399   6.393 -0.3613  0.8225 -0.5770
 2916SOL    HW1 9656   0.808   1.432   6.334 -2.0284 -0.2563  0.6318
 2916SOL    HW2 9657   0.894   1.311   6.362  0.3329  1.0165 -0.7417
 2917SOL     OW 9658   6.991   6.070   4.338 -0.4225  0.0025 -0.1088
 2917SOL    HW1 9659   6.910   6.113   4.308  0.6811  1.8987 -0.5674
 2917SOL    HW2 9660   7.037   6.138   4.387  0.6212 -1.2421  0.6970
 2918SOL     OW 9661   6.906   7.409   4.910 -1.0556  0.0654  0.4063
 2918SOL    HW1 9662   6.929   7.495   4.876  1.2386 -0.1338  1.2871
 2918SOL    HW2 9663   6.901   7.421   5.005 -0.0359 -0.8934  0.6018
 2919SOL     OW 9664   6.309   3.172   2.746  0.4947 -0.1675  0.2099
 2919SOL    HW1 9665   6.337   3.115   2.819  1.1797 -0.2480 -0.1004
 2919SOL    HW2 9666   6.281   3.253   2.788  0.3397 -0.4211  0.6028
 2920SOL     OW 9667   6.435   3.668   3.162 -0.0757 -0.3806  0.2056
 2920SOL    HW1 9668   6.403   3.681   3.072 -0.1606  1.9320  0.5306
 2920SOL    HW2 9669   6.355   3.652   3.213 -0.2010 -0.0017  0.1334
 2921SOL     OW 9670   6.450   1.026   2.631 -0.1182  0.1492  0.5012
 2921SOL    HW1 9671   6.474   1.113   2.601  0.1514  0.1594  0.7493
 2921SOL    HW2 9672   6.354   1.029   2.640 -0.0198  0.7495  1.5198
 2922SOL     OW 9673   4.653   4.066   4.784 -0.1664  0.2508  0.1388
 2922SOL    HW1 9674   4.693   4.041   4.868 -0.4593 -0.3498  0.1015
 2922SOL    HW2 9675   4.597   4.140   4.805 -1.2015 -0.6743  0.7098
 2923SOL     OW 9676   5.610   0.828   5.747 -0.2723 -0.0993 -0.1400
 2923SOL    HW1 9677   5.577   0.887   5.680  3.5279 -0.3349 -2.5168
 2923SOL    HW2 9678   5.618   0.744   5.703  1.2838 -0.5443  0.9065
 2924SOL     OW 9679   1.032   2.971   5.307 -0.7578  0.0444  0.4529
 2924SOL    HW1 9680   1.089   2.987   5.231 -0.4828  2.1131  1.0266
 2924SOL    HW2 9681   0.955   3.025   5.291 -1.0891 -0.1812  1.2374
 2925SOL     OW 9682   4.371   4.275   0.884 -0.2790 -0.1266 -0.0270
 2925SOL    HW1 9683   4.452   4.274   0.935  0.0145  0.1031 -0.4845
 2925SOL    HW2 9684   4.360   4.184   0.857  0.0301 -0.0931 -0.2771
 2926SOL     OW 9685   1.991   4.310   6.282 -0.6134 -0.0391 -0.0226
 2926SOL    HW1 9686   1.925   4.374   6.307  0.1452  1.1637 -0.9768
 2926SOL    HW2 9687   2.065   4.327   6.340 -0.5075 -0.2413 -0.0971
 2927SOL     OW 9688   6.381   5.303   7.292  0.1754  0.0717  0.3019
 2927SOL    HW1 9689   6.292   5.336   7.288  0.1577  0.1584  1.1440
 2927SOL    HW2 9690   6.437   5.381   7.292  0.3038  0.0019 -1.0192
 2928SOL     OW 9691   2.595   3.509   4.855  0.3730  0.4464 -0.4839
 2928SOL    HW1 9692   2.662   3.554   4.906 -1.1650  1.2053  0.9559
 2928SOL    HW2 9693   2.517   3.564   4.864 -1.3735 -2.0249  0.6569
 2929SOL     OW 9694   4.880   0.101   5.015 -0.3833  0.6779 -0.1232
 2929SOL    HW1 9695   4.806   0.062   5.062  0.5576 -0.8446  0.1440
 2929SOL    HW2 9696   4.854   0.099   4.923 -1.2121  1.4064  0.0785
 2930SOL     OW 9697   7.122   3.312   3.578  0.2130  0.4658 -0.1378
 2930SOL    HW1 9698   7.106   3.218   3.566 -0.1449  0.7294 -2.2289
 2930SOL    HW2 9699   7.212   3.317   3.609  0.6950 -0.5568 -1.2737
 2931SOL     OW 9700   7.633   2.496   3.907  0.0266 -0.2784 -0.4607
 2931SOL    HW1 9701   7.581   2.424   3.871  2.2502 -2.3304  0.1796
 2931SOL    HW2 9702   7.652   2.551   3.831 -0.9037 -0.8828 -1.1661
 2932SOL     OW 9703   0.858   1.264   2.766  0.1709  0.4444  0.2864
 2932SOL    HW1 9704   0.810   1.343   2.791  0.6614  0.5737  0.8424
 2932SOL    HW2 9705   0.950   1.291   2.767  0.2924  0.0486 -0.2001
 2933SOL     OW 9706   1.241   3.343   2.410 -0.0388 -0.1321  0.1587
 2933SOL    HW1 9707   1.195   3.287   2.348  0.8168 -0.1578 -0.4818
 2933SOL    HW2 9708   1.220   3.432   2.382 -2.5025 -0.0419  1.9977
 2934SOL     OW 9709   2.602   6.798   6.531 -0.1529  0.2604 -0.3218
 2934SOL    HW1 9710   2.578   6.834   6.446  1.7276  1.7148 -0.3063
 2934SOL    HW2 9711   2.694   6.822   6.542 -0.3559  0.1517  2.1380
 2935SOL     OW 9712   1.805   2.073   4.800 -0.3223 -0.7695  0.3424
 2935SOL    HW1 9713   1.892   2.111   4.816 -0.5279 -0.1931  0.1108
 2935SOL    HW2 9714   1.805   1.991   4.851  0.4678 -0.9342  0.0979
 2936SOL     OW 9715   3.103   4.373   5.502 -0.1718  0.0673 -0.0368
 2936SOL    HW1 9716   3.017   4.339   5.523 -0.6094  2.5288  2.7765
 2936SOL    HW2 9717   3.163   4.322   5.555 -0.1270 -0.1921 -0.3318
 2937SOL     OW 9718   1.765   3.439   0.366  0.0619 -0.0362  0.1950
 2937SOL    HW1 9719   1.755   3.527   0.401  1.8602  0.3706 -0.2290
 2937SOL    HW2 9720   1.754   3.449   0.271 -1.6973 -0.6251  0.2987
 2938SOL     OW 9721   2.926   7.035   0.034  0.2822  0.8356 -0.2005
 2938SOL    HW1 9722   2.850   7.054  -0.021  0.3416 -0.2345 -0.6833
 2938SOL    HW2 9723   2.912   6.945   0.063  0.7983  1.0227  0.6580
 2939SOL     OW 9724   6.407   3.664   1.524  1.3938  0.3306  0.2700
 2939SOL    HW1 9725   6.332   3.720   1.504  0.8448  0.1048  1.5935
 2939SOL    HW2 9726   6.411   3.602   1.451 -1.2957 -1.2522  1.3292
 2940SOL     OW 9727   7.339   6.198   7.487 -0.1658  0.9642  0.1234
 2940SOL    HW1 9728   7.385   6.278   7.513  1.8657  0.0242 -0.4265
 2940SOL    HW2 9729   7.408   6.133   7.473 -1.7854 -1.1117  1.1835
 2941SOL     OW 9730   6.398   2.122   1.378 -0.4821 -0.3840  0.1650
 2941SOL    HW1 9731   6.432   2.033   1.372  1.0169  0.0218  1.9422
 2941SOL    HW2 9732   6.462   2.175   1.331  2.2543  0.5360  4.4277
 2942SOL     OW 9733   3.764   4.740   1.055  0.3661 -0.4683 -0.1133
 2942SOL    HW1 9734   3.791   4.824   1.017  0.9849 -0.3390  0.5843
 2942SOL    HW2 9735   3.670   4.750   1.071  0.2037 -0.3400 -1.1077
 2943SOL     OW 9736   4.529   5.825   6.276  0.3469  0.0932 -0.1124
 2943SOL    HW1 9737   4.496   5.746   6.319  1.8808 -0.5990 -0.1733
 2943SOL    HW2 9738   4.580   5.869   6.343 -0.1734  0.8527 -0.2027
 2944SOL     OW 9739   0.633   0.901   2.618  0.0191 -0.0822 -0.2158
 2944SOL    HW1 9740   0.688   0.880   2.543  1.7063  1.7923  0.4071
 2944SOL    HW2 9741   0.695   0.924   2.688 -1.5322  0.7251  0.9532
 2945SOL     OW 9742   2.223   3.511   2.578  0.9812  0.7533  0.4742
 2945SOL    HW1 9743   2.313   3.529   2.552  1.3053  0.0109  1.0384
 2945SOL    HW2 9744   2.218   3.415   2.583  0.6950  0.8172  2.2078
 2946SOL     OW 9745   3.881   5.987   1.575 -0.2878  0.2040  0.2443
 2946SOL    HW1 9746   3.874   6.060   1.513 -0.7336  0.5705  0.7148
 2946SOL    HW2 9747   3.975   5.979   1.593 -0.1563  0.1127 -0.4497
 2947SOL     OW 9748   6.978   0.379   3.252 -0.0110  0.1602 -0.7298
 2947SOL    HW1 9749   6.973   0.378   3.157 -0.4550  0.5997 -0.7136
 2947SOL    HW2 9750   7.056   0.432   3.271 -1.0408  1.8161 -0.8359
 2948SOL     OW 9751   0.930   7.529   1.473  0.1525 -0.0413 -0.1058
 2948SOL    HW1 9752   0.999   7.536   1.538 -0.7428  0.1827  0.8584
 2948SOL    HW2 9753   0.973   7.494   1.396  1.4823  0.7887  0.2213
 2949SOL     OW 9754   4.582   3.756   4.383  0.8938 -0.4051  0.3466
 2949SOL    HW1 9755   4.659   3.699   4.375  1.9785  1.1464 -1.2134
 2949SOL    HW2 9756   4.605   3.816   4.453 -0.0737 -1.5670  1.7074
 2950SOL     OW 9757   4.696   2.146   3.794 -0.0754  0.2045 -0.5297
 2950SOL    HW1 9758   4.643   2.226   3.799 -1.2150 -0.5911  0.7767
 2950SOL    HW2 9759   4.752   2.149   3.872 -0.0268 -0.1995 -0.5473
 2951SOL     OW 9760   3.355   7.100   4.982  0.4488 -0.0299  0.1766
 2951SOL    HW1 9761   3.347   7.118   4.888  0.6366  0.7791  0.3120
 2951SOL    HW2 9762   3.318   7.177   5.024 -1.1707 -1.0904  0.7835
 2952SOL     OW 9763   0.643   4.663   7.519 -0.0167 -0.2208  0.0136
 2952SOL    HW1 9764   0.625   4.593   7.456 -0.2884 -0.2341  0.1053
 2952SOL    HW2 9765   0.620   4.744   7.473 -2.5343 -0.3570  0.8796
 2953SOL     OW 9766   2.063   6.307   3.331  0.0646  0.3139  0.0637
 2953SOL    HW1 9767   1.992   6.308   3.396  1.1423 -0.4027  1.3084
 2953SOL    HW2 9768   2.101   6.220   3.338  0.3807  0.3119 -1.3793
 2954SOL     OW 9769   6.578   3.814   4.200  0.1230  0.3860 -0.3458
 2954SOL    HW1 9770   6.621   3.763   4.269  0.3274  0.3384 -0.5056
 2954SOL    HW2 9771   6.651   3.849   4.148  0.0456 -2.7838 -2.9513
 2955SOL     OW 9772   1.085   2.174   7.333  0.2528 -0.2157 -0.1697
 2955SOL    HW1 9773   1.170   2.178   7.289  1.0360 -2.6569  0.9396
 2955SOL    HW2 9774   1.094   2.234   7.407  1.2644 -0.8854  0.2756
 2956SOL     OW 9775   4.375   3.639   2.850 -0.0028 -0.0215  0.0297
 2956SOL    HW1 9776   4.331   3.565   2.808 -1.1302 -0.1950  1.4413
 2956SOL    HW2 9777   4.422   3.683   2.778  0.1689 -1.7154 -0.9428
 2957SOL     OW 9778   1.369   3.254   5.644  0.0028 -0.3097  0.6373
 2957SOL    HW1 9779   1.358   3.317   5.716  0.2590  1.0716 -0.4819
 2957SOL    HW2 9780   1.460   3.263   5.618  0.0777 -1.2731  0.5505
 2958SOL     OW 9781   6.050   0.026   7.267  0.3580 -0.1634 -0.1106
 2958SOL    HW1 9782   5.962  -0.006   7.288 -0.0863  0.9757 -0.1752
 2958SOL    HW2 9783   6.109  -0.030   7.317 -0.4903  0.1444  1.2825
 2959SOL     OW 9784   7.598   3.890   6.959  0.1057  0.4328  0.3573
 2959SOL    HW1 9785   7.516   3.861   6.918 -0.7149  1.5705  1.1228
 2959SOL    HW2 9786   7.570   3.948   7.031  1.5955  1.3086  0.2827
 2960SOL     OW 9787   5.553   1.795   5.289  0.0741 -0.1189  0.3842
 2960SOL    HW1 9788   5.547   1.890   5.276  0.5074 -0.4289 -2.7359
 2960SOL    HW2 9789   5.477   1.774   5.344 -1.4570  1.7517 -0.8881
 2961SOL     OW 9790   7.113   0.678   1.142  0.0375 -0.5348  0.5104
 2961SOL    HW1 9791   7.035   0.636   1.179 -0.4695 -2.7897 -2.7518
 2961SOL    HW2 9792   7.080   0.739   1.076  1.0059  1.0460  1.4093
 2962SOL     OW 9793   5.357   3.446   3.118 -0.0187 -0.6379  0.4044
 2962SOL    HW1 9794   5.368   3.540   3.111 -0.4589 -0.6693 -0.9786
 2962SOL    HW2 9795   5.337   3.417   3.029 -1.6015 -1.8157  1.0890
 2963SOL     OW 9796   6.276   5.288   3.363  0.0587 -0.2629  0.5268
 2963SOL    HW1 9797   6.355   5.342   3.371  0.2181 -0.3364 -0.4591
 2963SOL    HW2 9798   6.209   5.349   3.332  0.6820 -0.9234 -2.4347
 2964SOL     OW 9799   5.875   4.856   4.590 -0.0243 -0.3202 -0.1172
 2964SOL    HW1 9800   5.947   4.843   4.652  0.5303  1.0795 -0.4241
 2964SOL    HW2 9801   5.867   4.951   4.583  0.0989 -0.4251 -2.3488
 2965SOL     OW 9802   4.338   7.120   3.047 -0.0997 -0.4795  0.3741
 2965SOL    HW1 9803   4.329   7.032   3.009 -2.1258 -0.9824  1.8142
 2965SOL    HW2 9804   4.261   7.167   3.016  1.3331  1.0840 -0.9568
 2966SOL     OW 9805   2.455   6.816   3.977 -0.0511 -0.1314  0.1441
 2966SOL    HW1 9806   2.422   6.860   4.055 -1.6348  0.9240 -1.0467
 2966SOL    HW2 9807   2.404   6.735   3.972 -1.2118  0.6190 -0.6864
 2967SOL     OW 9808   6.259   4.398   1.050  0.5007  0.3052 -0.1240
 2967SOL    HW1 9809   6.182   4.342   1.044 -1.0560  2.2595  0.2623
 2967SOL    HW2 9810   6.284   4.416   0.960  0.1362  0.1139 -0.2637
 2968SOL     OW 9811   6.659   4.102   6.140  0.0078  0.6286  0.0505
 2968SOL    HW1 9812   6.700   4.044   6.076  1.9761  0.4599  1.3828
 2968SOL    HW2 9813   6.628   4.176   6.088  0.4475 -0.0726 -1.2566
 2969SOL     OW 9814   2.826   0.417   5.650  0.3503  0.3778  0.5817
 2969SOL    HW1 9815   2.776   0.343   5.684  0.7411 -0.8233 -1.2765
 2969SOL    HW2 9816   2.917   0.388   5.657  0.4800  0.4892 -0.5486
 2970SOL     OW 9817   0.556   5.521   1.443  0.1109 -0.1640 -0.3394
 2970SOL    HW1 9818   0.506   5.594   1.407 -0.3890 -0.5587 -0.4558
 2970SOL    HW2 9819   0.552   5.533   1.538  1.0933  0.6552 -0.3930
 2971SOL     OW 9820   5.393   3.761   4.436 -0.0221  0.0113  0.1929
 2971SOL    HW1 9821   5.355   3.761   4.524 -1.5396 -0.6897 -0.4272
 2971SOL    HW2 9822   5.412   3.669   4.418  1.5084  0.2832  0.2584
 2972SOL     OW 9823   6.430   0.896   3.001 -0.2910  0.3961  0.1191
 2972SOL    HW1 9824   6.459   0.866   3.087 -0.9715  0.2924  0.3220
 2972SOL    HW2 9825   6.449   0.990   3.000  0.6127  0.2153  0.0035
 2973SOL     OW 9826   4.586   2.312   5.444  0.5663 -0.5192 -0.5439
 2973SOL    HW1 9827   4.524   2.334   5.374  1.6359  1.9121 -0.8405
 2973SOL    HW2 9828   4.655   2.261   5.400 -0.0740 -1.2825 -0.6783
 2974SOL     OW 9829   4.599   0.294   5.541  0.8568  0.1316  0.3391
 2974SOL    HW1 9830   4.631   0.205   5.530 -0.6068 -0.4000  0.0846
 2974SOL    HW2 9831   4.538   0.289   5.615  0.2165  0.7597 -0.1301
 2975SOL     OW 9832   5.297   3.776   2.566  0.3007 -0.2728 -0.0732
 2975SOL    HW1 9833   5.304   3.681   2.560  0.6324 -0.2342 -0.3971
 2975SOL    HW2 9834   5.221   3.792   2.621  0.5346 -0.7289  0.3819
 2976SOL     OW 9835   6.580   2.294   0.474  0.1740  0.1661 -0.0495
 2976SOL    HW1 9836   6.666   2.323   0.444 -0.3492  1.1768 -0.6337
 2976SOL    HW2 9837   6.520   2.361   0.443 -1.1608 -1.6584 -1.6740
 2977SOL     OW 9838   5.260   5.894   6.429 -0.5268  0.0507  0.4340
 2977SOL    HW1 9839   5.350   5.917   6.449 -0.5152 -0.2325  0.7165
 2977SOL    HW2 9840   5.266   5.807   6.389 -0.6496  0.1488  0.1974
 2978SOL     OW 9841   7.129   0.128   7.569 -0.1565 -0.0987 -0.3060
 2978SOL    HW1 9842   7.107   0.196   7.632 -0.6110 -0.8121  0.3179
 2978SOL    HW2 9843   7.156   0.176   7.490 -1.5464  0.8053 -0.2644
 2979SOL     OW 9844   0.932   3.682   6.872 -0.1354  0.0040 -0.5054
 2979SOL    HW1 9845   0.937   3.758   6.814 -2.5940 -0.4486 -1.4324
 2979SOL    HW2 9846   0.927   3.607   6.813 -0.8156 -0.6161  0.3119
 2980SOL     OW 9847   6.111   6.410   4.254  0.3753  0.2287  0.4889
 2980SOL    HW1 9848   6.019   6.436   4.253  0.2374 -0.2043 -0.9716
 2980SOL    HW2 9849   6.147   6.446   4.173  1.4286  0.1880  0.9279
 2981SOL     OW 9850   6.644   5.646   3.336 -0.1376  0.1309 -0.5332
 2981SOL    HW1 9851   6.660   5.665   3.429 -1.6282  1.5230 -0.5220
 2981SOL    HW2 9852   6.721   5.681   3.291  0.9885 -1.2870  0.2087
 2982SOL     OW 9853   5.662   6.823   3.153  0.5604 -0.4522 -0.1309
 2982SOL    HW1 9854   5.602   6.824   3.227 -0.9521 -0.4455 -1.3054
 2982SOL    HW2 9855   5.651   6.737   3.114  0.4494 -0.0466 -1.0310
 2983SOL     OW 9856   5.800   5.713   3.999  0.0991  0.6566 -0.1641
 2983SOL    HW1 9857   5.832   5.633   4.041  0.0006  0.1742 -0.9935
 2983SOL    HW2 9858   5.842   5.784   4.047 -0.3682  0.1364  1.0552
 2984SOL     OW 9859   6.908   5.480   2.009 -0.2528  0.3043  0.1635
 2984SOL    HW1 9860   6.956   5.488   2.091 -0.0822 -0.6783  0.1784
 2984SOL    HW2 9861   6.830   5.534   2.020 -0.0083  0.5292  0.7980
 2985SOL     OW 9862   6.551   3.970   3.749 -0.6498  0.5664 -0.3247
 2985SOL    HW1 9863   6.551   4.004   3.659 -0.6161  2.0023  0.1868
 2985SOL    HW2 9864   6.616   3.899   3.748  1.4474  2.3669 -0.8366
 2986SOL     OW 9865   6.148   1.458   5.978 -0.2634 -0.2752 -0.0994
 2986SOL    HW1 9866   6.104   1.422   5.901 -0.1008 -0.3089 -0.1760
 2986SOL    HW2 9867   6.239   1.469   5.951 -0.5112  1.1960 -0.4313
 2987SOL     OW 9868   5.315   7.023   1.436  0.0658  0.3759 -0.2080
 2987SOL    HW1 9869   5.312   7.004   1.342 -0.0154 -1.5795  0.1408
 2987SOL    HW2 9870   5.407   7.017   1.458 -0.1283 -2.0555  0.2901
 2988SOL     OW 9871   0.538   0.149   1.884  0.3344  0.1220 -0.2498
 2988SOL    HW1 9872   0.603   0.200   1.932 -1.0901  0.4583  1.4462
 2988SOL    HW2 9873   0.561   0.160   1.792  1.3278  2.0777  0.1908
 2989SOL     OW 9874   7.266   6.094   0.952  0.0300 -0.2124 -0.4622
 2989SOL    HW1 9875   7.280   6.188   0.966  0.2878 -0.1488 -1.0821
 2989SOL    HW2 9876   7.309   6.052   1.026 -0.2467  0.1599 -0.0789
 2990SOL     OW 9877   5.410   4.877   2.587  0.0157  0.5770  0.0930
 2990SOL    HW1 9878   5.487   4.930   2.566  0.4056 -0.1561 -0.3799
 2990SOL    HW2 9879   5.410   4.808   2.521 -1.9308  1.4307 -0.8608
 2991SOL     OW 9880   6.297   2.407   2.089  0.3871 -0.1356 -0.3133
 2991SOL    HW1 9881   6.306   2.312   2.100  0.7390  0.0336  0.9816
 2991SOL    HW2 9882   6.383   2.436   2.059  0.0906 -0.2952 -1.3631
 2992SOL     OW 9883   0.419   0.991   7.155 -0.3807  0.5435 -0.7464
 2992SOL    HW1 9884   0.358   1.056   7.188  0.8551  1.9694 -1.1624
 2992SOL    HW2 9885   0.398   0.982   7.062  0.5475  1.6654 -1.0838
 2993SOL     OW 9886   6.582   1.385   4.791 -0.0189  1.1857  0.3666
 2993SOL    HW1 9887   6.529   1.398   4.870 -1.4146 -0.2336 -0.2781
 2993SOL    HW2 9888   6.542   1.310   4.748  2.7174 -0.1522 -0.0373
 2994SOL     OW 9889   7.504   4.106   5.513  0.0894 -0.2202 -0.2640
 2994SOL    HW1 9890   7.547   4.190   5.499 -1.3965  0.3008 -2.3776
 2994SOL    HW2 9891   7.574   4.041   5.507  1.2258  0.8049  1.1777
 2995SOL     OW 9892   1.713   4.992   0.535 -0.3083  0.2358  0.9483
 2995SOL    HW1 9893   1.633   4.969   0.582 -1.5829 -1.3872 -1.7907
 2995SOL    HW2 9894   1.684   5.054   0.468  0.3275 -1.4717 -1.0204
 2996SOL     OW 9895   4.858   0.199   1.794  0.9698  0.5945  0.0394
 2996SOL    HW1 9896   4.915   0.122   1.801 -2.1251 -1.9435 -0.1258
 2996SOL    HW2 9897   4.846   0.228   1.884  1.5018  0.3371  0.1982
 2997SOL     OW 9898   5.825   6.911   1.553  0.5782 -0.1999  0.2491
 2997SOL    HW1 9899   5.849   6.970   1.625  0.4166 -0.4934  0.5489
 2997SOL    HW2 9900   5.863   6.827   1.578 -1.0061 -0.7584  0.8948
 2998SOL     OW 9901   6.080   3.254   5.101  0.3985  0.2337  0.3288
 2998SOL    HW1 9902   6.037   3.268   5.017  3.0161 -2.3549 -1.6934
 2998SOL    HW2 9903   6.027   3.187   5.145  0.1416  0.0537 -0.2510
 2999SOL     OW 9904   6.082   3.661   5.778 -0.1252  0.8926 -0.0948
 2999SOL    HW1 9905   6.034   3.594   5.827 -0.6745 -0.0729 -1.8715
 2999SOL    HW2 9906   6.107   3.726   5.844  0.8297 -1.2650  1.8081
 3000SOL     OW 9907   3.777   2.446   7.683  0.3513  0.4497 -0.0726
 3000SOL    HW1 9908   3.865   2.427   7.652  0.1577  0.0695 -0.3983
 3000SOL    HW2 9909   3.726   2.369   7.658 -0.3697  1.2326 -1.0830
 3001SOL     OW 9910   1.822   1.464   6.630 -0.1447 -0.5842 -0.3040
 3001SOL    HW1 9911   1.905   1.473   6.676  0.0748 -0.6381 -0.6830
 3001SOL    HW2 9912   1.792   1.375   6.650 -0.2505 -0.4674  0.0590
 3002SOL     OW 9913   5.111   0.148   7.330 -0.0188 -0.4624  0.3384
 3002SOL    HW1 9914   5.192   0.114   7.290  0.1321  0.1427  0.1245
 3002SOL    HW2 9915   5.106   0.239   7.301 -0.2749 -0.2139  1.1400
 3003SOL     OW 9916   3.081   5.844   2.361  0.3706 -0.3421 -0.2795
 3003SOL    HW1 9917   3.093   5.796   2.443 -3.0701  1.0684  1.2290
 3003SOL    HW2 9918   3.058   5.777   2.297 -1.4838 -1.0760  1.0758
 3004SOL     OW 9919   6.665   3.065   1.896  0.1644 -0.4278 -0.3109
 3004SOL    HW1 9920   6.713   2.988   1.925  0.9271  0.6962  1.6187
 3004SOL    HW2 9921   6.634   3.043   1.808  2.8557 -1.8038 -1.0210
 3005SOL     OW 9922   4.244   2.423   7.271  0.4548  0.1202  0.3418
 3005SOL    HW1 9923   4.157   2.416   7.231  0.3565 -1.7139  0.8149
 3005SOL    HW2 9924   4.272   2.333   7.283  1.3515  0.6420  2.5276
 3006SOL     OW 9925   4.397   0.022   7.638 -0.2440  0.1864  0.0752
 3006SOL    HW1 9926   4.311   0.038   7.601 -0.8940 -2.0918  0.4174
 3006SOL    HW2 9927   4.380  -0.032   7.716  1.4265  0.4778  0.6933
 3007SOL     OW 9928   3.331   3.749   1.704 -0.0911  0.1223 -0.3436
 3007SOL    HW1 9929   3.267   3.743   1.774  2.0679 -1.3484  1.6377
 3007SOL    HW2 9930   3.317   3.836   1.666  0.1926  2.0804  3.5169
 3008SOL     OW 9931   6.380   2.256   7.471 -0.2159 -0.2603  0.1770
 3008SOL    HW1 9932   6.395   2.226   7.381 -1.2814 -0.5615  0.0802
 3008SOL    HW2 9933   6.350   2.346   7.461  0.1041 -0.1445  0.2630
 3009SOL     OW 9934   5.550   6.621   0.273 -0.0366 -0.2620  0.0590
 3009SOL    HW1 9935   5.519   6.532   0.260  1.3763 -0.7385 -0.1670
 3009SOL    HW2 9936   5.572   6.653   0.186  1.4554 -0.4651  0.3304
 3010SOL     OW 9937   5.139   3.032   1.395  0.2559  0.1487  0.1891
 3010SOL    HW1 9938   5.055   3.010   1.354  0.7426  0.4357 -0.9921
 3010SOL    HW2 9939   5.151   3.125   1.377  0.5831  0.2335  0.8237
 3011SOL     OW 9940   2.154   2.636   7.070  0.5785 -0.8501  0.0014
 3011SOL    HW1 9941   2.242   2.599   7.072  1.1649  0.5146  0.3265
 3011SOL    HW2 9942   2.130   2.635   6.977  1.1498 -0.7316 -0.1488
 3012SOL     OW 9943   3.765   4.202   7.187  0.1023  0.2225  0.2171
 3012SOL    HW1 9944   3.763   4.106   7.191  0.2097  0.2093 -0.0032
 3012SOL    HW2 9945   3.755   4.222   7.094  0.3853  0.4159  0.2276
 3013SOL     OW 9946   5.241   3.256   4.122 -0.1307 -0.6750  0.3148
 3013SOL    HW1 9947   5.212   3.170   4.092 -1.1824 -0.2848  0.1792
 3013SOL    HW2 9948   5.247   3.247   4.217 -2.1858 -0.3521  0.5068
 3014SOL     OW 9949   2.189   0.767   6.103 -0.4311 -0.8762 -0.1616
 3014SOL    HW1 9950   2.158   0.677   6.095 -1.3702 -0.5769 -0.0482
 3014SOL    HW2 9951   2.147   0.813   6.030 -0.3367 -0.4373  0.0580
 3015SOL     OW 9952   0.551   5.472   4.914  0.2743  0.5594 -0.2502
 3015SOL    HW1 9953   0.476   5.416   4.894 -0.0070  0.1967  1.6472
 3015SOL    HW2 9954   0.625   5.430   4.869 -0.3644  0.0642 -0.8634
 3016SOL     OW 9955   0.139   6.002   0.281  0.0169 -1.0175  0.3336
 3016SOL    HW1 9956   0.178   6.038   0.360 -1.3961  0.7657  0.2804
 3016SOL    HW2 9957   0.076   6.068   0.253 -0.3751 -2.1422 -1.6227
 3017SOL     OW 9958   0.886   1.938   6.903  0.6666  0.3942 -0.1673
 3017SOL    HW1 9959   0.979   1.959   6.899  0.8812  0.2358  2.3285
 3017SOL    HW2 9960   0.877   1.884   6.982 -1.7276  1.6006  0.4914
 3018SOL     OW 9961   5.712   2.026   0.459 -0.0414 -0.1172  0.1706
 3018SOL    HW1 9962   5.791   2.019   0.407 -0.5329 -1.3913 -0.4567
 3018SOL    HW2 9963   5.683   1.936   0.471 -0.4280  0.2090  1.9091
 3019SOL     OW 9964   7.334   4.110   0.982 -0.1188 -0.2754 -0.0548
 3019SOL    HW1 9965   7.348   4.061   0.901 -0.1341  1.4081 -1.1191
 3019SOL    HW2 9966   7.390   4.187   0.973 -1.1813  0.6422  0.9254
 3020SOL     OW 9967   4.349   1.221   3.242 -0.8660 -0.4173 -0.0582
 3020SOL    HW1 9968   4.432   1.251   3.280 -0.8166 -0.2118 -0.3189
 3020SOL    HW2 9969   4.342   1.270   3.160 -0.1704 -2.0082 -1.1361
 3021SOL     OW 9970   7.370   1.091   4.806  0.4326 -0.3759 -0.0272
 3021SOL    HW1 9971   7.316   1.116   4.881 -1.9549  0.3317 -1.8519
 3021SOL    HW2 9972   7.325   1.015   4.769  1.3877 -0.5178 -0.9389
 3022SOL     OW 9973   4.667   2.866   4.876 -0.1598 -0.0598  0.0085
 3022SOL    HW1 9974   4.713   2.826   4.950 -1.9246 -0.4660  0.9234
 3022SOL    HW2 9975   4.707   2.826   4.799  1.4893  0.1273  0.7170
 3023SOL     OW 9976   2.603   6.280   3.411  0.6939  0.2380  0.3005
 3023SOL    HW1 9977   2.581   6.191   3.437  1.1223  0.0213 -0.0610
 3023SOL    HW2 9978   2.680   6.302   3.463  1.3206 -0.0573 -0.4744
 3024SOL     OW 9979   0.774   5.963   5.459  0.5175 -0.4367 -0.2686
 3024SOL    HW1 9980   0.865   5.981   5.436  1.0665 -1.1885  1.1453
 3024SOL    HW2 9981   0.760   5.871   5.434  0.8058 -0.9434  1.2906
 3025SOL     OW 9982   4.025   4.571   6.071 -0.4051  0.5446  0.2996
 3025SOL    HW1 9983   4.098   4.610   6.023  1.0623 -1.7138  0.5499
 3025SOL    HW2 9984   3.964   4.542   6.003 -0.0755  0.5843 -0.0149
 3026SOL     OW 9985   6.565   3.323   4.850 -0.5065  0.0225 -0.3378
 3026SOL    HW1 9986   6.618   3.264   4.797  0.5194 -0.9116  1.6550
 3026SOL    HW2 9987   6.476   3.310   4.818  0.2429  0.7451 -2.9366
 3027SOL     OW 9988   7.401   7.399   5.802  0.3911 -0.3207 -0.2599
 3027SOL    HW1 9989   7.435   7.387   5.713  0.2456  0.1559 -0.3847
 3027SOL    HW2 9990   7.311   7.429   5.790 -0.0618 -1.5110  0.0699
 3028SOL     OW 9991   1.177   6.773   2.283  0.2663  0.3657  0.7660
 3028SOL    HW1 9992   1.271   6.780   2.265 -0.0831  2.7966 -0.4089
 3028SOL    HW2 9993   1.138   6.749   2.199 -0.2403  0.0886  1.0743
 3029SOL     OW 9994   0.191   4.589   5.235  0.2384 -0.3867 -0.0399
 3029SOL    HW1 9995   0.285   4.581   5.255 -0.0159 -0.1695  1.3640
 3029SOL    HW2 9996   0.148   4.576   5.320 -0.9127  1.2614 -0.3228
 3030SOL     OW 9997   0.552   7.542   2.844  0.0634 -0.1912  0.5698
 3030SOL    HW1 9998   0.467   7.552   2.801  0.0570  1.2190  0.8847
 3030SOL    HW2 9999   0.577   7.630   2.869  1.2343 -0.6963  1.2487
 3031SOL     OW10000   4.395   5.696   2.337  0.5239  0.1793 -0.1084
 3031SOL    HW110001   4.402   5.642   2.415 -3.1481 -0.2017  0.1163
 3031SOL    HW210002   4.417   5.637   2.265  0.2078 -0.5437  0.3841
 3032SOL     OW10003   4.899   6.929   0.981  0.1539  0.6599  0.4677
 3032SOL    HW110004   4.919   7.018   0.952  0.9505  0.0636 -0.9360
 3032SOL    HW210005   4.832   6.898   0.921 -1.2134  0.7918  1.8727
 3033SOL     OW10006   6.922   3.440   6.399 -0.1933  0.4253 -0.4183
 3033SOL    HW110007   6.999   3.462   6.347  0.8748 -0.6751  0.6596
 3033SOL    HW210008   6.900   3.522   6.444  1.5619  0.2965  0.7744
 3034SOL     OW10009   6.295   6.793   7.126 -0.2898  0.3592 -0.1759
 3034SOL    HW110010   6.233   6.733   7.168 -0.9530 -0.3612 -2.0627
 3034SOL    HW210011   6.359   6.736   7.083 -1.4543  0.8682 -2.7898
 3035SOL     OW10012   5.336   4.687   3.813  0.8844 -0.2980 -0.2622
 3035SOL    HW110013   5.265   4.627   3.838  0.9320  0.0046  0.6302
 3035SOL    HW210014   5.355   4.664   3.722 -0.7277 -0.0204 -0.7017
 3036SOL     OW10015   0.166   2.685   0.323  0.6256 -0.2644 -0.2613
 3036SOL    HW110016   0.194   2.689   0.232 -1.3129 -2.1767 -1.0112
 3036SOL    HW210017   0.115   2.764   0.336 -0.2554 -0.6485 -1.2803
 3037SOL     OW10018   1.501   4.253   2.003  0.2036  0.0593 -0.6675
 3037SOL    HW110019   1.539   4.337   2.030  0.5770  0.3030 -1.8863
 3037SOL    HW210020   1.526   4.244   1.911 -1.1615 -0.6424 -1.0010
 3038SOL     OW10021   0.087   4.366   7.695  0.2582 -0.1209 -0.7248
 3038SOL    HW110022   0.045   4.439   7.651 -0.4118 -0.1114 -0.0838
 3038SOL    HW210023   0.026   4.340   7.764  1.5429  0.2495  0.6050
 3039SOL     OW10024   2.175   2.442   5.053  0.1158  0.5922 -0.8444
 3039SOL    HW110025   2.164   2.537   5.049  1.4455  0.7516 -1.5523
 3039SOL    HW210026   2.231   2.429   5.130 -1.2558  0.2343  0.1104
 3040SOL     OW10027   0.239   1.911   5.141 -0.6389 -0.1609  0.8550
 3040SOL    HW110028   0.327   1.946   5.154 -0.4624  0.2376 -1.0784
 3040SOL    HW210029   0.249   1.816   5.153  0.2498 -0.2106 -0.1161
 3041SOL     OW10030   1.458   4.919   0.334 -0.3835  0.3973 -0.7570
 3041SOL    HW110031   1.370   4.945   0.306  0.6039  2.4538 -2.1924
 3041SOL    HW210032   1.444   4.841   0.388 -2.9790  0.1080 -1.7245
 3042SOL     OW10033   3.603   0.453   1.753 -0.1442 -0.1243 -0.4680
 3042SOL    HW110034   3.631   0.362   1.766 -0.9894 -0.0394  2.7529
 3042SOL    HW210035   3.650   0.502   1.820 -1.4196  1.4373 -0.6697
 3043SOL     OW10036   1.163   3.695   6.658 -0.1926  0.3071 -0.0851
 3043SOL    HW110037   1.140   3.602   6.661  0.5684  0.0810 -0.8933
 3043SOL    HW210038   1.241   3.703   6.713 -0.6566  0.6079  0.5511
 3044SOL     OW10039   4.993   4.200   0.948  0.3611 -0.2313  0.0278
 3044SOL    HW110040   4.943   4.279   0.966  0.1624 -0.5805  1.1323
 3044SOL    HW210041   4.960   4.136   1.012 -1.8930 -2.3187 -2.9587
 3045SOL     OW10042   2.919   0.759   1.558  0.2962 -0.2410 -0.0962
 3045SOL    HW110043   2.965   0.700   1.498 -1.9655  0.3297 -2.5690
 3045SOL    HW210044   2.933   0.846   1.522  1.0674  0.4689  1.7887
 3046SOL     OW10045   5.196   3.044   6.146 -0.0829  0.1521 -0.1403
 3046SOL    HW110046   5.134   3.061   6.075 -0.1519 -0.0950 -0.1412
 3046SOL    HW210047   5.146   2.992   6.209  0.5350 -1.2834 -0.8103
 3047SOL     OW10048   3.523   7.003   5.876 -0.6070 -0.1096  0.3127
 3047SOL    HW110049   3.488   7.091   5.864  1.1094  0.4431 -0.9647
 3047SOL    HW210050   3.445   6.947   5.878 -1.6368  1.0684 -2.2009
 3048SOL     OW10051   6.560   6.082   1.320 -0.1640  0.0827 -0.0608
 3048SOL    HW110052   6.469   6.112   1.325 -0.1822  0.1012 -0.4577
 3048SOL    HW210053   6.555   5.988   1.334 -0.2166  0.1237  0.1876
 3049SOL     OW10054   0.655   6.884   4.131  0.0052  0.1650  0.3741
 3049SOL    HW110055   0.724   6.929   4.179 -0.2015  1.4472 -0.4874
 3049SOL    HW210056   0.574   6.916   4.171 -0.1564  0.9442 -0.5465
 3050SOL     OW10057   5.996   0.656   4.624  0.1547  0.3287 -0.1516
 3050SOL    HW110058   6.053   0.627   4.553  1.8038  2.1784  0.3367
 3050SOL    HW210059   5.913   0.611   4.608  1.6027 -2.2263 -1.0742
 3051SOL     OW10060   6.170   7.357   2.015  0.5898  0.3153  0.6690
 3051SOL    HW110061   6.180   7.440   1.969 -2.2522  0.6952  0.5839
 3051SOL    HW210062   6.190   7.377   2.106 -2.5560  1.8223  1.1351
 3052SOL     OW10063   0.259   3.767   3.368 -0.3842 -0.3902 -0.1140
 3052SOL    HW110064   0.301   3.852   3.379  0.2219 -0.9998  3.3236
 3052SOL    HW210065   0.326   3.712   3.326  0.6521 -0.1353  1.1408
 3053SOL     OW10066   5.354   2.409   0.732 -0.1231 -0.0769  0.0695
 3053SOL    HW110067   5.334   2.409   0.826 -2.5787 -0.7599 -0.3801
 3053SOL    HW210068   5.392   2.495   0.716  1.5458 -0.4068  1.8760
 3054SOL     OW10069   6.762   1.727   3.496  0.0427  0.1490 -0.2432
 3054SOL    HW110070   6.686   1.755   3.446 -1.1783  0.4301  1.6689
 3054SOL    HW210071   6.792   1.647   3.453 -0.7793  0.5112 -1.5396
 3055SOL     OW10072   4.922   3.868   1.877  0.2598 -0.4545 -0.2442
 3055SOL    HW110073   4.917   3.813   1.799  0.0480  0.9213 -1.2295
 3055SOL    HW210074   4.895   3.955   1.847  1.0680  0.3067  1.1476
 3056SOL     OW10075   6.051   6.809   2.264  0.1041  0.2266  0.0372
 3056SOL    HW110076   6.049   6.716   2.287 -0.4955 -0.1855 -1.5755
 3056SOL    HW210077   5.981   6.848   2.317  1.5034  0.1530  2.0807
 3057SOL     OW10078   6.915   3.841   0.085 -0.0404  0.3315  0.0790
 3057SOL    HW110079   7.007   3.821   0.070  0.3257  0.6847  1.7303
 3057SOL    HW210080   6.888   3.782   0.155 -1.7062 -1.2990 -1.7842
 3058SOL     OW10081   5.937   2.004   2.753  0.0202 -0.0965 -0.4466
 3058SOL    HW110082   5.947   2.089   2.710 -1.1583  0.5978  0.6028
 3058SOL    HW210083   5.983   2.013   2.837 -0.7401 -0.2382 -0.0050
 3059SOL     OW10084   3.966   6.952   6.258 -0.6022 -0.0524 -0.0271
 3059SOL    HW110085   3.908   7.002   6.315 -0.1086  0.7263 -0.1894
 3059SOL    HW210086   3.918   6.944   6.175 -1.5498 -1.6559  0.6339
 3060SOL     OW10087   3.285   5.194   2.428  0.4314  0.4328 -0.9484
 3060SOL    HW110088   3.229   5.206   2.504  0.2007  0.0938 -1.0631
 3060SOL    HW210089   3.244   5.247   2.359  2.5831  3.7107  0.0958
 3061SOL     OW10090   6.262   1.221   2.495  0.6416 -0.0943 -0.0513
 3061SOL    HW110091   6.195   1.242   2.560  0.5068 -1.0123  0.1283
 3061SOL    HW210092   6.240   1.132   2.467  0.4673  0.4182 -1.6509
 3062SOL     OW10093   5.260   5.115   1.459 -0.2930 -0.1450 -0.2724
 3062SOL    HW110094   5.321   5.092   1.528 -1.0806 -0.2977  0.3931
 3062SOL    HW210095   5.189   5.161   1.504 -0.1878  0.9355 -1.1672
 3063SOL     OW10096   6.071   7.472   4.348  0.4939  0.1267  0.2761
 3063SOL    HW110097   6.129   7.447   4.276 -0.2572  1.3285 -0.7762
 3063SOL    HW210098   6.000   7.407   4.344 -0.1576  0.8735 -0.8504
 3064SOL     OW10099   4.666   6.447   6.245 -0.6647  0.6101  0.0860
 3064SOL    HW110100   4.741   6.390   6.228 -0.5531  1.1944 -1.6191
 3064SOL    HW210101   4.592   6.400   6.208 -0.9378  0.5881  0.6592
 3065SOL     OW10102   0.749   2.718   0.569 -0.4700  0.1438  0.3749
 3065SOL    HW110103   0.718   2.658   0.638  0.4695  0.2019  0.8684
 3065SOL    HW210104   0.764   2.801   0.615  1.9040 -0.3058  0.5207
 3066SOL     OW10105   3.311   3.229   7.356 -0.2358 -0.3784 -0.4314
 3066SOL    HW110106   3.276   3.192   7.437  0.3548 -0.0182 -0.0127
 3066SOL    HW210107   3.396   3.264   7.380 -0.9685  1.7133 -0.6893
 3067SOL     OW10108   6.536   6.127   1.041 -0.3080  0.5390 -0.0567
 3067SOL    HW110109   6.547   6.085   1.126 -2.0345 -1.8638 -0.8977
 3067SOL    HW210110   6.601   6.085   0.985 -0.2831  0.9013 -0.2960
 3068SOL     OW10111   7.171   1.165   4.983  0.2120  0.8970  0.0750
 3068SOL    HW110112   7.124   1.117   4.916 -3.0067 -0.4552  2.9767
 3068SOL    HW210113   7.116   1.241   5.001 -0.3081  0.0217  2.6382
 3069SOL     OW10114   3.013   0.467   6.278 -0.0447 -0.2584  0.0884
 3069SOL    HW110115   2.977   0.477   6.366  0.5444 -0.0918  0.3176
 3069SOL    HW210116   2.954   0.406   6.235 -0.6758  0.1198  0.4045
 3070SOL     OW10117   2.907   2.063   2.372  0.2701  0.4630  0.2097
 3070SOL    HW110118   2.851   2.057   2.449  1.5733 -0.4544  1.1293
 3070SOL    HW210119   2.961   2.140   2.388 -1.5945  2.2151 -1.3432
 3071SOL     OW10120   7.236   6.283   3.193  0.9262  0.1673 -0.0280
 3071SOL    HW110121   7.237   6.259   3.285 -0.6995 -0.6580 -0.1725
 3071SOL    HW210122   7.326   6.308   3.172  1.4203 -0.1475  1.6389
 3072SOL     OW10123   1.518   6.090   4.608 -0.2189 -0.1204 -0.0451
 3072SOL    HW110124   1.458   6.025   4.573  0.7649 -1.7394  1.1747
 3072SOL    HW210125   1.605   6.058   4.585  0.3730 -0.2784  2.2139
 3073SOL     OW10126   4.903   5.200   0.753  0.2558 -0.2676 -0.2523
 3073SOL    HW110127   4.997   5.220   0.752  0.0673  0.8675  1.0385
 3073SOL    HW210128   4.875   5.215   0.663  1.3292 -0.7225 -0.6816
 3074SOL     OW10129   1.074   2.444   2.864  0.2167  0.2911  0.0262
 3074SOL    HW110130   1.116   2.424   2.948  0.5423  0.4227 -0.1037
 3074SOL    HW210131   0.983   2.464   2.887 -0.1177 -1.3154  0.1601
 3075SOL     OW10132   4.433   3.005   5.677 -0.4059 -0.0647 -0.4431
 3075SOL    HW110133   4.381   2.996   5.757  1.2951 -0.9998  0.6273
 3075SOL    HW210134   4.408   2.930   5.623  0.0626 -0.7288  0.2325
 3076SOL     OW10135   3.976   2.676   7.373  0.5999 -0.0587  0.1517
 3076SOL    HW110136   3.900   2.704   7.423 -0.8109  0.0649 -1.9136
 3076SOL    HW210137   4.048   2.730   7.406 -0.5900  1.0899  0.9691
 3077SOL     OW10138   5.878   7.732   4.763  0.1934 -0.6039 -0.1598
 3077SOL    HW110139   5.927   7.780   4.696  0.0455 -0.8345 -0.4339
 3077SOL    HW210140   5.886   7.640   4.737  0.4818 -0.7337  0.3660
 3078SOL     OW10141   2.945   5.454   0.897  0.3100  0.5746  0.4424
 3078SOL    HW110142   2.862   5.430   0.855  1.9203 -0.8503 -2.1754
 3078SOL    HW210143   2.984   5.370   0.921  2.3694  0.9572 -1.2863
 3079SOL     OW10144   4.937   3.945   1.065  0.6270 -0.8064 -0.5300
 3079SOL    HW110145   4.951   3.876   1.000  1.1226  0.3839 -1.7488
 3079SOL    HW210146   5.016   3.943   1.119 -0.4212 -2.7842  1.0599
 3080SOL     OW10147   6.261   3.339   7.169 -0.0897  0.3777  0.5917
 3080SOL    HW110148   6.326   3.275   7.200 -2.1703 -2.0091  0.3294
 3080SOL    HW210149   6.180   3.315   7.214 -1.1809  2.2929 -0.2411
 3081SOL     OW10150   6.275   0.017   0.164  0.1862 -0.6048  0.1825
 3081SOL    HW110151   6.265  -0.060   0.220 -0.2729 -0.9531 -0.3728
 3081SOL    HW210152   6.236  -0.008   0.081  0.6605 -0.0124 -0.2304
 3082SOL     OW10153   0.601   6.951   5.632  0.3946 -0.1180 -0.0721
 3082SOL    HW110154   0.662   6.902   5.577 -0.9080  0.1990 -1.8656
 3082SOL    HW210155   0.625   7.043   5.619 -0.7787  0.0485 -1.2467
 3083SOL     OW10156   5.743   2.412   0.929 -0.4060  0.2355  0.0202
 3083SOL    HW110157   5.829   2.427   0.967 -0.5919 -1.1851  1.0645
 3083SOL    HW210158   5.720   2.495   0.888  1.0138  0.9436  0.6069
 3084SOL     OW10159   4.769   1.505   4.007  0.1388  0.2987 -0.4134
 3084SOL    HW110160   4.852   1.525   4.051 -0.1518 -0.6892  0.6139
 3084SOL    HW210161   4.769   1.563   3.931  1.9518  0.0470 -0.6559
 3085SOL     OW10162   7.508   1.612   5.068 -0.2683 -0.2041 -0.6654
 3085SOL    HW110163   7.469   1.699   5.068 -0.7282 -0.4018 -1.3399
 3085SOL    HW210164   7.444   1.556   5.112 -0.7782 -0.5257 -1.7626
 3086SOL     OW10165   6.803   5.693   3.606 -0.1817 -0.2352  0.2939
 3086SOL    HW110166   6.868   5.634   3.646 -0.2098 -0.8066 -0.4791
 3086SOL    HW210167   6.854   5.767   3.573 -0.0192 -0.3032  0.3917
 3087SOL     OW10168   4.437   2.675   6.668 -0.7065 -0.3640 -0.2261
 3087SOL    HW110169   4.387   2.596   6.688 -1.1873 -0.3167 -1.1623
 3087SOL    HW210170   4.498   2.649   6.600  0.4368 -0.3676  0.7787
 3088SOL     OW10171   4.837   1.680   4.226 -0.5416 -0.2371  0.2769
 3088SOL    HW110172   4.789   1.729   4.293  0.0744 -0.8055  1.1454
 3088SOL    HW210173   4.896   1.623   4.275  1.0928  0.5032 -0.7637
 3089SOL     OW10174   2.310   6.022   5.766  0.1147  0.3040  0.4757
 3089SOL    HW110175   2.302   6.113   5.795 -0.0969  0.5949 -0.4514
 3089SOL    HW210176   2.381   6.024   5.702 -0.0998 -0.1295  0.2246
 3090SOL     OW10177   2.402   2.690   6.210  0.5286  0.0213  0.4971
 3090SOL    HW110178   2.446   2.738   6.280 -0.5181  2.5260 -0.4404
 3090SOL    HW210179   2.463   2.694   6.136 -0.4814  2.0428 -0.2919
 3091SOL     OW10180   4.643   2.307   1.378 -0.2791  0.1887  0.8592
 3091SOL    HW110181   4.702   2.382   1.377 -0.9467  0.7284  0.0147
 3091SOL    HW210182   4.698   2.232   1.355 -0.2027  0.9567 -1.8782
 3092SOL     OW10183   3.525   3.642   0.378  0.1729  1.1061  0.3204
 3092SOL    HW110184   3.503   3.735   0.381  0.6610  1.2673 -0.7151
 3092SOL    HW210185   3.565   3.629   0.292  0.8864  0.1152  0.7732
 3093SOL     OW10186   1.338   1.463   1.767 -0.1664  0.1034  0.1253
 3093SOL    HW110187   1.274   1.527   1.736  2.1754  2.4191 -0.3330
 3093SOL    HW210188   1.418   1.483   1.718  1.1306 -2.1784  1.1246
 3094SOL     OW10189   5.928   1.142   6.248 -0.1958  0.3687  0.1016
 3094SOL    HW110190   5.858   1.203   6.273  1.9225  2.0830  2.4749
 3094SOL    HW210191   5.989   1.195   6.196  0.6427 -0.2824  0.3871
 3095SOL     OW10192   7.509   7.492   1.127  0.3694  0.4539  0.1336
 3095SOL    HW110193   7.518   7.575   1.081  1.5221  0.1529 -0.2110
 3095SOL    HW210194   7.484   7.429   1.060 -1.0186  0.5834  0.4789
 3096SOL     OW10195   3.119   2.731   6.047  0.1570 -0.4013  0.0504
 3096SOL    HW110196   3.209   2.724   6.015  0.5736 -0.6627  1.2295
 3096SOL    HW210197   3.129   2.754   6.140 -0.9455 -2.5841  0.7629
 3097SOL     OW10198   4.067   6.085   5.743  0.0126 -0.1742  0.6449
 3097SOL    HW110199   4.066   5.990   5.731 -2.7391 -0.1707  0.0243
 3097SOL    HW210200   4.053   6.097   5.837 -0.9146 -0.4144  0.5463
 3098SOL     OW10201   7.458   1.056   3.855  0.4933  0.6208 -0.2124
 3098SOL    HW110202   7.531   1.064   3.794  0.4051 -0.0773 -0.4209
 3098SOL    HW210203   7.475   0.974   3.902 -0.7808 -0.2181 -1.1370
 3099SOL     OW10204   5.566   0.530   0.817  0.6242  0.0184  0.4796
 3099SOL    HW110205   5.660   0.547   0.824  0.6438  0.0931  0.0581
 3099SOL    HW210206   5.532   0.606   0.771  0.3718 -0.0572  0.5436
 3100SOL     OW10207   2.188   6.518   6.020  0.0182 -0.3556  0.3884
 3100SOL    HW110208   2.099   6.521   5.983 -0.1375  1.9805  0.7926
 3100SOL    HW210209   2.194   6.597   6.074  2.6518  0.0428 -0.3373
 3101SOL     OW10210   5.959   4.469   4.430  0.2916  0.1048  0.4589
 3101SOL    HW110211   5.986   4.515   4.350 -3.4935  0.9764 -0.5114
 3101SOL    HW210212   5.903   4.398   4.398  0.0104 -0.5664  2.3272
 3102SOL     OW10213   4.785   2.084   2.144 -0.6591  0.2818 -1.0541
 3102SOL    HW110214   4.753   2.167   2.178 -2.4290 -0.0107 -1.9226
 3102SOL    HW210215   4.880   2.088   2.156 -0.9451  1.2834  1.3614
 3103SOL     OW10216   6.550   4.150   1.918 -0.1537  0.0410  0.1271
 3103SOL    HW110217   6.586   4.142   2.006 -1.6946 -0.7007  0.7200
 3103SOL    HW210218   6.553   4.061   1.882  1.9025  0.5729 -1.2145
 3104SOL     OW10219   5.096   0.367   3.484 -0.3074  0.1591  0.4838
 3104SOL    HW110220   5.178   0.407   3.513  0.4281 -1.4307  0.7141
 3104SOL    HW210221   5.050   0.437   3.438  1.7522  0.7776 -0.7660
 3105SOL     OW10222   1.104   4.841   6.274  0.1314  0.0244 -0.6448
 3105SOL    HW110223   1.025   4.788   6.287  0.7225 -0.6375  0.4357
 3105SOL    HW210224   1.086   4.922   6.322  0.9294 -1.0148  1.5584
 3106SOL     OW10225   1.114   7.346   7.644  0.2433  0.0797 -0.7969
 3106SOL    HW110226   1.200   7.366   7.605 -0.7955 -0.2217 -3.4313
 3106SOL    HW210227   1.135   7.294   7.722  2.5239  2.0594  0.0548
 3107SOL     OW10228   6.793   7.322   6.239 -0.0425 -0.0605  0.1874
 3107SOL    HW110229   6.859   7.391   6.249  1.4435 -1.2051 -1.1135
 3107SOL    HW210230   6.768   7.299   6.328  1.0650  0.6716  0.7050
 3108SOL     OW10231   2.026   1.078   0.047 -0.5466  0.9440  0.3064
 3108SOL    HW110232   2.090   1.072   0.117 -0.8611  0.4979  0.5582
 3108SOL    HW210233   2.075   1.110  -0.028  0.8597 -2.8624 -0.6191
 3109SOL     OW10234   0.631   3.516   4.971  0.1305  0.0073 -0.0236
 3109SOL    HW110235   0.639   3.555   4.884  1.1835  0.6929  0.3585
 3109SOL    HW210236   0.628   3.421   4.955  0.5904  0.1154 -0.7815
 3110SOL     OW10237   6.520   6.711   6.512 -0.1860  0.5106 -0.3119
 3110SOL    HW110238   6.507   6.702   6.606 -0.3367  0.4575 -0.3382
 3110SOL    HW210239   6.604   6.757   6.503 -1.1581  2.4161 -0.1111
 3111SOL     OW10240   6.349   2.385   4.076  0.6400 -0.5785 -0.5580
 3111SOL    HW110241   6.428   2.435   4.056  0.3562  0.9673  1.8254
 3111SOL    HW210242   6.378   2.318   4.138 -0.0311  0.5945  1.0718
 3112SOL     OW10243   5.622   6.666   4.855 -0.1095  0.1905 -0.6983
 3112SOL    HW110244   5.629   6.624   4.770  1.8317  0.5991 -0.7842
 3112SOL    HW210245   5.623   6.593   4.918 -0.7754 -0.0690 -0.9798
 3113SOL     OW10246   6.061   0.454   3.707 -0.8307 -0.0002  0.3917
 3113SOL    HW110247   6.059   0.437   3.801 -0.3087 -3.6896 -0.1118
 3113SOL    HW210248   6.153   0.473   3.688 -0.8818  0.4280  0.5598
 3114SOL     OW10249   3.871   7.144   7.270  0.3535 -0.1910 -0.4616
 3114SOL    HW110250   3.889   7.059   7.229  1.1172 -0.0440 -0.4602
 3114SOL    HW210251   3.947   7.159   7.327 -1.0471 -0.7988  1.7061
 3115SOL     OW10252   6.475   1.286   0.307  0.3341  0.0638 -0.2545
 3115SOL    HW110253   6.422   1.255   0.233  0.5086  0.4824 -0.5616
 3115SOL    HW210254   6.413   1.296   0.379  0.2629 -0.9003 -0.1815
 3116SOL     OW10255   2.203   1.597   7.402  0.4210 -0.0202 -0.3322
 3116SOL    HW110256   2.235   1.514   7.367  1.5144  0.2692 -0.0512
 3116SOL    HW210257   2.282   1.647   7.423 -0.2097  0.6180  0.6351
 3117SOL     OW10258   6.624   3.805   6.111  1.0558  0.1217 -0.5657
 3117SOL    HW110259   6.588   3.893   6.125 -0.8471 -0.3671 -2.0409
 3117SOL    HW210260   6.641   3.772   6.199 -0.6440  0.9972  0.1423
 3118SOL     OW10261   0.597   5.051   0.520  0.1565 -0.0624  0.2276
 3118SOL    HW110262   0.606   5.144   0.542  2.5555 -0.4219  1.1378
 3118SOL    HW210263   0.571   5.009   0.602 -1.2423 -0.1962 -0.2594
 3119SOL     OW10264   6.472   4.505   3.109  0.6679  0.0107  0.3175
 3119SOL    HW110265   6.452   4.596   3.131 -1.5822 -0.3399 -0.0269
 3119SOL    HW210266   6.547   4.510   3.051  1.9281  1.4676  1.9812
 3120SOL     OW10267   2.449   0.483   1.103  0.5937 -0.6472  0.2172
 3120SOL    HW110268   2.422   0.552   1.043 -0.5086  0.0081  1.3974
 3120SOL    HW210269   2.544   0.485   1.102  0.5771  0.9433  0.2555
 3121SOL     OW10270   6.819   5.182   2.212 -0.2149 -0.2401 -0.2655
 3121SOL    HW110271   6.790   5.185   2.121 -0.0356  0.9326 -0.2916
 3121SOL    HW210272   6.741   5.158   2.261 -0.9541  1.5603 -0.4800
 3122SOL     OW10273   2.153   6.016   1.450  0.1534  0.9946 -0.0096
 3122SOL    HW110274   2.209   6.059   1.515 -0.6116 -0.0630  1.4201
 3122SOL    HW210275   2.064   6.031   1.482 -0.2530  0.6086 -0.9347
 3123SOL     OW10276   0.125   1.733   0.143 -0.2071 -0.4465 -0.2297
 3123SOL    HW110277   0.114   1.787   0.221 -1.7923  0.5821 -1.1114
 3123SOL    HW210278   0.215   1.749   0.115 -1.1374  3.5301 -1.6435
 3124SOL     OW10279   0.374   5.531   5.537  0.2207  0.4930 -0.2890
 3124SOL    HW110280   0.450   5.522   5.595 -1.6748  0.8966  2.4778
 3124SOL    HW210281   0.343   5.620   5.554  0.0034  0.9237 -2.6173
 3125SOL     OW10282   0.157   7.189   3.780 -0.8395 -0.4129 -0.0535
 3125SOL    HW110283   0.108   7.244   3.719  0.2728  1.0368  0.2922
 3125SOL    HW210284   0.249   7.211   3.762 -0.3502 -2.2001  0.0871
 3126SOL     OW10285   5.057   2.539   0.578  0.3271  0.1725 -0.0881
 3126SOL    HW110286   5.028   2.555   0.668 -1.0986 -1.6962 -0.1567
 3126SOL    HW210287   5.152   2.549   0.582  0.5114 -1.6300  2.0665
 3127SOL     OW10288   1.883   2.233   4.138  0.2123  0.0393  0.4370
 3127SOL    HW110289   1.874   2.277   4.053  1.6686 -1.1710 -0.3856
 3127SOL    HW210290   1.805   2.259   4.186  0.4839  2.6718 -0.3796
 3128SOL     OW10291   0.981   1.028   1.094  0.0345  0.2888  0.3778
 3128SOL    HW110292   1.057   1.005   1.041 -0.2169 -0.8434  0.5035
 3128SOL    HW210293   1.018   1.055   1.178  0.3547  0.8706  0.0606
 3129SOL     OW10294   6.700   2.221   0.056  0.9712 -0.1828 -0.4757
 3129SOL    HW110295   6.697   2.136   0.011  0.8598 -0.3808 -0.1014
 3129SOL    HW210296   6.705   2.198   0.149  0.2437  0.2231 -0.3342
 3130SOL     OW10297   6.521   5.529   4.102 -0.3116 -0.6287  0.2251
 3130SOL    HW110298   6.531   5.594   4.032 -0.3919 -1.3021 -0.4237
 3130SOL    HW210299   6.609   5.495   4.116 -0.3761 -0.8517  0.0967
 3131SOL     OW10300   5.964   2.525   6.884  0.4813 -0.2576  0.0763
 3131SOL    HW110301   5.922   2.443   6.907  1.1758 -0.1517  1.8843
 3131SOL    HW210302   5.896   2.591   6.894 -0.4370 -0.6607 -2.5833
 3132SOL     OW10303   7.131   6.120   6.252  0.2579 -0.3393 -0.1953
 3132SOL    HW110304   7.218   6.113   6.213  0.6075  0.0522  0.4970
 3132SOL    HW210305   7.143   6.179   6.327 -0.5461 -0.4987  0.0656
 3133SOL     OW10306   3.476   0.393   3.417 -0.5190  0.0689 -0.2786
 3133SOL    HW110307   3.558   0.344   3.406 -1.2459 -1.0801 -0.8672
 3133SOL    HW210308   3.470   0.446   3.337  0.0219  0.7650  0.1280
 3134SOL     OW10309   4.179   4.246   3.682  0.6991 -0.3982  0.0473
 3134SOL    HW110310   4.096   4.200   3.666  0.9649 -0.8970  0.0778
 3134SOL    HW210311   4.162   4.336   3.656  0.0985 -0.4663  0.2030
 3135SOL     OW10312   4.426   1.113   4.491 -0.2853 -0.4554  0.0887
 3135SOL    HW110313   4.349   1.163   4.466 -0.4930 -0.5119  0.5915
 3135SOL    HW210314   4.493   1.178   4.511 -0.5780 -0.3627  0.8155
 3136SOL     OW10315   2.307   6.198   0.622 -0.6307  0.4616  0.3679
 3136SOL    HW110316   2.354   6.236   0.548 -1.5072  0.6291 -0.1196
 3136SOL    HW210317   2.303   6.269   0.686  1.9700 -0.2980  1.5050
 3137SOL     OW10318   5.993   0.045   0.478  0.2190 -0.2117  0.0531
 3137SOL    HW110319   6.068   0.100   0.454  0.1706 -0.2817 -0.2669
 3137SOL    HW210320   5.925   0.108   0.502  0.1849 -0.1281 -0.2516
 3138SOL     OW10321   5.039   4.564   1.332  0.4712 -0.4098  0.2276
 3138SOL    HW110322   5.079   4.651   1.328  0.7379 -0.5584 -0.4243
 3138SOL    HW210323   5.057   4.534   1.422  3.6176 -1.2860 -0.5424
 3139SOL     OW10324   3.871   6.791   0.413 -0.2532  0.3602  0.2101
 3139SOL    HW110325   3.818   6.862   0.450  0.1325 -0.1904  1.8711
 3139SOL    HW210326   3.860   6.718   0.473  1.3051 -0.2186 -0.1513
 3140SOL     OW10327   1.907   1.807   6.078 -0.1557  0.1055 -0.3807
 3140SOL    HW110328   1.873   1.815   5.989 -1.4232  1.2783  0.1679
 3140SOL    HW210329   1.852   1.741   6.120 -2.2229  2.3330  0.6462
 3141SOL     OW10330   6.179   4.362   6.754 -0.1801  0.0127  0.3051
 3141SOL    HW110331   6.174   4.307   6.832 -0.3490 -2.0090 -1.0286
 3141SOL    HW210332   6.169   4.451   6.786 -0.1918 -0.7412  2.5769
 3142SOL     OW10333   3.424   4.274   0.104 -0.5241  0.3348  0.0097
 3142SOL    HW110334   3.349   4.239   0.055 -1.9778  0.6030  1.9172
 3142SOL    HW210335   3.385   4.338   0.164  0.6731 -1.8612  3.4303
 3143SOL     OW10336   3.797   4.418   2.560 -0.2453 -0.8761  0.2742
 3143SOL    HW110337   3.868   4.481   2.548 -0.4951 -0.3339  1.5035
 3143SOL    HW210338   3.777   4.388   2.471 -0.6035  1.3367 -0.4658
 3144SOL     OW10339   1.869   4.529   1.317 -0.8683 -0.5262 -0.6707
 3144SOL    HW110340   1.775   4.519   1.303 -0.7951 -0.8534 -0.9543
 3144SOL    HW210341   1.904   4.441   1.303 -0.5614 -0.4710 -0.2431
 3145SOL     OW10342   7.586   6.889   6.557  0.0544 -0.1847 -0.4875
 3145SOL    HW110343   7.515   6.952   6.569  0.9057  0.4692  1.5599
 3145SOL    HW210344   7.542   6.804   6.557 -0.7161  0.1858  1.0836
 3146SOL     OW10345   3.300   3.149   6.463  0.7090  0.3391  0.4649
 3146SOL    HW110346   3.381   3.104   6.487 -0.2787 -0.7045  2.1177
 3146SOL    HW210347   3.273   3.108   6.381  2.4174  1.5360 -0.7564
 3147SOL     OW10348   3.343   4.721   7.288 -0.4303  0.1806 -0.2745
 3147SOL    HW110349   3.258   4.689   7.257 -0.0697 -0.1856 -0.9042
 3147SOL    HW210350   3.376   4.652   7.345 -0.4301  0.1981 -0.2530
 3148SOL     OW10351   4.637   0.000   6.972 -0.0627 -0.4449 -0.4086
 3148SOL    HW110352   4.658   0.090   6.997  0.6471 -0.1776 -1.8204
 3148SOL    HW210353   4.588   0.009   6.890  0.1035 -1.3521 -0.6202
 3149SOL     OW10354   6.603   2.562   1.404  0.3698 -0.1707 -0.4171
 3149SOL    HW110355   6.646   2.643   1.432  0.9292 -0.6213  0.0653
 3149SOL    HW210356   6.512   2.587   1.390  0.0838  0.1270  1.6638
 3150SOL     OW10357   1.767   0.202   4.201 -0.3116 -0.6213  0.0303
 3150SOL    HW110358   1.806   0.149   4.271  0.4617  0.7011  0.6459
 3150SOL    HW210359   1.722   0.139   4.145  0.8580 -1.9581  0.5417
 3151SOL     OW10360   0.982   4.110   6.428 -0.4638 -0.0908  0.3192
 3151SOL    HW110361   1.040   4.052   6.477 -0.8459 -0.2814  0.5535
 3151SOL    HW210362   1.040   4.157   6.368 -0.3122 -1.7396 -0.8950
 3152SOL     OW10363   2.124   0.331   3.421 -0.5672 -0.4709  0.3749
 3152SOL    HW110364   2.142   0.405   3.479  0.9863 -1.3886  1.1419
 3152SOL    HW210365   2.039   0.351   3.382 -1.3799  0.5099  2.4797
 3153SOL     OW10366   7.077   3.170   2.603 -0.3133 -0.2549  0.2465
 3153SOL    HW110367   7.043   3.216   2.526  1.2935  0.2464 -0.2108
 3153SOL    HW210368   7.048   3.222   2.678 -1.4208 -0.4364 -0.0440
 3154SOL     OW10369   4.174   7.237   0.977 -0.0482 -0.7362 -0.2658
 3154SOL    HW110370   4.231   7.293   0.923 -1.8909 -0.9053 -2.5402
 3154SOL    HW210371   4.088   7.246   0.937 -0.9765 -3.0009  1.0808
 3155SOL     OW10372   3.514   3.289   7.037 -0.4622 -0.3193 -0.0611
 3155SOL    HW110373   3.432   3.240   7.035  0.1770 -1.4846  0.9668
 3155SOL    HW210374   3.543   3.291   6.946 -0.3374 -2.1831 -0.0931
 3156SOL     OW10375   6.885   4.217   2.053  0.5628  0.1472  0.4804
 3156SOL    HW110376   6.907   4.287   1.991 -0.1207 -0.4703 -0.4797
 3156SOL    HW210377   6.970   4.185   2.083  0.9338 -0.1135 -0.7991
 3157SOL     OW10378   6.367   0.418   5.976 -0.2636  0.7130  0.7827
 3157SOL    HW110379   6.404   0.338   5.939 -0.1467  0.8842  0.5221
 3157SOL    HW210380   6.278   0.394   6.001 -0.2255  0.4980  0.7160
 3158SOL     OW10381   4.289   0.866   2.144 -0.3069 -0.1004  0.0421
 3158SOL    HW110382   4.380   0.854   2.169 -0.0347  1.8369  0.1097
 3158SOL    HW210383   4.284   0.835   2.054  0.8996  1.5310 -0.6383
 3159SOL     OW10384   6.610   3.945   2.586  0.0478  0.3707 -0.4222
 3159SOL    HW110385   6.524   3.924   2.549  0.1642 -0.1999 -0.3781
 3159SOL    HW210386   6.597   3.940   2.680  0.5199 -1.4062 -0.4168
 3160SOL     OW10387   0.560   2.618   4.941 -0.1983 -0.0084 -0.1055
 3160SOL    HW110388   0.647   2.640   4.974  0.1800  0.1257 -1.1480
 3160SOL    HW210389   0.500   2.646   5.010  0.4625  1.6623 -0.1669
 3161SOL     OW10390   0.573   4.534   1.015  0.7563  0.9391 -0.5703
 3161SOL    HW110391   0.590   4.484   0.935 -0.6420  0.2054 -0.4601
 3161SOL    HW210392   0.641   4.505   1.076 -1.2596 -2.7392  0.2542
 3162SOL     OW10393   5.616   5.833   6.968 -1.1690  0.5415  0.0423
 3162SOL    HW110394   5.621   5.740   6.990  2.1922  0.7539  0.6827
 3162SOL    HW210395   5.588   5.834   6.876  3.7318 -1.6267 -1.8669
 3163SOL     OW10396   3.215   6.586   5.739  0.2405  0.0041 -0.4764
 3163SOL    HW110397   3.275   6.612   5.670  1.0631 -2.2027 -0.6801
 3163SOL    HW210398   3.144   6.540   5.694 -1.1007  1.6499 -0.1391
 3164SOL     OW10399   3.268   7.165   3.078 -0.2195 -0.1882 -0.3148
 3164SOL    HW110400   3.202   7.101   3.051 -0.7752  0.1645  0.1730
 3164SOL    HW210401   3.219   7.228   3.132  0.7252 -0.5500  1.0051
 3165SOL     OW10402   2.444   2.161   5.397  0.4950  0.2772  0.6375
 3165SOL    HW110403   2.503   2.116   5.336 -1.0063 -0.1480 -0.5492
 3165SOL    HW210404   2.464   2.123   5.482  1.3612 -0.4499  0.1281
 3166SOL     OW10405   4.141   3.310   5.414  0.5003 -0.2882  0.1289
 3166SOL    HW110406   4.161   3.259   5.335 -0.4815  1.0897 -1.0576
 3166SOL    HW210407   4.150   3.247   5.486  1.7567 -1.5034 -1.0187
 3167SOL     OW10408   2.079   7.361   4.641  0.5962  0.5030  0.2287
 3167SOL    HW110409   2.130   7.401   4.571  2.1747  1.1153  1.6376
 3167SOL    HW210410   2.024   7.432   4.675  0.9862  0.6351  0.5997
 3168SOL     OW10411   7.510   5.018   2.228 -0.1652  0.3811  0.0459
 3168SOL    HW110412   7.445   5.028   2.297 -0.0408  0.7042  0.1194
 3168SOL    HW210413   7.469   5.056   2.151 -0.6813 -0.8401 -0.3038
 3169SOL     OW10414   7.672   5.398   7.744 -0.2836  0.0909 -0.2382
 3169SOL    HW110415   7.645   5.348   7.667 -1.2015  0.5493 -0.2215
 3169SOL    HW210416   7.593   5.407   7.797 -0.5245  2.6753 -0.8731
 3170SOL     OW10417   4.941   7.696   6.637 -0.4055  0.0439 -0.2451
 3170SOL    HW110418   4.930   7.675   6.730  0.1085 -0.2966 -0.2601
 3170SOL    HW210419   4.863   7.748   6.616 -0.5811  0.0378  0.3474
 3171SOL     OW10420   1.932   3.421   3.175 -0.1985  0.1203  0.1089
 3171SOL    HW110421   1.912   3.336   3.135 -1.1317 -0.9535  2.6916
 3171SOL    HW210422   1.968   3.400   3.261 -1.5552  2.3330  1.3140
 3172SOL     OW10423   6.534   1.882   2.976 -0.4443 -0.0064 -0.5498
 3172SOL    HW110424   6.597   1.934   3.026 -0.8540  2.4533 -2.4156
 3172SOL    HW210425   6.567   1.792   2.982  1.9213  0.8483  0.4434
 3173SOL     OW10426   3.680   0.729   5.399 -0.2673 -0.0530  0.1384
 3173SOL    HW110427   3.645   0.726   5.488 -1.8021 -0.7204 -0.4542
 3173SOL    HW210428   3.631   0.800   5.357  0.8704  0.6587 -0.0350
 3174SOL     OW10429   5.184   1.405   1.357 -0.3964 -0.4793 -0.2958
 3174SOL    HW110430   5.220   1.396   1.446  0.9490  2.8980 -0.3207
 3174SOL    HW210431   5.222   1.487   1.325 -4.1489  0.6780 -2.3768
 3175SOL     OW10432   6.280   1.612   4.307  0.0178  0.1986 -0.1337
 3175SOL    HW110433   6.246   1.542   4.251 -3.0162  1.7097 -0.3619
 3175SOL    HW210434   6.233   1.601   4.390  2.3414 -0.2644  1.2257
 3176SOL     OW10435   4.437   5.695   5.289 -0.1385 -0.3179  0.0623
 3176SOL    HW110436   4.457   5.602   5.301 -0.8176 -0.6650 -1.3428
 3176SOL    HW210437   4.342   5.700   5.296 -0.0989  0.2851  0.2014
 3177SOL     OW10438   1.617   2.134   5.667  0.1092  0.6034 -0.5464
 3177SOL    HW110439   1.692   2.074   5.674 -0.9780 -0.6949  0.4840
 3177SOL    HW210440   1.642   2.194   5.596  3.1463  1.7326  1.2789
 3178SOL     OW10441   5.230   3.386   7.493  0.3344  0.7416  0.0855
 3178SOL    HW110442   5.230   3.342   7.578  1.8708  1.5755  0.5411
 3178SOL    HW210443   5.138   3.406   7.476 -0.3138 -1.7968  0.2758
 3179SOL     OW10444   0.109   3.712   0.434  0.9805 -0.3767 -0.0284
 3179SOL    HW110445   0.049   3.752   0.372 -0.3792 -1.0412  0.8210
 3179SOL    HW210446   0.093   3.756   0.517  0.9703 -1.2166  0.4320
 3180SOL     OW10447   2.600   2.997   2.390 -0.0139 -0.3139  0.3710
 3180SOL    HW110448   2.560   2.976   2.475 -1.3063  2.1019  0.4529
 3180SOL    HW210449   2.626   3.088   2.398  3.3446 -1.0651 -0.6155
 3181SOL     OW10450   2.620   4.882   1.100  0.4852 -0.6245 -0.2763
 3181SOL    HW110451   2.674   4.957   1.127  0.3731 -1.1289  1.4932
 3181SOL    HW210452   2.536   4.898   1.143 -0.0221 -1.0264 -1.1066
 3182SOL     OW10453   5.079   5.586   5.334  0.0929  0.5439  0.0219
 3182SOL    HW110454   5.102   5.494   5.345  2.6624  1.3506  2.4968
 3182SOL    HW210455   4.988   5.592   5.365 -0.0253 -1.0877  0.0669
 3183SOL     OW10456   4.150   4.760   4.481 -0.0481  0.6731  0.2456
 3183SOL    HW110457   4.178   4.816   4.409  0.8842 -1.5823 -1.2557
 3183SOL    HW210458   4.231   4.727   4.519 -0.5521 -0.9968 -0.0559
 3184SOL     OW10459   1.249   0.315   7.501 -0.2829  0.3986 -0.3930
 3184SOL    HW110460   1.325   0.278   7.455 -0.1030 -1.7027  1.4011
 3184SOL    HW210461   1.208   0.239   7.543 -0.3755  2.1420  2.9466
 3185SOL     OW10462   4.247   3.455   0.977  0.2919 -0.6396 -0.4050
 3185SOL    HW110463   4.317   3.458   0.911  1.1191 -0.1170  0.4542
 3185SOL    HW210464   4.166   3.467   0.928  0.8305 -1.0123 -1.4041
 3186SOL     OW10465   4.970   0.837   6.267 -0.2226  0.6673  0.1404
 3186SOL    HW110466   4.882   0.851   6.233 -0.2516  1.3230  0.4755
 3186SOL    HW210467   5.024   0.820   6.190 -0.1055  3.0008 -0.3602
 3187SOL     OW10468   7.633   5.755   1.024  0.4825  0.1230 -0.1282
 3187SOL    HW110469   7.663   5.812   0.954  0.8848 -0.4271 -0.4082
 3187SOL    HW210470   7.713   5.721   1.064  0.2521 -0.5909 -0.2525
 3188SOL     OW10471   6.798   4.336   3.249 -0.0941 -0.0307  0.1534
 3188SOL    HW110472   6.754   4.284   3.183  0.0615 -1.2941  1.0211
 3188SOL    HW210473   6.750   4.419   3.250  0.0933  0.1404 -1.7299
 3189SOL     OW10474   6.927   0.376   7.650  0.0381  0.3561 -0.1968
 3189SOL    HW110475   6.836   0.401   7.634 -0.4988 -0.5811  1.1661
 3189SOL    HW210476   6.979   0.437   7.597 -1.4146 -0.2867 -2.4881
 3190SOL     OW10477   1.454   4.597   3.685  0.8521 -0.1875  0.1457
 3190SOL    HW110478   1.473   4.680   3.642 -0.4616 -0.0534 -0.2050
 3190SOL    HW210479   1.395   4.620   3.757  0.2189 -0.8568 -0.1497
 3191SOL     OW10480   7.740   3.091   3.624  0.5889  0.3174 -0.4315
 3191SOL    HW110481   7.716   3.176   3.586 -2.7190  0.6741  1.9819
 3191SOL    HW210482   7.751   3.109   3.717 -0.2908 -1.8778  0.1563
 3192SOL     OW10483   1.054   3.414   3.666  0.5245  0.2141  0.5012
 3192SOL    HW110484   1.130   3.366   3.698  0.6017 -0.7457 -1.0422
 3192SOL    HW210485   1.090   3.474   3.600 -0.2192 -1.6813 -1.7595
 3193SOL     OW10486   1.679   6.262   5.586 -0.5094  0.6039  0.3267
 3193SOL    HW110487   1.620   6.323   5.541  1.5907  1.6216 -1.3002
 3193SOL    HW210488   1.630   6.180   5.592 -0.9680  0.3066 -4.1584
 3194SOL     OW10489   5.540   4.420   6.165  0.2762 -0.5348  0.4094
 3194SOL    HW110490   5.528   4.406   6.259 -0.3919  0.9362  0.5735
 3194SOL    HW210491   5.453   4.446   6.133  0.8280  0.5624 -0.2857
 3195SOL     OW10492   6.208   6.760   6.841 -0.7556  0.2666  0.5064
 3195SOL    HW110493   6.219   6.824   6.911 -1.3614 -0.8623  1.6911
 3195SOL    HW210494   6.127   6.787   6.797 -1.5475 -0.1938  1.6174
 3196SOL     OW10495   1.864   4.297   3.802 -0.4047 -0.4688 -0.3021
 3196SOL    HW110496   1.894   4.342   3.722 -0.2545  1.9557  1.0086
 3196SOL    HW210497   1.776   4.332   3.817  0.2007  0.4468  1.4482
 3197SOL     OW10498   0.628   0.582   4.450  0.4537  0.3032  0.1429
 3197SOL    HW110499   0.537   0.585   4.478  0.8345 -0.0676  1.5033
 3197SOL    HW210500   0.656   0.493   4.468  1.7372  1.0289  1.9779
 3198SOL     OW10501   6.164   1.779   0.867 -0.2522 -0.1708  0.6833
 3198SOL    HW110502   6.145   1.852   0.926  1.6224  0.3367  0.7085
 3198SOL    HW210503   6.212   1.819   0.794 -0.0650 -1.2303  0.2090
 3199SOL     OW10504   5.439   1.655   2.385  0.3402 -0.2695 -0.2220
 3199SOL    HW110505   5.415   1.735   2.338  0.9380  0.1810  0.2379
 3199SOL    HW210506   5.481   1.685   2.465 -1.9770 -0.9773  1.3882
 3200SOL     OW10507   4.809   0.151   4.762 -0.0997 -0.0225  0.0849
 3200SOL    HW110508   4.817   0.246   4.757 -1.6031  0.0816 -1.4070
 3200SOL    HW210509   4.721   0.133   4.728  0.1345 -1.9527  0.3827
 3201SOL     OW10510   4.258   0.831   1.094 -0.1040  0.2552 -0.5197
 3201SOL    HW110511   4.333   0.888   1.114 -1.0477  1.1229  0.6981
 3201SOL    HW210512   4.283   0.746   1.130 -0.2600  0.8998  1.2105
 3202SOL     OW10513   3.521   1.161   2.292 -0.4773 -0.1776 -0.2660
 3202SOL    HW110514   3.444   1.179   2.239  0.2948 -0.4501 -1.5246
 3202SOL    HW210515   3.548   1.246   2.327 -0.4121  0.1635 -1.1405
 3203SOL     OW10516   3.860   1.960   4.816  0.0406  0.2095  0.1193
 3203SOL    HW110517   3.894   1.882   4.772  0.1966  0.2597  0.1523
 3203SOL    HW210518   3.894   2.033   4.765  0.4641  0.2788  0.4964
 3204SOL     OW10519   6.336   6.084   5.710 -0.6730  0.0797 -1.0548
 3204SOL    HW110520   6.359   6.163   5.759  0.3971 -1.7757  1.6526
 3204SOL    HW210521   6.247   6.063   5.738  0.4106 -1.7285  1.3508
 3205SOL     OW10522   5.013   1.217   5.072  0.4537  0.3864 -0.4077
 3205SOL    HW110523   4.924   1.201   5.102  0.0374  1.3956 -1.0163
 3205SOL    HW210524   5.066   1.218   5.151  0.0441 -0.8983 -0.1016
 3206SOL     OW10525   2.052   4.231   2.856  0.3152  0.3002  0.0156
 3206SOL    HW110526   1.969   4.247   2.813  0.4685  4.5929  0.9324
 3206SOL    HW210527   2.118   4.255   2.791  0.8519 -0.9467  0.0540
 3207SOL     OW10528   5.434   6.025   7.702  0.6650  0.3592  0.1161
 3207SOL    HW110529   5.394   6.049   7.618 -0.3484 -1.5162  0.0070
 3207SOL    HW210530   5.510   6.083   7.710  0.7653  0.6255 -2.0880
 3208SOL     OW10531   0.928   1.602   1.477  0.1104  0.4495 -0.1456
 3208SOL    HW110532   0.842   1.613   1.437 -0.1098  1.1339  0.4914
 3208SOL    HW210533   0.914   1.625   1.569  0.6923 -0.6739  0.2376
 3209SOL     OW10534   1.386   5.613   2.009  0.6143 -0.0936 -0.2910
 3209SOL    HW110535   1.291   5.600   1.998  0.2917  2.1044 -0.5380
 3209SOL    HW210536   1.424   5.529   1.983 -1.2602 -1.0415 -0.1801
 3210SOL     OW10537   4.365   3.788   7.288  0.4240 -0.3496 -0.1847
 3210SOL    HW110538   4.426   3.862   7.293 -0.0561  0.0057  0.4841
 3210SOL    HW210539   4.396   3.737   7.213  1.0235  0.2918 -0.3841
 3211SOL     OW10540   1.568   3.297   7.573  0.1179  0.3684 -0.3856
 3211SOL    HW110541   1.507   3.371   7.581  1.2340  1.6050 -2.4491
 3211SOL    HW210542   1.647   3.335   7.536  1.5597 -1.5049  0.6285
 3212SOL     OW10543   7.359   1.729   6.986 -0.3429 -0.0969 -0.3219
 3212SOL    HW110544   7.346   1.654   6.927 -0.5783  0.0701 -0.4833
 3212SOL    HW210545   7.316   1.802   6.941 -0.6519 -0.0028  0.1249
 3213SOL     OW10546   1.197   7.496   2.587  0.0001 -0.0155  0.2406
 3213SOL    HW110547   1.191   7.559   2.515 -1.4270  1.0130  1.2028
 3213SOL    HW210548   1.287   7.464   2.583  0.2333  0.7405 -1.3862
 3214SOL     OW10549   6.065   1.788   0.467 -0.0626  0.0641 -0.2587
 3214SOL    HW110550   6.039   1.739   0.546  0.5303 -0.6015 -0.4718
 3214SOL    HW210551   6.032   1.877   0.483 -0.9056 -0.3194  0.2616
 3215SOL     OW10552   4.589   3.392   0.507  0.1080 -0.1733  0.0593
 3215SOL    HW110553   4.670   3.444   0.503 -0.0283  0.1442  1.0746
 3215SOL    HW210554   4.538   3.421   0.432  1.6920 -1.7197 -1.7051
 3216SOL     OW10555   6.007   6.488   7.721 -0.2193 -0.0413  0.6091
 3216SOL    HW110556   6.020   6.507   7.814  1.1349 -0.1473  0.4630
 3216SOL    HW210557   5.912   6.476   7.712 -0.6806  2.3604  1.5010
 3217SOL     OW10558   1.745   6.621   3.821  0.3728  0.0066  0.0330
 3217SOL    HW110559   1.808   6.627   3.750 -0.0579 -0.2913 -0.3836
 3217SOL    HW210560   1.794   6.645   3.900  0.5793  1.4253 -0.5016
 3218SOL     OW10561   2.911   3.551   1.872 -0.0799  0.2332 -0.3231
 3218SOL    HW110562   2.821   3.577   1.890 -0.7938 -1.9994 -0.4381
 3218SOL    HW210563   2.937   3.500   1.948 -0.7145 -3.3498 -2.2723
 3219SOL     OW10564   1.057   4.561   5.762 -0.6055 -0.2124  0.0182
 3219SOL    HW110565   0.994   4.554   5.834 -0.8883 -1.1649 -0.3035
 3219SOL    HW210566   1.022   4.503   5.694 -0.8345  1.3319 -1.2580
 3220SOL     OW10567   1.861   1.987   3.199  0.6099 -0.5188  0.4608
 3220SOL    HW110568   1.883   1.994   3.106  1.0613  1.6988  0.6722
 3220SOL    HW210569   1.941   1.958   3.241  1.3941  1.5443  0.4901
 3221SOL     OW10570   5.885   3.969   2.681  0.0063 -0.5068 -0.3872
 3221SOL    HW110571   5.877   4.012   2.766 -0.9273 -1.0486 -0.1851
 3221SOL    HW210572   5.878   4.040   2.617  1.1922 -0.0364 -0.0182
 3222SOL     OW10573   3.850   4.981   0.929  0.2481 -0.0584  0.3921
 3222SOL    HW110574   3.834   5.058   0.983 -1.4233  0.9016 -1.3766
 3222SOL    HW210575   3.873   5.016   0.843  1.0403 -1.5500 -0.0435
 3223SOL     OW10576   5.322   6.689   6.845  0.4270 -0.4283  0.8670
 3223SOL    HW110577   5.356   6.773   6.813  0.4802 -1.6783 -2.9275
 3223SOL    HW210578   5.247   6.712   6.900  0.9413  2.1003  0.6349
 3224SOL     OW10579   7.501   4.693   4.101 -0.0170 -0.4456 -0.1953
 3224SOL    HW110580   7.533   4.747   4.029 -0.5315  1.0253  0.6496
 3224SOL    HW210581   7.530   4.604   4.078 -0.1678 -0.0346 -2.2004
 3225SOL     OW10582   1.320   4.957   5.573 -0.6370  0.6664 -1.1781
 3225SOL    HW110583   1.230   4.950   5.541 -0.8244 -0.0417 -0.5402
 3225SOL    HW210584   1.332   4.878   5.627  0.3637  0.7546 -1.2546
 3226SOL     OW10585   5.530   1.825   7.006 -0.7074 -0.5107  0.3299
 3226SOL    HW110586   5.615   1.786   6.986 -0.3469  0.7660 -0.8029
 3226SOL    HW210587   5.549   1.894   7.070 -0.6938  0.5197 -0.7553
 3227SOL     OW10588   1.411   1.815   3.602  0.2707 -0.3202 -0.1509
 3227SOL    HW110589   1.384   1.907   3.595  1.3982  0.0125 -0.3474
 3227SOL    HW210590   1.432   1.803   3.695  1.4968  0.0438 -0.3621
 3228SOL     OW10591   6.126   1.210   6.087 -0.3316 -0.1554 -0.6725
 3228SOL    HW110592   6.186   1.155   6.037 -0.8943 -0.5434 -0.9291
 3228SOL    HW210593   6.142   1.299   6.053 -0.8548 -0.4414 -1.7132
 3229SOL     OW10594   4.075   0.008   1.173 -0.4231 -0.0942  0.5531
 3229SOL    HW110595   4.009   0.070   1.141 -1.1152  0.1347  2.2914
 3229SOL    HW210596   4.035  -0.078   1.162 -0.2057 -0.1057 -0.1845
 3230SOL     OW10597   1.807   3.179   3.061  0.3390 -0.3045 -0.2982
 3230SOL    HW110598   1.728   3.170   3.114  0.1497  0.7123 -0.3967
 3230SOL    HW210599   1.818   3.093   3.020 -1.3771 -0.1360 -1.1974
 3231SOL     OW10600   7.229   5.534   1.122  0.4347  0.2727 -0.0072
 3231SOL    HW110601   7.168   5.460   1.127  0.9784 -0.1360  0.7494
 3231SOL    HW210602   7.200   5.584   1.045  0.3981 -1.0241 -0.8670
 3232SOL     OW10603   3.862   6.509   5.961 -0.0738 -0.0722 -0.4287
 3232SOL    HW110604   3.883   6.586   5.909 -0.8235  0.8719  0.5998
 3232SOL    HW210605   3.909   6.522   6.044 -0.7744 -0.3370  0.0271
 3233SOL     OW10606   3.928   3.487   2.221 -0.2180  0.2102  0.3159
 3233SOL    HW110607   3.969   3.417   2.172  0.8866  0.6414  0.5913
 3233SOL    HW210608   3.836   3.461   2.229 -0.0300 -0.7137 -0.4221
 3234SOL     OW10609   6.379   5.521   0.865  0.2842  0.4893  0.1220
 3234SOL    HW110610   6.286   5.528   0.842  0.1532 -0.9514  0.1271
 3234SOL    HW210611   6.380   5.511   0.960  0.3882 -0.3657  0.0325
 3235SOL     OW10612   5.073   1.954   0.617  0.9370 -0.2783  0.0932
 3235SOL    HW110613   5.094   2.047   0.602 -1.4367  0.4153  0.6411
 3235SOL    HW210614   5.017   1.931   0.543  0.0927 -0.7397  0.8595
 3236SOL     OW10615   0.364   6.838   2.395 -0.2695  0.4983  0.5959
 3236SOL    HW110616   0.338   6.793   2.476 -0.1820 -0.2215  0.2282
 3236SOL    HW210617   0.395   6.768   2.337 -1.4676  0.8590 -0.5179
 3237SOL     OW10618   6.555   1.546   2.499 -0.4467  0.0387 -0.0572
 3237SOL    HW110619   6.460   1.552   2.498 -0.5480 -0.9106 -2.1834
 3237SOL    HW210620   6.583   1.603   2.427  0.6608  0.8951  1.0140
 3238SOL     OW10621   0.212   6.069   1.635  0.0538  0.1550 -0.1587
 3238SOL    HW110622   0.179   6.117   1.712  1.1597  0.4220  0.1615
 3238SOL    HW210623   0.160   6.103   1.562  1.4327  2.5800 -0.1038
 3239SOL     OW10624   3.565   5.778   0.624  0.2328  0.5087  0.3574
 3239SOL    HW110625   3.588   5.687   0.605 -0.1931  0.1524  1.4856
 3239SOL    HW210626   3.475   5.773   0.656 -1.0389  1.7082 -2.6727
 3240SOL     OW10627   2.301   4.595   2.651 -0.1177  0.1290  0.6843
 3240SOL    HW110628   2.356   4.536   2.600  0.3904  0.0218  1.3391
 3240SOL    HW210629   2.226   4.541   2.677 -0.9104  0.4569 -0.7772
 3241SOL     OW10630   1.543   1.050   4.631 -0.8893  0.2390  0.1671
 3241SOL    HW110631   1.466   1.093   4.669 -1.0020  2.6186 -2.4573
 3241SOL    HW210632   1.616   1.109   4.652  0.0326 -1.2589  1.3767
 3242SOL     OW10633   7.439   3.771   6.747 -0.3822  0.1671  0.2423
 3242SOL    HW110634   7.454   3.763   6.653  1.7256 -0.4039  0.5759
 3242SOL    HW210635   7.356   3.817   6.754 -0.9095 -0.3496 -1.8912
 3243SOL     OW10636   2.942   3.494   2.146 -0.3358  0.0334  0.4416
 3243SOL    HW110637   2.948   3.574   2.199 -2.7912 -0.6423  1.8670
 3243SOL    HW210638   2.954   3.422   2.208  0.7507 -0.7849 -0.6505
 3244SOL     OW10639   1.759   3.975   6.116  0.6487 -0.0196  0.0004
 3244SOL    HW110640   1.773   4.050   6.058  0.1507  1.2938  1.4812
 3244SOL    HW210641   1.828   3.913   6.093  0.8265  0.7067 -1.5507
 3245SOL     OW10642   7.483   5.042   4.581  0.1575 -0.4941 -0.3323
 3245SOL    HW110643   7.435   5.108   4.531  1.8131 -0.8332 -2.5174
 3245SOL    HW210644   7.426   4.965   4.579 -0.7878  0.1616  0.2939
 3246SOL     OW10645   6.070   3.261   4.200  0.2448 -0.1322  0.0382
 3246SOL    HW110646   6.131   3.322   4.159  1.1844 -1.1045 -0.0500
 3246SOL    HW210647   5.996   3.257   4.140  1.0167 -0.5227 -0.9161
 3247SOL     OW10648   1.652   6.579   6.114  0.6033  0.3067  0.3077
 3247SOL    HW110649   1.738   6.562   6.151  0.8327  0.2497 -0.2459
 3247SOL    HW210650   1.632   6.501   6.063  1.9685  1.8465 -2.8299
 3248SOL     OW10651   4.858   5.780   2.160  0.0015  0.4012 -0.7088
 3248SOL    HW110652   4.902   5.699   2.132  1.9966  1.1132  0.1497
 3248SOL    HW210653   4.887   5.846   2.097  0.9002  1.0646  0.3589
 3249SOL     OW10654   5.234   2.908   3.694  0.0697 -0.6456  0.3069
 3249SOL    HW110655   5.230   2.819   3.729 -0.0150 -0.2267  1.4080
 3249SOL    HW210656   5.259   2.962   3.769 -1.0095  0.4145 -0.0641
 3250SOL     OW10657   3.053   7.052   4.808  0.0213  0.0967  0.6519
 3250SOL    HW110658   3.085   7.129   4.855 -2.3848  0.2095  2.2800
 3250SOL    HW210659   3.091   7.060   4.721 -0.9226  3.7008  0.4070
 3251SOL     OW10660   7.043   7.302   4.667  0.4938 -0.1970  0.3345
 3251SOL    HW110661   7.134   7.333   4.674  0.3029  0.0839  2.0719
 3251SOL    HW210662   7.021   7.275   4.756 -1.0805 -0.4278 -0.1106
 3252SOL     OW10663   0.878   7.008   3.659  0.9226 -0.2099  0.2766
 3252SOL    HW110664   0.831   6.984   3.740 -0.2845  1.5325  0.1438
 3252SOL    HW210665   0.953   7.059   3.689  0.6208  0.2146  0.3089
 3253SOL     OW10666   1.539   5.224   1.708  0.0238 -0.1181  0.6175
 3253SOL    HW110667   1.540   5.194   1.617 -0.8284  1.0406  0.1992
 3253SOL    HW210668   1.450   5.204   1.739 -0.3466  1.3080  0.5359
 3254SOL     OW10669   5.119   3.623   1.597  0.1471 -0.0693 -0.4259
 3254SOL    HW110670   5.091   3.588   1.682 -2.2954  2.2206 -0.1605
 3254SOL    HW210671   5.044   3.608   1.539 -0.9901  4.1210 -0.3698
 3255SOL     OW10672   5.203   4.808   6.775  0.5984 -0.3086  0.2712
 3255SOL    HW110673   5.108   4.800   6.768  0.5821  0.2669 -0.2127
 3255SOL    HW210674   5.237   4.740   6.717  0.4645  0.9045 -1.2950
 3256SOL     OW10675   1.847   2.029   2.351  0.4310 -0.0990  0.4585
 3256SOL    HW110676   1.783   2.025   2.422  0.7078  1.2865  0.8001
 3256SOL    HW210677   1.802   1.988   2.277 -0.8749  0.8910  0.6718
 3257SOL     OW10678   6.298   4.402   0.481  0.7506 -0.4441  0.2392
 3257SOL    HW110679   6.383   4.406   0.437  0.9875 -0.7505  0.6492
 3257SOL    HW210680   6.234   4.420   0.413  1.2618  3.0143  0.4721
 3258SOL     OW10681   3.385   0.528   5.155  0.0080 -0.2128  0.0840
 3258SOL    HW110682   3.347   0.451   5.197  0.6273 -0.6746 -0.1865
 3258SOL    HW210683   3.475   0.532   5.189  0.6875 -0.8814 -1.5250
 3259SOL     OW10684   5.320   0.254   4.499 -0.4655 -0.0840  0.2993
 3259SOL    HW110685   5.334   0.225   4.409 -0.1059  0.8027  0.0542
 3259SOL    HW210686   5.226   0.272   4.504 -0.3684  0.6006 -0.1427
 3260SOL     OW10687   1.960   6.702   4.468 -0.2662  0.0206  0.0331
 3260SOL    HW110688   1.958   6.728   4.560 -0.9728  0.4002 -0.0824
 3260SOL    HW210689   2.042   6.740   4.434  0.5689 -1.0729  0.7629
 3261SOL     OW10690   7.322   1.947   6.322 -0.6917  0.1888  0.0595
 3261SOL    HW110691   7.300   1.940   6.229 -0.5406 -0.6994  0.0891
 3261SOL    HW210692   7.280   2.029   6.350 -0.7032  0.4841 -0.7930
 3262SOL     OW10693   7.266   4.923   2.946 -0.4804  0.2980  0.1710
 3262SOL    HW110694   7.209   4.940   3.021 -0.8504  0.5228 -0.1565
 3262SOL    HW210695   7.347   4.890   2.984 -1.3653 -1.5493  0.5552
 3263SOL     OW10696   5.270   4.237   5.706  0.3457 -0.4499 -0.4871
 3263SOL    HW110697   5.209   4.238   5.632  0.6275 -1.8891 -0.7698
 3263SOL    HW210698   5.349   4.278   5.672 -0.7985  2.6773  0.2708
 3264SOL     OW10699   6.940   4.491   4.463 -0.1387 -0.2915 -0.6088
 3264SOL    HW110700   6.894   4.453   4.537 -0.3045  0.9782 -0.0420
 3264SOL    HW210701   7.007   4.427   4.440  0.2573 -0.4640  0.9723
 3265SOL     OW10702   4.807   3.658   4.795  0.0932 -0.0953 -0.9213
 3265SOL    HW110703   4.834   3.733   4.848  0.2733 -2.0516  1.9288
 3265SOL    HW210704   4.723   3.685   4.757  0.2178  1.5912 -0.1132
 3266SOL     OW10705   4.951   2.425   6.869 -0.5066  0.5057 -0.6480
 3266SOL    HW110706   4.856   2.427   6.863 -0.5572 -2.0939 -1.6792
 3266SOL    HW210707   4.970   2.356   6.931  0.6900 -0.9293 -2.5135
 3267SOL     OW10708   5.398   5.527   7.352 -0.1601 -0.0577  0.1972
 3267SOL    HW110709   5.305   5.506   7.361  0.1492 -1.2867  0.6797
 3267SOL    HW210710   5.434   5.456   7.299  0.0383  1.7473 -2.2090
 3268SOL     OW10711   3.922   4.396   4.048  0.5404  0.7759  0.4933
 3268SOL    HW110712   3.988   4.333   4.079  0.5620  0.9774  0.8596
 3268SOL    HW210713   3.858   4.343   4.001  0.6351  0.4984  0.6758
 3269SOL     OW10714   7.275   3.029   5.000 -0.0992 -0.0421 -0.6988
 3269SOL    HW110715   7.339   2.969   5.040  0.5513  2.9123  3.2869
 3269SOL    HW210716   7.328   3.086   4.944  0.2245  0.2696 -0.0859
 3270SOL     OW10717   4.450   1.814   7.002 -0.0995 -0.4143  0.0430
 3270SOL    HW110718   4.515   1.883   7.015  0.0044 -0.5063  0.0119
 3270SOL    HW210719   4.402   1.842   6.924  0.3650 -0.7016 -0.3503
 3271SOL     OW10720   3.899   2.847   6.074  0.1139 -0.0477 -0.0074
 3271SOL    HW110721   3.937   2.864   5.989 -0.2866  1.0401  0.0197
 3271SOL    HW210722   3.949   2.901   6.135 -0.6012  0.3754  0.2170
 3272SOL     OW10723   4.800   3.061   7.240 -0.7142  0.1657 -0.0539
 3272SOL    HW110724   4.839   3.015   7.166  0.9677 -0.0193  0.8854
 3272SOL    HW210725   4.709   3.076   7.215 -0.6244 -1.3898 -1.4340
 3273SOL     OW10726   1.653   3.052   2.387  0.6604 -0.2427  0.1390
 3273SOL    HW110727   1.591   3.120   2.361  0.7955  0.1117  0.7042
 3273SOL    HW210728   1.632   3.035   2.479  0.7993 -0.7812  0.0729
 3274SOL     OW10729   1.618   0.969   6.281 -0.4857  0.0720 -0.3456
 3274SOL    HW110730   1.522   0.972   6.286 -0.4671  0.6229 -0.1734
 3274SOL    HW210731   1.647   1.028   6.350 -0.0257  0.1279 -0.5817
 3275SOL     OW10732   7.348   6.030   3.053  0.3306  0.3992 -0.2638
 3275SOL    HW110733   7.290   6.103   3.077  1.2945  1.3401 -0.7486
 3275SOL    HW210734   7.375   5.992   3.137  0.3085  0.9766  0.0060
 3276SOL     OW10735   5.633   2.207   2.664  0.3035  0.4125 -0.0238
 3276SOL    HW110736   5.641   2.118   2.700 -1.0847 -0.4163 -1.6179
 3276SOL    HW210737   5.721   2.229   2.636  0.5172 -0.8305 -0.4037
 3277SOL     OW10738   2.103   0.581   2.885 -0.1904  0.0168 -0.3974
 3277SOL    HW110739   2.082   0.637   2.810  0.3540  1.9163  0.8207
 3277SOL    HW210740   2.197   0.565   2.877 -0.3737 -0.9077 -0.8358
 3278SOL     OW10741   6.730   0.195   7.117 -0.3700 -0.5555 -0.8178
 3278SOL    HW110742   6.661   0.207   7.182  0.0841 -0.4849 -0.3470
 3278SOL    HW210743   6.727   0.274   7.063 -0.4740 -0.4284 -0.6243
 3279SOL     OW10744   5.387   0.513   5.989  0.1194 -0.0908  0.1016
 3279SOL    HW110745   5.342   0.469   5.917 -2.4822 -0.6020  1.9149
 3279SOL    HW210746   5.449   0.448   6.021  0.0479 -0.4953 -0.5575
 3280SOL     OW10747   0.423   5.876   5.937 -0.4225 -0.2116 -0.2410
 3280SOL    HW110748   0.389   5.962   5.916  1.8702  0.7004 -0.5326
 3280SOL    HW210749   0.486   5.857   5.867 -0.5387 -1.9154  0.0650
 3281SOL     OW10750   0.757   0.962   1.199  0.8375  0.0795 -0.2102
 3281SOL    HW110751   0.776   0.923   1.284  0.8514  1.8027  0.6333
 3281SOL    HW210752   0.843   0.980   1.160  0.8325 -1.3167 -0.9146
 3282SOL     OW10753   7.139   4.955   4.377  0.0389  0.4377  0.2014
 3282SOL    HW110754   7.204   4.928   4.442 -0.2568  0.7505  0.6357
 3282SOL    HW210755   7.061   4.904   4.400  0.1635 -0.0493 -0.4082
 3283SOL     OW10756   1.976   5.498   6.382  0.3376  0.4153  0.4664
 3283SOL    HW110757   1.891   5.477   6.421  0.3223 -0.9782 -0.2866
 3283SOL    HW210758   2.038   5.495   6.456  0.0722 -0.6952  0.6549
 3284SOL     OW10759   6.579   6.531   1.464  0.1651  0.5765  0.0573
 3284SOL    HW110760   6.650   6.596   1.467  0.6896  0.0975 -1.4746
 3284SOL    HW210761   6.514   6.566   1.525  1.9682  0.6821  2.0648
 3285SOL     OW10762   1.013   2.653   3.682  0.6391  0.0302 -0.0838
 3285SOL    HW110763   1.103   2.655   3.714  0.5242 -0.2795  0.2621
 3285SOL    HW210764   1.001   2.563   3.651  0.5602  0.1665 -0.4546
 3286SOL     OW10765   4.830   5.408   0.209 -0.2050 -0.1691  0.0482
 3286SOL    HW110766   4.913   5.450   0.187 -0.9904  0.4742 -1.9033
 3286SOL    HW210767   4.813   5.348   0.136 -0.7567 -1.4004  1.1407
 3287SOL     OW10768   4.817   2.799   3.712  0.0570 -0.2559  0.0368
 3287SOL    HW110769   4.790   2.724   3.659 -0.7152  0.0577 -0.0280
 3287SOL    HW210770   4.883   2.763   3.772  0.5416 -0.7339 -0.7551
 3288SOL     OW10771   0.276   2.705   3.127 -0.3777 -0.1578 -0.1828
 3288SOL    HW110772   0.257   2.624   3.173  0.4587  0.2419  0.9193
 3288SOL    HW210773   0.304   2.766   3.195  1.4967  0.2841 -1.2523
 3289SOL     OW10774   6.101   3.725   2.058  0.5770  0.5287 -0.3615
 3289SOL    HW110775   6.066   3.806   2.022  0.1481 -0.1520 -1.5649
 3289SOL    HW210776   6.045   3.657   2.021  0.0320 -0.2317  1.7415
 3290SOL     OW10777   6.425   7.369   5.657  0.2204  0.1038  0.2990
 3290SOL    HW110778   6.508   7.329   5.683  0.7148  1.0653  0.2208
 3290SOL    HW210779   6.359   7.303   5.679  0.9113 -0.2995  1.2217
 3291SOL     OW10780   4.065   4.765   6.929 -0.5013  0.0116  0.6375
 3291SOL    HW110781   3.982   4.774   6.976  0.1461  2.3644  1.4572
 3291SOL    HW210782   4.112   4.696   6.976 -1.7049 -0.9269  0.5279
 3292SOL     OW10783   0.957   4.592   4.068 -0.0985  0.2672 -0.5645
 3292SOL    HW110784   0.950   4.684   4.043 -1.1712  0.1420 -0.7947
 3292SOL    HW210785   0.876   4.552   4.036  1.1094 -1.1396 -2.0420
 3293SOL     OW10786   1.573   0.375   4.086 -0.3557 -0.0046  0.0032
 3293SOL    HW110787   1.530   0.304   4.039  1.2310 -0.6983 -0.4639
 3293SOL    HW210788   1.651   0.334   4.125  1.2202  1.6955 -1.2267
 3294SOL     OW10789   6.932   6.691   0.705  0.1865 -0.5079  0.1613
 3294SOL    HW110790   6.869   6.676   0.776 -0.5585  0.9477 -0.1481
 3294SOL    HW210791   6.959   6.603   0.679 -2.1987 -1.2433 -0.1081
 3295SOL     OW10792   3.444   4.930   3.299  0.2853  0.3476  0.0995
 3295SOL    HW110793   3.400   4.848   3.278 -0.0326  0.2466  1.0990
 3295SOL    HW210794   3.458   4.926   3.394  0.4241  1.3635  0.1359
 3296SOL     OW10795   1.799   1.007   0.973 -0.1005 -0.2102 -0.0925
 3296SOL    HW110796   1.879   1.043   1.011  0.0795  0.2704 -0.9211
 3296SOL    HW210797   1.811   1.014   0.879 -0.3692 -1.7961 -0.2751
 3297SOL     OW10798   2.070   1.473   6.809  0.5263  0.5901  0.3698
 3297SOL    HW110799   2.125   1.435   6.877  1.3100 -1.8619 -1.4926
 3297SOL    HW210800   2.131   1.522   6.754 -0.2506  3.4401  1.8554
 3298SOL     OW10801   3.133   4.140   7.446  0.0539  0.1426 -1.3178
 3298SOL    HW110802   3.159   4.212   7.388 -1.1275  1.4801 -0.2662
 3298SOL    HW210803   3.059   4.098   7.401  0.1435  0.1827 -1.5020
 3299SOL     OW10804   1.069   5.465   6.335  0.1589 -0.1241  0.3685
 3299SOL    HW110805   1.062   5.542   6.391  0.4379 -0.1862  0.4915
 3299SOL    HW210806   1.086   5.393   6.396  0.0472 -0.2602  0.2412
 3300SOL     OW10807   0.197   6.892   3.780  0.1452  0.6225  0.1871
 3300SOL    HW110808   0.287   6.893   3.747  0.1392 -1.9606 -0.1299
 3300SOL    HW210809   0.166   6.981   3.767  2.2597  1.2894 -0.8173
 3301SOL     OW10810   7.194   7.432   5.311  0.7486 -0.5371 -0.6068
 3301SOL    HW110811   7.153   7.353   5.275 -0.3406 -0.7447  0.9529
 3301SOL    HW210812   7.127   7.500   5.301  0.6186 -0.4837  0.4992
 3302SOL     OW10813   6.989   4.093   3.847 -0.0172 -0.0659 -0.5209
 3302SOL    HW110814   7.081   4.117   3.860  0.2610 -0.7310 -1.2041
 3302SOL    HW210815   6.992   4.018   3.788 -1.0331  0.2752 -1.0250
 3303SOL     OW10816   2.742   6.989   1.264 -0.5367  0.0804  0.0754
 3303SOL    HW110817   2.782   6.959   1.346 -1.1745 -2.1166 -0.3598
 3303SOL    HW210818   2.796   6.950   1.196 -1.0359  0.4695 -0.5467
 3304SOL     OW10819   5.563   2.108   6.500 -0.3890 -0.2298  0.4042
 3304SOL    HW110820   5.606   2.051   6.563 -1.4453 -1.3351  0.1550
 3304SOL    HW210821   5.576   2.197   6.535 -0.6609 -0.7934  1.9920
 3305SOL     OW10822   5.465   1.488   2.049  0.1303 -0.0707 -0.6293
 3305SOL    HW110823   5.373   1.517   2.046  0.2981  1.1753  2.4996
 3305SOL    HW210824   5.459   1.394   2.068 -0.7063  0.5910  3.2609
 3306SOL     OW10825   7.026   3.896   3.628  0.1729  0.3962  0.2116
 3306SOL    HW110826   7.010   3.930   3.540 -3.6850 -1.5222 -0.0464
 3306SOL    HW210827   7.058   3.807   3.614  0.7572  0.5038  0.8004
 3307SOL     OW10828   2.130   4.084   4.731  0.2175 -0.0249 -0.7457
 3307SOL    HW110829   2.133   4.171   4.772  2.2345 -0.0752 -0.6535
 3307SOL    HW210830   2.080   4.030   4.792  0.1403  0.7511 -0.1064
 3308SOL     OW10831   5.607   6.222   6.716  0.2009 -0.0091  0.6625
 3308SOL    HW110832   5.566   6.306   6.736  1.1536  0.7569 -0.4947
 3308SOL    HW210833   5.698   6.244   6.695 -0.1216 -0.9870 -2.1197
 3309SOL     OW10834   3.829   2.530   4.459  0.7301  0.0915 -0.1155
 3309SOL    HW110835   3.791   2.549   4.544  1.4108 -1.2294  0.5115
 3309SOL    HW210836   3.924   2.539   4.472  0.7686  1.8703 -1.2705
 3310SOL     OW10837   5.211   4.816   5.249  0.2752  0.1133 -0.3619
 3310SOL    HW110838   5.186   4.752   5.316 -2.2917  1.3771  0.0173
 3310SOL    HW210839   5.235   4.763   5.173  0.0053 -1.3085  0.5049
 3311SOL     OW10840   7.102   4.164   1.792  0.5861  0.2112 -0.7538
 3311SOL    HW110841   7.011   4.179   1.765  0.3314  1.4393  0.6989
 3311SOL    HW210842   7.099   4.080   1.839 -0.0597  0.8607  0.4004
 3312SOL     OW10843   0.817   1.341   1.536 -0.0786 -0.5945 -0.1517
 3312SOL    HW110844   0.876   1.414   1.517 -1.0784  0.0535 -0.8988
 3312SOL    HW210845   0.857   1.295   1.610  0.3646  0.9723  0.6208
 3313SOL     OW10846   0.938   0.113   7.247 -0.1943 -0.2275  0.1079
 3313SOL    HW110847   0.890   0.075   7.321 -0.6339 -0.3653 -0.2431
 3313SOL    HW210848   1.025   0.072   7.251 -0.7675 -1.5569 -0.4652
 3314SOL     OW10849   6.804   2.010   5.425  1.0001  0.7016 -0.1421
 3314SOL    HW110850   6.784   2.038   5.514  1.7820 -1.2237  0.6853
 3314SOL    HW210851   6.740   2.057   5.370 -1.2206 -0.0452  1.6759
 3315SOL     OW10852   5.161   2.721   7.459  0.2120 -0.2244 -1.1019
 3315SOL    HW110853   5.253   2.695   7.458  0.2890 -0.0577  0.1461
 3315SOL    HW210854   5.161   2.809   7.422  0.6770  0.1290 -0.2696
 3316SOL     OW10855   3.664   6.341   6.104 -0.2744 -0.6117  0.0126
 3316SOL    HW110856   3.720   6.390   6.045 -1.0266  0.0272 -0.1821
 3316SOL    HW210857   3.709   6.257   6.116 -0.1183 -0.7683 -1.4848
 3317SOL     OW10858   6.133   6.260   6.716  0.0160 -0.2662 -0.3117
 3317SOL    HW110859   6.224   6.267   6.747 -0.1850 -0.2430  0.2817
 3317SOL    HW210860   6.102   6.351   6.715 -0.8319 -0.4684  2.0489
 3318SOL     OW10861   6.567   4.372   7.004 -0.3185  0.0454  0.4531
 3318SOL    HW110862   6.541   4.286   7.037 -1.0619  0.0012 -0.2014
 3318SOL    HW210863   6.615   4.352   6.923  0.4585  0.2039  0.8656
 3319SOL     OW10864   1.024   7.244   2.185 -0.3589 -0.4230 -0.0548
 3319SOL    HW110865   0.999   7.268   2.274 -2.1783 -1.3121 -0.2806
 3319SOL    HW210866   1.048   7.327   2.143 -2.5001  0.4619  0.3676
 3320SOL     OW10867   3.430   2.534   1.781  0.4332 -0.5051  0.0177
 3320SOL    HW110868   3.514   2.521   1.736  1.0365  0.3357  0.8541
 3320SOL    HW210869   3.407   2.447   1.814 -0.1291 -1.1841 -2.0301
 3321SOL     OW10870   1.223   7.678   6.329  0.0116 -0.6378  0.5086
 3321SOL    HW110871   1.207   7.717   6.415 -1.4649  0.2701 -0.1365
 3321SOL    HW210872   1.305   7.630   6.339  0.4111  0.3183  2.1304
 3322SOL     OW10873   0.034   5.334   4.594  0.4632 -0.4107  0.4476
 3322SOL    HW110874   0.120   5.343   4.553  0.4244  0.9650  0.6237
 3322SOL    HW210875   0.043   5.378   4.678 -0.7919  1.0012 -0.1184
 3323SOL     OW10876   3.028   6.619   2.832  0.3505  0.2880  0.8199
 3323SOL    HW110877   3.038   6.665   2.748 -0.3209 -1.3913 -0.2263
 3323SOL    HW210878   2.934   6.602   2.839  0.7010 -2.1570  0.4391
 3324SOL     OW10879   4.475   0.164   3.403  0.5719  0.1961  0.6634
 3324SOL    HW110880   4.433   0.216   3.472 -0.0878 -1.1106  1.2744
 3324SOL    HW210881   4.530   0.102   3.451  0.6588 -0.2553 -0.0213
 3325SOL     OW10882   0.138   0.295   3.784 -0.8035  0.6365  0.2768
 3325SOL    HW110883   0.171   0.380   3.754 -0.1070  0.4997  0.6293
 3325SOL    HW210884   0.047   0.292   3.753 -0.7863  1.4395  0.1220
 3326SOL     OW10885   6.955   6.487   5.922 -0.0479 -0.3136 -0.1044
 3326SOL    HW110886   6.865   6.464   5.944 -0.4208 -0.3489 -1.5378
 3326SOL    HW210887   6.961   6.581   5.939 -0.6712 -0.1107 -0.9310
 3327SOL     OW10888   0.285   3.334   4.139  0.3016  0.0466 -0.2983
 3327SOL    HW110889   0.302   3.425   4.165 -0.8622  0.0271  0.6163
 3327SOL    HW210890   0.257   3.341   4.047  1.7732  0.4146 -0.7489
 3328SOL     OW10891   7.268   1.359   3.855 -0.2079  0.5600  0.1439
 3328SOL    HW110892   7.174   1.341   3.847 -0.2681 -0.1603  1.9542
 3328SOL    HW210893   7.273   1.444   3.898 -0.0009  1.1859 -1.0919
 3329SOL     OW10894   1.627   4.990   6.466 -0.0256 -0.5445 -0.0275
 3329SOL    HW110895   1.534   4.966   6.465  0.1713 -1.3027 -0.6514
 3329SOL    HW210896   1.673   4.909   6.488  0.4722 -0.0704  0.7563
 3330SOL     OW10897   5.635   0.105   2.377 -0.2992 -0.3860 -0.0799
 3330SOL    HW110898   5.557   0.060   2.409 -1.4191  1.4534 -0.0484
 3330SOL    HW210899   5.608   0.197   2.369  2.3044  0.6715  1.5429
 3331SOL     OW10900   2.666   4.283   2.599 -0.2865 -0.1805  0.0417
 3331SOL    HW110901   2.741   4.226   2.613 -0.7864 -0.9453 -0.3000
 3331SOL    HW210902   2.695   4.369   2.629  0.6468 -0.5071  0.1130
 3332SOL     OW10903   3.189   6.377   6.621  0.1737  0.3356 -0.0485
 3332SOL    HW110904   3.142   6.434   6.683 -0.5803 -0.2562 -0.0650
 3332SOL    HW210905   3.201   6.431   6.543 -2.1370 -0.0740 -0.7387
 3333SOL     OW10906   1.456   4.278   4.758 -0.2944 -0.2649  0.5684
 3333SOL    HW110907   1.439   4.369   4.780  2.8579  0.8368 -0.9850
 3333SOL    HW210908   1.392   4.257   4.690 -0.7187  0.9114  0.5838
 3334SOL     OW10909   0.431   3.679   2.405  0.7866 -0.4390  0.7621
 3334SOL    HW110910   0.431   3.722   2.320 -1.0098 -1.5780  0.1112
 3334SOL    HW210911   0.521   3.687   2.437  1.2878  0.7589 -0.8437
 3335SOL     OW10912   7.337   6.906   0.220  0.1897 -0.1911  0.1684
 3335SOL    HW110913   7.404   6.928   0.284  0.1227 -2.0718  0.9729
 3335SOL    HW210914   7.385   6.895   0.138  0.7658 -0.7370  0.5664
 3336SOL     OW10915   3.702   1.466   6.333  0.0143  0.1438  0.1216
 3336SOL    HW110916   3.653   1.390   6.366  2.1110 -2.5292 -2.3240
 3336SOL    HW210917   3.670   1.540   6.384 -3.7634 -1.9875  1.2201
 3337SOL     OW10918   5.868   4.976   2.927  0.3066  0.0105 -0.5952
 3337SOL    HW110919   5.954   5.009   2.902  0.4628  0.5046  0.5280
 3337SOL    HW210920   5.820   4.970   2.845  1.2928  0.0815 -1.1921
 3338SOL     OW10921   2.769   3.909   6.609  0.4479 -0.0165  0.2090
 3338SOL    HW110922   2.691   3.942   6.564  0.0158  1.1424  1.7421
 3338SOL    HW210923   2.830   3.983   6.607  1.0768 -0.5318  0.0488
 3339SOL     OW10924   2.699   2.044   6.735 -0.0366 -0.3398 -0.6309
 3339SOL    HW110925   2.605   2.050   6.720 -0.2268  0.2911  0.6761
 3339SOL    HW210926   2.712   1.955   6.769 -0.3521 -0.0422  0.3071
 3340SOL     OW10927   7.334   6.835   5.028  0.4865 -0.0921 -0.3815
 3340SOL    HW110928   7.383   6.776   5.084 -1.2045 -0.5107  0.7275
 3340SOL    HW210929   7.400   6.895   4.992  2.2021 -2.4044 -1.3058
 3341SOL     OW10930   3.818   3.034   4.601  0.1705 -0.6809  0.6943
 3341SOL    HW110931   3.737   2.992   4.572 -0.3970  0.3836  0.7079
 3341SOL    HW210932   3.790   3.100   4.664  0.8884  0.7056 -0.3775
 3342SOL     OW10933   5.958   6.781   3.320 -0.6446  0.2925 -0.3585
 3342SOL    HW110934   5.900   6.741   3.255 -1.5468  1.3679 -0.2462
 3342SOL    HW210935   5.965   6.716   3.390 -2.1946  0.3550 -0.1114
 3343SOL     OW10936   6.775   1.220   3.020  0.1418 -0.3176  0.4603
 3343SOL    HW110937   6.827   1.200   3.098  2.4276 -1.4647 -1.2762
 3343SOL    HW210938   6.831   1.198   2.946 -2.3565 -0.3656 -1.5706
 3344SOL     OW10939   4.028   2.989   5.280  0.2924 -0.2264 -0.6517
 3344SOL    HW110940   4.109   3.036   5.262 -0.0239  0.8436  0.6022
 3344SOL    HW210941   3.974   3.003   5.202  1.0881 -0.5003 -1.2650
 3345SOL     OW10942   3.271   4.596   3.492  0.8659 -0.2281 -0.5219
 3345SOL    HW110943   3.178   4.585   3.472  0.7197 -2.2408  0.9160
 3345SOL    HW210944   3.317   4.567   3.414  0.2724 -1.9717 -0.2688
 3346SOL     OW10945   1.001   6.232   2.109  0.4210  0.1603  0.1721
 3346SOL    HW110946   0.998   6.169   2.181  2.1938 -0.9438 -0.6494
 3346SOL    HW210947   1.048   6.186   2.039 -0.5249  1.4839 -1.4140
 3347SOL     OW10948   4.964   2.930   0.414 -0.3056  0.0252  0.2756
 3347SOL    HW110949   4.947   2.900   0.325 -1.4453  3.2511 -0.7099
 3347SOL    HW210950   5.059   2.921   0.425 -0.2547 -1.2207 -0.8831
 3348SOL     OW10951   7.696   2.897   7.003  0.3386  0.6014  0.3716
 3348SOL    HW110952   7.737   2.853   6.928  1.2872  1.5542  0.2987
 3348SOL    HW210953   7.763   2.958   7.033 -0.0121  0.2011  2.0381
 3349SOL     OW10954   1.421   7.643   3.485  0.3090  0.2057 -0.4316
 3349SOL    HW110955   1.499   7.603   3.447  2.7100  2.5458  1.6689
 3349SOL    HW210956   1.399   7.715   3.426  0.5564  0.3391 -0.3637
 3350SOL     OW10957   7.527   5.754   6.177 -0.1777 -0.5625 -0.5902
 3350SOL    HW110958   7.471   5.789   6.247  0.6708 -0.1247 -0.1125
 3350SOL    HW210959   7.476   5.682   6.140 -0.6794 -0.7678  0.4471
 3351SOL     OW10960   6.480   4.934   1.761  0.0859 -0.4406 -0.0756
 3351SOL    HW110961   6.405   4.914   1.817  0.6412  1.0602  1.2845
 3351SOL    HW210962   6.470   5.027   1.740  1.2827 -0.3461 -0.3020
 3352SOL     OW10963   2.852   5.649   4.784  0.0589 -0.2050  0.2453
 3352SOL    HW110964   2.908   5.617   4.855 -1.2680  0.0153  1.4348
 3352SOL    HW210965   2.901   5.630   4.704  0.2687 -3.2899  0.9970
 3353SOL     OW10966   1.024   6.748   4.822 -0.4493  0.1231 -0.7389
 3353SOL    HW110967   1.060   6.819   4.770  0.9698 -0.1808 -0.2249
 3353SOL    HW210968   1.030   6.671   4.765 -0.2977  0.0750 -0.6583
 3354SOL     OW10969   1.068   6.856   5.340 -0.0214  0.1678 -0.3054
 3354SOL    HW110970   1.052   6.821   5.428 -0.8435  1.5055  0.1009
 3354SOL    HW210971   1.128   6.793   5.301 -0.4357 -1.0051  0.8414
 3355SOL     OW10972   2.560   7.398   6.464  0.6323 -0.2326 -0.4423
 3355SOL    HW110973   2.576   7.306   6.441 -1.9183 -0.8606 -0.0315
 3355SOL    HW210974   2.588   7.404   6.556  0.6478 -0.6404 -0.4173
 3356SOL     OW10975   5.071   5.728   4.936 -0.1877 -0.6009 -0.0066
 3356SOL    HW110976   4.998   5.686   4.982  1.2786 -1.9174  1.2146
 3356SOL    HW210977   5.048   5.821   4.935 -0.6765 -0.6121  2.7468
 3357SOL     OW10978   0.242   3.554   4.589 -0.1290 -0.8081  0.3483
 3357SOL    HW110979   0.216   3.632   4.539 -0.6059 -1.1996 -0.0350
 3357SOL    HW210980   0.213   3.572   4.678 -1.5199 -1.1158 -0.0158
 3358SOL     OW10981   3.681   1.058   5.146  0.2032  0.0055 -0.5419
 3358SOL    HW110982   3.749   1.012   5.194 -0.3051  0.8707  1.0737
 3358SOL    HW210983   3.728   1.109   5.080  1.0379 -0.1303 -0.0577
 3359SOL     OW10984   6.465   5.687   4.463  0.2498 -0.0286  0.3026
 3359SOL    HW110985   6.431   5.709   4.377  1.8786  0.6204 -0.2150
 3359SOL    HW210986   6.493   5.771   4.500  0.2953 -0.3968  1.1267
 3360SOL     OW10987   7.697   4.887   4.485 -0.0260  0.4942 -0.0039
 3360SOL    HW110988   7.655   4.890   4.399 -0.9684 -0.0530  0.4247
 3360SOL    HW210989   7.642   4.940   4.542  0.5809  0.8393  0.2736
 3361SOL     OW10990   1.622   5.563   2.998 -0.3888 -0.5017 -0.2450
 3361SOL    HW110991   1.635   5.621   2.923  0.4395 -0.0565  0.2363
 3361SOL    HW210992   1.537   5.521   2.981 -0.5528  0.1369 -1.0661
 3362SOL     OW10993   7.334   5.193   7.226  0.8238  0.1324  0.2299
 3362SOL    HW110994   7.284   5.248   7.287  0.9797 -0.6716  1.1174
 3362SOL    HW210995   7.317   5.231   7.140 -0.8425  0.2487  0.5700
 3363SOL     OW10996   6.690   1.505   1.813  0.2017  0.0669 -0.3684
 3363SOL    HW110997   6.764   1.565   1.814  0.2896  0.0004 -1.3351
 3363SOL    HW210998   6.674   1.489   1.720 -1.6449  0.8389 -0.2328
 3364SOL     OW10999   6.876   0.800   4.604 -0.2710  0.2699 -0.2520
 3364SOL    HW111000   6.966   0.807   4.572 -0.1287  1.3289  0.3469
 3364SOL    HW211001   6.870   0.865   4.674 -1.8509  1.0611 -1.0758
 3365SOL     OW11002   0.572   1.344   3.711  0.1680 -0.5830 -0.5571
 3365SOL    HW111003   0.584   1.287   3.787 -1.2293  0.8682  0.8100
 3365SOL    HW211004   0.646   1.405   3.716 -0.9594  0.7511  0.8501
 3366SOL     OW11005   1.941   2.610   7.475  1.0786  0.4843  0.7042
 3366SOL    HW111006   1.903   2.523   7.471  2.1828  0.0334 -0.6394
 3366SOL    HW211007   1.878   2.666   7.430  0.3754  0.4043  1.5601
 3367SOL     OW11008   2.505   3.029   3.675  0.4378 -0.4418 -0.2540
 3367SOL    HW111009   2.589   2.999   3.641  0.2289 -0.5912 -0.6477
 3367SOL    HW211010   2.474   3.091   3.610 -0.1622 -1.0458 -0.5647
 3368SOL     OW11011   7.170   3.470   2.539  0.4546  0.1223  0.2930
 3368SOL    HW111012   7.105   3.432   2.480 -1.1329  3.5124 -0.4271
 3368SOL    HW211013   7.151   3.433   2.624 -2.3991  0.8029  0.0593
 3369SOL     OW11014   2.128   3.221   5.424  0.3480 -0.0670  0.2700
 3369SOL    HW111015   2.142   3.250   5.514  2.3043 -0.9480  0.2952
 3369SOL    HW211016   2.107   3.128   5.431 -0.1416  0.0033 -0.1647
 3370SOL     OW11017   2.328   4.238   2.662  0.0517  0.3137  0.2478
 3370SOL    HW111018   2.397   4.272   2.719  2.3520  0.3548 -2.3761
 3370SOL    HW211019   2.324   4.144   2.683 -0.6872  0.6845  1.9238
 3371SOL     OW11020   2.761   5.128   2.545  0.5591  0.1523  0.1661
 3371SOL    HW111021   2.770   5.045   2.592 -1.6172 -0.7100 -0.7881
 3371SOL    HW211022   2.722   5.188   2.609  1.2782  0.1667  0.5928
 3372SOL     OW11023   5.273   7.213   0.465  0.1538 -0.1946  0.7385
 3372SOL    HW111024   5.212   7.251   0.402 -0.6155 -1.6775  0.5510
 3372SOL    HW211025   5.359   7.240   0.434 -0.2057 -0.8353 -0.9345
 3373SOL     OW11026   3.762   1.235   4.704  0.0393 -0.4594 -0.2859
 3373SOL    HW111027   3.856   1.214   4.701 -0.1663 -1.3135 -2.6790
 3373SOL    HW211028   3.735   1.238   4.613 -1.7494  2.5086  0.2063
 3374SOL     OW11029   0.789   3.706   7.471 -0.2304  0.5210 -0.2719
 3374SOL    HW111030   0.845   3.700   7.394  1.5610 -3.2113  1.0270
 3374SOL    HW211031   0.704   3.675   7.442 -0.5594  2.3531 -1.3889
 3375SOL     OW11032   3.330   4.633   5.417 -0.3383  0.2086 -0.1822
 3375SOL    HW111033   3.416   4.606   5.384  0.9042  2.7515  0.6933
 3375SOL    HW211034   3.296   4.692   5.349 -0.5209  0.6816  0.3107
 3376SOL     OW11035   6.077   0.471   3.239 -0.0959  0.1817  0.1016
 3376SOL    HW111036   6.075   0.513   3.325  0.1161  1.3861 -0.4673
 3376SOL    HW211037   6.153   0.509   3.195 -1.4151  1.1882 -1.4071
 3377SOL     OW11038   4.602   6.632   3.683  0.3367  0.1707  0.1738
 3377SOL    HW111039   4.626   6.596   3.598  1.1263 -1.6764  1.1207
 3377SOL    HW211040   4.676   6.688   3.707  1.0516 -0.8849  0.4991
 3378SOL     OW11041   3.224   3.580   1.530  0.1893  0.0927  0.1953
 3378SOL    HW111042   3.265   3.630   1.600 -1.6285  1.2657  0.4872
 3378SOL    HW211043   3.173   3.645   1.481  0.7133 -0.8628 -1.6747
 3379SOL     OW11044   4.910   1.214   3.120 -0.3276 -0.3112  0.1576
 3379SOL    HW111045   4.931   1.234   3.028  1.4112  0.8948  0.7577
 3379SOL    HW211046   4.852   1.285   3.147  0.3714  0.1858  0.3868
 3380SOL     OW11047   0.514   6.181   1.471 -0.1670  0.0015  0.0748
 3380SOL    HW111048   0.559   6.263   1.451  2.0603 -1.0215  0.6686
 3380SOL    HW211049   0.505   6.181   1.567 -0.9178 -0.1006  0.0156
 3381SOL     OW11050   3.055   4.500   0.652 -0.1761 -0.0731 -0.2071
 3381SOL    HW111051   3.121   4.438   0.683 -0.0880  1.1830  2.3241
 3381SOL    HW211052   3.106   4.575   0.620 -0.3523 -0.0838 -0.5227
 3382SOL     OW11053   3.176   2.923   3.301 -0.3446  0.8754  0.2999
 3382SOL    HW111054   3.260   2.962   3.327  0.6070 -0.1218 -1.0861
 3382SOL    HW211055   3.193   2.887   3.214 -1.9582 -0.1725  0.3751
 3383SOL     OW11056   4.983   5.309   4.567 -0.3239  0.1924  0.1157
 3383SOL    HW111057   4.957   5.246   4.634  0.2061 -0.2917 -0.1318
 3383SOL    HW211058   4.922   5.294   4.495  0.7714 -1.1159 -0.5653
 3384SOL     OW11059   6.866   3.516   7.058  0.0620 -0.0500  0.5495
 3384SOL    HW111060   6.897   3.472   6.979  2.9180 -1.1401  2.1444
 3384SOL    HW211061   6.772   3.497   7.060  0.2302 -1.5152 -1.6132
 3385SOL     OW11062   3.272   2.153   5.146 -0.0531 -0.5717  0.0707
 3385SOL    HW111063   3.287   2.062   5.172 -2.2258 -0.4205  2.1845
 3385SOL    HW211064   3.193   2.150   5.092  0.3740 -0.0291 -0.5943
 3386SOL     OW11065   3.321   4.593   3.936 -0.3565  0.2808 -0.9344
 3386SOL    HW111066   3.322   4.646   3.857 -1.0961  0.4304 -0.8571
 3386SOL    HW211067   3.374   4.641   3.999  0.2589  0.1464 -1.3418
 3387SOL     OW11068   7.091   5.537   5.663  0.3781 -0.4080 -0.6409
 3387SOL    HW111069   7.050   5.480   5.598 -0.8792 -1.7976  1.2543
 3387SOL    HW211070   7.029   5.609   5.674  0.4273 -0.3495 -0.7482
 3388SOL     OW11071   3.372   6.896   1.984 -0.0664 -0.1077  0.0409
 3388SOL    HW111072   3.292   6.934   1.947  0.3202  1.1723  0.4768
 3388SOL    HW211073   3.432   6.970   1.994  1.5748 -1.1765 -1.2455
 3389SOL     OW11074   2.768   5.504   4.165  0.0776 -0.2015  0.1334
 3389SOL    HW111075   2.806   5.533   4.248 -0.4863  0.6141  0.1149
 3389SOL    HW211076   2.686   5.553   4.157 -0.1799 -0.7341 -0.6084
 3390SOL     OW11077   6.983   4.389   0.595  0.2661  0.2807  0.5170
 3390SOL    HW111078   7.056   4.347   0.640 -0.6409 -1.3157  0.5676
 3390SOL    HW211079   6.952   4.324   0.533 -2.1519  0.2173  1.6619
 3391SOL     OW11080   6.535   7.225   6.729 -0.1166  0.0276 -0.1947
 3391SOL    HW111081   6.454   7.174   6.734 -0.6314  0.5761 -2.0906
 3391SOL    HW211082   6.507   7.310   6.696  1.1645  0.4487 -0.2247
 3392SOL     OW11083   5.370   2.953   5.294  1.0827 -0.7237 -0.0480
 3392SOL    HW111084   5.424   2.940   5.216  1.3990  3.6166 -0.8273
 3392SOL    HW211085   5.372   3.048   5.309 -3.0496 -0.7613  2.3414
 3393SOL     OW11086   0.602   4.194   3.510 -0.4601 -0.3757  0.0602
 3393SOL    HW111087   0.650   4.183   3.427  1.2536 -1.2615  1.1135
 3393SOL    HW211088   0.600   4.106   3.548 -0.6340  0.1381  1.2637
 3394SOL     OW11089   3.889   1.720   2.828  0.1224  0.2878  0.8043
 3394SOL    HW111090   3.872   1.629   2.802  1.4704  0.7984 -2.3069
 3394SOL    HW211091   3.802   1.760   2.832 -0.3125 -0.0932 -2.4103
 3395SOL     OW11092   5.714   4.334   7.542 -0.2185  0.2036 -0.2285
 3395SOL    HW111093   5.665   4.252   7.539 -1.1584  0.6725  1.1079
 3395SOL    HW211094   5.784   4.318   7.605  0.2070  0.1142 -0.7249
 3396SOL     OW11095   5.951   0.225   1.531  0.1527  0.1873 -0.3642
 3396SOL    HW111096   5.895   0.277   1.474 -0.0227  1.0375  0.5563
 3396SOL    HW211097   6.039   0.239   1.498 -0.0591 -0.2850 -1.1489
 3397SOL     OW11098   0.348   7.587   4.103  0.0909 -0.9978  0.1456
 3397SOL    HW111099   0.370   7.600   4.196 -0.1737 -1.5534  0.2904
 3397SOL    HW211100   0.309   7.500   4.100  0.8084 -1.3055 -0.6148
 3398SOL     OW11101   4.582   4.831   5.077 -0.0504  0.0920 -0.1041
 3398SOL    HW111102   4.556   4.746   5.043  1.7615 -0.7977  0.6172
 3398SOL    HW211103   4.518   4.850   5.146 -0.1439 -0.9668  0.1197
 3399SOL     OW11104   6.597   1.226   2.563  0.0174 -0.3368 -0.2417
 3399SOL    HW111105   6.569   1.317   2.563  0.7830 -0.0047  2.3578
 3399SOL    HW211106   6.693   1.229   2.557 -0.0428 -1.1149 -2.2885
 3400SOL     OW11107   3.796   2.703   5.303 -0.3628  0.0596 -1.3686
 3400SOL    HW111108   3.885   2.705   5.269  0.0310  0.7250 -0.3364
 3400SOL    HW211109   3.789   2.620   5.350  0.1405  0.5665 -0.3713
 3401SOL     OW11110   2.215   1.949   1.035  0.3822  0.3127 -0.1132
 3401SOL    HW111111   2.239   1.952   1.128  0.0714 -0.6014  0.0091
 3401SOL    HW211112   2.208   2.040   1.008 -0.4008  0.5851  0.9889
 3402SOL     OW11113   6.487   1.531   1.065 -0.3017 -0.3428  0.2250
 3402SOL    HW111114   6.527   1.555   0.981 -0.7220  1.4584  0.5005
 3402SOL    HW211115   6.411   1.478   1.041  0.7537 -1.6145 -0.4161
 3403SOL     OW11116   0.317   6.767   7.674 -0.2311 -0.1973  0.0124
 3403SOL    HW111117   0.234   6.756   7.720  0.0195 -2.1432  0.1116
 3403SOL    HW211118   0.367   6.689   7.697  1.8113  1.1179  0.2800
 3404SOL     OW11119   1.974   2.268   5.993  0.0986 -0.0786 -0.3946
 3404SOL    HW111120   1.991   2.223   5.910  0.3293  1.6332 -1.3378
 3404SOL    HW211121   1.954   2.198   6.055 -0.0308 -1.4187 -1.8781
 3405SOL     OW11122   4.704   2.447   6.747 -0.1481 -0.1151 -0.1433
 3405SOL    HW111123   4.772   2.457   6.681  0.8105 -0.5346  0.7515
 3405SOL    HW211124   4.645   2.380   6.711  0.7128 -0.8013 -0.3051
 3406SOL     OW11125   2.574   0.393   1.472  0.2460 -0.5759  0.2075
 3406SOL    HW111126   2.575   0.316   1.415  0.3827 -0.2631 -0.2215
 3406SOL    HW211127   2.651   0.382   1.529  0.3536 -0.6814  0.0435
 3407SOL     OW11128   3.226   1.847   6.761 -0.3330 -0.8090  0.0848
 3407SOL    HW111129   3.148   1.888   6.725 -0.5971 -1.0489  0.3723
 3407SOL    HW211130   3.253   1.783   6.695  0.3225  0.1089 -0.5487
 3408SOL     OW11131   6.691   6.338   7.663  0.3670 -0.6177 -0.5541
 3408SOL    HW111132   6.629   6.276   7.625  0.7497 -2.4005  1.5346
 3408SOL    HW211133   6.776   6.295   7.655  0.5579 -0.7321  1.4808
 3409SOL     OW11134   1.656   1.446   7.085  0.6280  0.6416 -0.0560
 3409SOL    HW111135   1.709   1.403   7.152  0.4579 -0.9067 -0.8604
 3409SOL    HW211136   1.719   1.488   7.027  0.8794  0.4083  0.0469
 3410SOL     OW11137   5.225   5.727   5.516  0.1425  0.0808  0.7724
 3410SOL    HW111138   5.174   5.677   5.453 -0.9872  1.6896  0.3417
 3410SOL    HW211139   5.254   5.663   5.580  0.3566 -1.4192 -0.7411
 3411SOL     OW11140   0.652   1.054   6.797  0.2903 -0.2120 -0.2773
 3411SOL    HW111141   0.669   1.122   6.862 -0.1893  0.2344 -0.6100
 3411SOL    HW211142   0.627   1.102   6.718  2.7661 -0.6132 -1.4324
 3412SOL     OW11143   6.772   7.287   1.175 -0.0926  0.0726 -0.0967
 3412SOL    HW111144   6.849   7.262   1.227 -0.7436 -1.6836  0.0918
 3412SOL    HW211145   6.715   7.332   1.238  1.2140  2.4425 -0.5033
 3413SOL     OW11146   3.553   7.026   6.745 -0.2085 -0.4058 -0.2458
 3413SOL    HW111147   3.528   6.938   6.774 -0.8452  0.5131  2.3194
 3413SOL    HW211148   3.648   7.025   6.746 -0.1094 -0.1511  3.3631
 3414SOL     OW11149   4.579   4.707   7.025 -0.1082 -0.1334 -0.7423
 3414SOL    HW111150   4.543   4.620   7.014  0.2729 -0.3187 -0.5544
 3414SOL    HW211151   4.593   4.739   6.936 -1.9297  0.4631 -0.8614
 3415SOL     OW11152   1.741   2.385   3.929 -0.3759  0.3434 -0.5481
 3415SOL    HW111153   1.776   2.473   3.930  1.3272 -0.2905  0.5693
 3415SOL    HW211154   1.696   2.377   3.845 -0.2219  2.1234 -0.8240
 3416SOL     OW11155   1.546   2.562   3.203  0.2261 -0.3465  0.3333
 3416SOL    HW111156   1.527   2.551   3.110  1.1163  3.9438 -0.5771
 3416SOL    HW211157   1.491   2.636   3.230  1.3716 -0.2638  2.7261
 3417SOL     OW11158   5.927   2.398   3.143  0.4284  0.3141  0.2919
 3417SOL    HW111159   5.986   2.452   3.195  0.1518  0.5572  0.3568
 3417SOL    HW211160   5.894   2.332   3.204  0.8782 -0.0226  0.1773
 3418SOL     OW11161   4.237   3.840   0.482 -0.2646 -0.3257 -0.3624
 3418SOL    HW111162   4.330   3.826   0.466 -0.1421  1.2520 -1.2220
 3418SOL    HW211163   4.233   3.882   0.568 -0.0536  0.7204 -0.8442
 3419SOL     OW11164   6.793   1.085   1.149 -0.2328 -0.3567 -0.0864
 3419SOL    HW111165   6.725   1.145   1.120  1.8463  1.7666 -0.8463
 3419SOL    HW211166   6.857   1.084   1.078  0.4712 -2.4773  0.4873
 3420SOL     OW11167   3.206   0.313   2.519 -0.8258 -0.1097 -0.2169
 3420SOL    HW111168   3.249   0.398   2.511  0.8136 -0.9658 -1.0758
 3420SOL    HW211169   3.121   0.332   2.558 -0.0336  1.7782  0.6938
 3421SOL     OW11170   6.262   0.722   6.331  0.3056 -0.3587  0.0694
 3421SOL    HW111171   6.213   0.702   6.411 -0.0819 -0.1556 -0.1103
 3421SOL    HW211172   6.327   0.787   6.358  0.2853 -0.4162  0.2572
 3422SOL     OW11173   0.669   2.517   5.672  0.1733  0.1593  0.3852
 3422SOL    HW111174   0.757   2.524   5.635  0.6840  1.0052  1.6894
 3422SOL    HW211175   0.679   2.459   5.747 -0.9010 -1.7535 -0.8715
 3423SOL     OW11176   6.058   5.562   1.050 -0.3023 -0.1504  0.2832
 3423SOL    HW111177   6.084   5.544   0.959 -1.1778 -0.1828  0.0251
 3423SOL    HW211178   6.071   5.656   1.060 -1.5754  0.1209 -0.3604
 3424SOL     OW11179   3.577   2.870   5.005  0.3232 -0.1277 -0.4535
 3424SOL    HW111180   3.592   2.777   4.989  0.5015 -0.1786 -0.0047
 3424SOL    HW211181   3.602   2.883   5.096 -1.5121 -0.0414  0.0850
 3425SOL     OW11182   1.520   4.747   2.202  0.2727 -0.2816  0.6124
 3425SOL    HW111183   1.546   4.811   2.269  2.6993  2.7687 -2.8103
 3425SOL    HW211184   1.464   4.796   2.142  0.8027 -1.8365 -1.2803
 3426SOL     OW11185   2.613   2.150   3.921  0.1377  0.2294  0.2098
 3426SOL    HW111186   2.559   2.071   3.931 -0.8058  0.5472 -1.8988
 3426SOL    HW211187   2.584   2.208   3.992 -1.2576 -0.2024  0.0145
 3427SOL     OW11188   2.858   0.989   4.451 -0.4212 -0.3610 -0.5171
 3427SOL    HW111189   2.839   0.906   4.408  0.7101  0.0479 -1.8861
 3427SOL    HW211190   2.783   1.044   4.429 -0.5733 -0.6322 -0.6880
 3428SOL     OW11191   6.324   7.313   5.334  0.8201 -0.0276  0.0151
 3428SOL    HW111192   6.286   7.252   5.397 -0.9574  0.0521 -0.9180
 3428SOL    HW211193   6.385   7.366   5.386 -0.1964 -0.3095  1.5589
 3429SOL     OW11194   6.216   7.619   1.078  0.0001  0.1361  0.2283
 3429SOL    HW111195   6.168   7.644   1.157 -0.6350 -1.2291  0.3060
 3429SOL    HW211196   6.266   7.697   1.054 -2.5570  1.8144 -0.0865
 3430SOL     OW11197   5.019   7.382   6.733 -0.7165  0.1550  0.0031
 3430SOL    HW111198   5.109   7.358   6.756 -0.3655  1.4897  0.0891
 3430SOL    HW211199   5.018   7.477   6.736 -1.8434  0.2040 -1.1185
 3431SOL     OW11200   4.589   0.527   6.227 -0.0866 -0.5431  0.0558
 3431SOL    HW111201   4.606   0.616   6.195  0.0938  0.0558  1.6811
 3431SOL    HW211202   4.532   0.540   6.303  0.8739 -1.7193  1.0142
 3432SOL     OW11203   0.988   1.268   0.665 -0.0518  0.0420  0.7104
 3432SOL    HW111204   0.914   1.215   0.694  0.2482 -0.9949 -0.3430
 3432SOL    HW211205   1.035   1.212   0.604  1.0693  1.0357  0.6304
 3433SOL     OW11206   7.569   2.760   4.012 -0.5018  0.5868  0.2833
 3433SOL    HW111207   7.549   2.674   3.975 -1.1725  0.7119  0.3329
 3433SOL    HW211208   7.643   2.792   3.960 -0.7436  0.3083 -0.2438
 3434SOL     OW11209   3.118   6.237   0.585  1.1057  0.2919  0.2305
 3434SOL    HW111210   3.162   6.249   0.501 -0.6492 -0.3143 -0.8199
 3434SOL    HW211211   3.025   6.231   0.564  0.5228  0.9786  2.3096
 3435SOL     OW11212   1.952   0.887   3.714 -0.2943  0.0743  0.1539
 3435SOL    HW111213   1.939   0.908   3.622  1.2026 -0.1921 -0.1441
 3435SOL    HW211214   1.939   0.792   3.719  1.4423 -0.2066 -0.1617
 3436SOL     OW11215   5.830   6.011   6.825 -0.2158 -0.1744  0.2698
 3436SOL    HW111216   5.820   5.997   6.731  0.7802  1.5576 -0.1385
 3436SOL    HW211217   5.777   6.089   6.843 -0.5827 -0.6244  1.2076
 3437SOL     OW11218   4.249   3.983   4.711 -0.6145  0.1686  0.0413
 3437SOL    HW111219   4.278   4.051   4.650  1.3885  0.0233  0.7662
 3437SOL    HW211220   4.287   4.008   4.795 -1.7796 -0.6289  0.8383
 3438SOL     OW11221   3.376   4.624   1.007 -0.1547  0.2730  0.2018
 3438SOL    HW111222   3.397   4.718   1.004 -0.3217  0.3000 -2.2891
 3438SOL    HW211223   3.292   4.617   0.962 -0.9035 -0.9458  1.7026
 3439SOL     OW11224   7.283   3.321   1.284  0.5203 -0.2253  0.1526
 3439SOL    HW111225   7.280   3.406   1.328 -0.0560  0.4225 -1.1027
 3439SOL    HW211226   7.357   3.328   1.223 -0.3040 -0.1469 -0.8661
 3440SOL     OW11227   1.606   7.486   4.571  0.2184  0.0545 -0.1446
 3440SOL    HW111228   1.545   7.519   4.637  1.1512 -0.5054  1.0486
 3440SOL    HW211229   1.606   7.552   4.502 -0.9132  0.5821  0.3415
 3441SOL     OW11230   0.087   2.795   6.786  0.0181  0.1123 -0.2605
 3441SOL    HW111231   0.099   2.882   6.749 -2.8425 -0.2692 -2.3985
 3441SOL    HW211232   0.114   2.735   6.717  0.5800 -0.7316  0.6523
 3442SOL     OW11233   7.422   1.106   2.665 -0.5970 -0.3372 -0.0045
 3442SOL    HW111234   7.389   1.191   2.692  0.4721  0.1266 -0.0855
 3442SOL    HW211235   7.346   1.061   2.629 -0.9145  1.1312 -1.2978
 3443SOL     OW11236   2.450   7.637   0.305  0.1520 -1.2866 -0.3290
 3443SOL    HW111237   2.364   7.612   0.338 -0.4442  0.1038 -0.7739
 3443SOL    HW211238   2.454   7.601   0.216  0.6034 -2.5413  0.1811
 3444SOL     OW11239   7.008   0.249   6.724 -0.4460  0.1766 -0.2297
 3444SOL    HW111240   6.943   0.195   6.678  2.2744 -0.5919 -3.6331
 3444SOL    HW211241   7.049   0.188   6.786  0.1446 -0.6977 -1.4411
 3445SOL     OW11242   5.865   0.546   1.045 -0.2629  0.1134  0.8222
 3445SOL    HW111243   5.832   0.558   0.956  0.0726 -0.2078  0.6508
 3445SOL    HW211244   5.796   0.582   1.101 -0.8201 -0.3756  0.4675
 3446SOL     OW11245   3.895   2.420   1.625  0.6349  0.0047  0.3652
 3446SOL    HW111246   3.911   2.331   1.657  0.1901 -0.0393  0.4734
 3446SOL    HW211247   3.817   2.449   1.673  0.6254  0.3548  0.1423
 3447SOL     OW11248   1.918   3.190   6.718 -0.3498  0.5479  1.2167
 3447SOL    HW111249   1.976   3.213   6.791  1.0726  0.8539  0.0475
 3447SOL    HW211250   1.875   3.272   6.695  1.2580  1.1225  0.0166
 3448SOL     OW11251   1.572   2.973   2.721  0.0142  0.1319  0.0441
 3448SOL    HW111252   1.501   2.983   2.784 -0.0768  0.4422 -0.1038
 3448SOL    HW211253   1.553   2.890   2.677  0.7871 -0.7459  1.3004
 3449SOL     OW11254   5.969   4.354   7.680  0.1869 -0.1933  0.0336
 3449SOL    HW111255   5.983   4.375   7.588 -0.0567 -0.6559 -0.1117
 3449SOL    HW211256   5.942   4.437   7.719  1.5621  0.3130 -0.0352
 3450SOL     OW11257   5.234   0.595   1.237  0.3525 -0.5541 -0.1010
 3450SOL    HW111258   5.320   0.615   1.201 -0.3622 -0.2784 -1.7861
 3450SOL    HW211259   5.224   0.654   1.312  2.0202 -1.3256  0.7651
 3451SOL     OW11260   2.912   4.323   4.054 -0.3686 -0.2100  0.0647
 3451SOL    HW111261   2.839   4.326   4.116  0.9258 -0.5432  1.6799
 3451SOL    HW211262   2.930   4.415   4.035  0.6943  0.0490  2.0601
 3452SOL     OW11263   5.341   0.512   4.353 -0.6419 -0.2125 -0.1308
 3452SOL    HW111264   5.301   0.431   4.385 -0.4676 -0.2104  0.0959
 3452SOL    HW211265   5.355   0.564   4.432 -2.1871  0.7000 -0.4056
 3453SOL     OW11266   4.510   5.469   6.767 -0.0919  0.0193  0.2884
 3453SOL    HW111267   4.528   5.415   6.843 -2.8655 -1.1175  0.2440
 3453SOL    HW211268   4.424   5.507   6.784 -0.9149 -0.4625 -2.3386
 3454SOL     OW11269   7.290   3.435   6.849 -0.7575 -0.2634 -0.1144
 3454SOL    HW111270   7.228   3.502   6.878  0.0002  0.2531  0.3256
 3454SOL    HW211271   7.266   3.418   6.758 -0.6269  0.9831 -0.3937
 3455SOL     OW11272   2.684   4.276   4.230  0.2173 -0.4614 -0.3137
 3455SOL    HW111273   2.589   4.289   4.234 -0.0381 -2.1428  0.1913
 3455SOL    HW211274   2.720   4.341   4.291 -0.7494 -0.7977  0.6467
 3456SOL     OW11275   0.944   0.251   0.991 -0.5356 -0.0910 -0.1441
 3456SOL    HW111276   0.960   0.312   0.919 -0.3559  0.4497  0.3487
 3456SOL    HW211277   0.921   0.169   0.948 -0.3756  0.2120 -0.8194
 3457SOL     OW11278   1.394   3.065   5.297  0.0381 -0.6854 -0.2356
 3457SOL    HW111279   1.482   3.100   5.309 -1.2819  3.2022 -0.3741
 3457SOL    HW211280   1.380   3.009   5.373  2.4131 -0.9845  0.0554
 3458SOL     OW11281   4.534   0.468   4.848 -0.2241 -0.2734  0.5772
 3458SOL    HW111282   4.538   0.430   4.936 -0.3657  0.3800  0.8715
 3458SOL    HW211283   4.578   0.552   4.856 -1.7754  0.5932  0.4693
 3459SOL     OW11284   7.014   5.192   7.078 -0.4765  0.1095  0.0943
 3459SOL    HW111285   7.087   5.230   7.030  0.4833 -0.7420  0.8244
 3459SOL    HW211286   6.967   5.139   7.013 -0.7697  1.0777 -0.4971
 3460SOL     OW11287   6.376   7.505   4.555  0.6149 -0.4801 -0.7651
 3460SOL    HW111288   6.319   7.428   4.557  1.2335 -0.9942 -2.0861
 3460SOL    HW211289   6.329   7.571   4.607 -2.5254  0.0473 -3.9395
 3461SOL     OW11290   3.377   7.242   6.863  0.3371 -0.0762 -0.2867
 3461SOL    HW111291   3.461   7.202   6.885  0.6956  0.4449 -0.6750
 3461SOL    HW211292   3.314   7.203   6.924  0.8190 -0.6350 -0.1425
 3462SOL     OW11293   1.230   2.624   2.773  0.1587 -0.1479  0.1723
 3462SOL    HW111294   1.225   2.663   2.686  2.5986 -1.8161 -0.8355
 3462SOL    HW211295   1.153   2.568   2.779 -1.4500  1.9657  0.2252
 3463SOL     OW11296   7.191   4.835   4.973  0.2188  0.3735 -0.2234
 3463SOL    HW111297   7.155   4.760   5.021  0.0094  0.5235 -0.1429
 3463SOL    HW211298   7.244   4.796   4.904  0.0304  0.1486 -0.2429
 3464SOL     OW11299   7.694   6.538   2.911 -0.4469 -0.2200 -0.3368
 3464SOL    HW111300   7.709   6.541   3.005 -0.2103  0.3355 -0.3901
 3464SOL    HW211301   7.781   6.527   2.873 -0.4714  0.1792 -0.5162
 3465SOL     OW11302   4.881   7.456   6.308  0.1575  0.2706  0.0233
 3465SOL    HW111303   4.839   7.540   6.291 -0.6192  0.0197  0.6128
 3465SOL    HW211304   4.870   7.406   6.227 -0.4841  0.2990  0.0850
 3466SOL     OW11305   4.525   6.923   7.042  0.5620  0.0623  0.9486
 3466SOL    HW111306   4.510   6.986   6.971 -3.5203 -1.2119  0.3924
 3466SOL    HW211307   4.528   6.976   7.121 -0.1368  1.1783  0.2570
 3467SOL     OW11308   4.300   6.964   5.060 -0.2081 -0.8254  0.5034
 3467SOL    HW111309   4.205   6.967   5.049 -0.2841 -4.9305 -1.6277
 3467SOL    HW211310   4.335   6.975   4.971  1.3364 -0.1599  1.1483
 3468SOL     OW11311   2.899   6.417   0.303 -0.1387  0.4234 -0.1579
 3468SOL    HW111312   2.980   6.367   0.305 -0.5649 -0.2632  1.3202
 3468SOL    HW211313   2.841   6.367   0.246  0.2916  0.6442 -0.8026
 3469SOL     OW11314   7.094   6.393   7.107  0.4662 -0.2557  0.1018
 3469SOL    HW111315   7.165   6.408   7.169 -0.4251 -1.3934  1.4353
 3469SOL    HW211316   7.130   6.329   7.045  1.5024  1.1974 -0.8963
 3470SOL     OW11317   6.757   0.104   2.969  0.1507 -0.5092 -0.0715
 3470SOL    HW111318   6.819   0.097   3.042  0.2019  0.4428 -0.0162
 3470SOL    HW211319   6.783   0.035   2.908  2.0630  0.6701 -0.6482
 3471SOL     OW11320   5.933   2.763   3.225  0.2273  0.0074  0.0927
 3471SOL    HW111321   5.875   2.726   3.159 -0.5731  0.5955  0.4505
 3471SOL    HW211322   6.009   2.704   3.226  0.4159  0.1688 -1.5655
 3472SOL     OW11323   7.624   1.226   2.501  0.0267  0.2450  0.2714
 3472SOL    HW111324   7.687   1.156   2.483  0.5223  0.9116 -0.6326
 3472SOL    HW211325   7.542   1.179   2.521 -0.2261 -0.6147 -2.4210
 3473SOL     OW11326   4.842   3.276   1.489  0.3245  0.0505  0.1767
 3473SOL    HW111327   4.759   3.235   1.465  1.3589 -0.9492 -1.9475
 3473SOL    HW211328   4.883   3.213   1.550  0.3817 -0.4373 -0.3546
 3474SOL     OW11329   3.879   7.517   1.407  0.2305 -0.5597  0.0135
 3474SOL    HW111330   3.917   7.510   1.319  0.0159  0.6142 -0.1942
 3474SOL    HW211331   3.787   7.538   1.392  0.4064  0.6286  0.5068
 3475SOL     OW11332   0.151   3.492   2.284  0.0815  0.3635 -0.0549
 3475SOL    HW111333   0.115   3.549   2.351 -0.7150 -0.3501  0.1364
 3475SOL    HW211334   0.243   3.480   2.309 -0.0851  0.5022  0.6223
 3476SOL     OW11335   5.331   5.946   2.728 -1.1116 -0.5197  0.2585
 3476SOL    HW111336   5.407   5.969   2.675 -1.6674  2.1883  0.4920
 3476SOL    HW211337   5.272   5.901   2.667 -0.5027 -0.0896 -0.6676
 3477SOL     OW11338   3.524   4.884   4.357  0.3290 -0.5020 -0.2675
 3477SOL    HW111339   3.554   4.966   4.397 -0.4572 -0.7109  0.8119
 3477SOL    HW211340   3.428   4.887   4.365  0.2063 -0.9719 -1.3492
 3478SOL     OW11341   3.361   4.674   3.220 -0.4859  0.1350  0.0920
 3478SOL    HW111342   3.281   4.624   3.206 -0.3388  0.4087 -2.1980
 3478SOL    HW211343   3.427   4.609   3.242 -1.3095 -0.0860  2.0926
 3479SOL     OW11344   0.734   3.247   3.220  0.4300  0.2626 -0.6597
 3479SOL    HW111345   0.781   3.233   3.302 -0.1203 -0.2154 -0.4245
 3479SOL    HW211346   0.733   3.342   3.210  2.0880  0.2726 -1.0500
 3480SOL     OW11347   3.013   3.206   6.591  0.4525  0.4100 -0.0862
 3480SOL    HW111348   3.001   3.118   6.556 -0.5371 -0.2411  1.7593
 3480SOL    HW211349   2.944   3.216   6.656  0.4249  2.6376 -0.3750
 3481SOL     OW11350   3.262   1.969   6.140  0.1235 -0.6820 -0.6493
 3481SOL    HW111351   3.223   2.023   6.071  0.2735 -0.5039 -0.5931
 3481SOL    HW211352   3.289   1.889   6.094  0.6422 -0.3737 -0.8846
 3482SOL     OW11353   3.535   0.384   4.949 -0.5320  0.3412  0.3561
 3482SOL    HW111354   3.572   0.466   4.917  0.7949 -0.3359  0.0800
 3482SOL    HW211355   3.467   0.411   5.011 -0.3041  1.6396  0.0756
 3483SOL     OW11356   2.979   6.591   5.328  0.3744  0.1655 -0.4347
 3483SOL    HW111357   2.917   6.655   5.293  0.0742 -0.3844 -0.9247
 3483SOL    HW211358   3.020   6.553   5.251 -1.3026 -2.0720 -0.3157
 3484SOL     OW11359   6.696   4.093   0.441 -0.6159 -0.7358 -0.4244
 3484SOL    HW111360   6.779   4.121   0.403 -0.0779 -0.7280  0.7063
 3484SOL    HW211361   6.676   4.158   0.508 -2.4693  0.2671 -1.8506
 3485SOL     OW11362   7.725   2.423   3.417  0.0689 -0.1492  0.1436
 3485SOL    HW111363   7.751   2.459   3.333 -0.7311 -0.3023 -0.1742
 3485SOL    HW211364   7.631   2.410   3.410  0.1179 -0.9373  0.7632
 3486SOL     OW11365   4.035   3.794   5.177  0.2720 -0.0214 -0.4344
 3486SOL    HW111366   4.048   3.792   5.272  0.8320 -0.0604 -0.5082
 3486SOL    HW211367   4.102   3.735   5.143 -1.0610 -1.4403 -0.7410
 3487SOL     OW11368   6.524   6.561   5.891 -0.0020 -0.4030  0.5217
 3487SOL    HW111369   6.541   6.586   5.800 -1.1631 -0.3850  0.3003
 3487SOL    HW211370   6.611   6.542   5.926  0.6482  1.2800 -0.0747
 3488SOL     OW11371   2.557   3.997   2.156  0.4867 -0.8836 -0.1407
 3488SOL    HW111372   2.589   4.067   2.214  0.2243 -1.6257  0.9285
 3488SOL    HW211373   2.605   4.011   2.074 -0.4948  1.3295 -0.4148
 3489SOL     OW11374   2.315   2.311   1.697 -0.2580 -0.5071 -0.0086
 3489SOL    HW111375   2.325   2.401   1.729 -1.1167  0.1279 -1.4016
 3489SOL    HW211376   2.260   2.268   1.762 -1.0510  0.4163 -0.0476
 3490SOL     OW11377   3.049   1.646   3.644  0.0899  0.3506 -0.2592
 3490SOL    HW111378   3.125   1.619   3.695  0.5596  2.6635  0.3907
 3490SOL    HW211379   2.981   1.581   3.664  0.6461  0.4747  2.3603
 3491SOL     OW11380   0.531   3.013   1.452  0.0746 -0.2409  0.0121
 3491SOL    HW111381   0.509   2.938   1.507  0.8976 -0.7715 -0.3722
 3491SOL    HW211382   0.451   3.066   1.451 -0.0549 -0.3641  1.4658
 3492SOL     OW11383   0.484   1.607   5.660  0.4895  0.3110 -0.4101
 3492SOL    HW111384   0.552   1.672   5.645  1.3285 -0.5529 -0.5118
 3492SOL    HW211385   0.434   1.639   5.734  2.3378 -0.0376  1.0676
 3493SOL     OW11386   7.665   6.214   3.678  0.5404  0.0966 -0.0047
 3493SOL    HW111387   7.749   6.207   3.632  0.8448 -0.2977  0.5902
 3493SOL    HW211388   7.632   6.300   3.655  0.5837 -0.1686 -1.1253
 3494SOL     OW11389   0.244   7.156   7.654  0.0378  0.5911  0.5982
 3494SOL    HW111390   0.261   7.218   7.584  1.5275 -0.6589 -0.2193
 3494SOL    HW211391   0.312   7.089   7.644 -1.8198 -1.4951  1.0491
 3495SOL     OW11392   3.256   6.369   7.686 -0.1160 -0.0118  0.9248
 3495SOL    HW111393   3.223   6.287   7.724  1.6258 -0.5827  1.2950
 3495SOL    HW211394   3.222   6.369   7.597  0.0344 -1.2626  0.8410
 3496SOL     OW11395   5.928   2.509   1.686 -0.9812  0.0425  0.1220
 3496SOL    HW111396   5.902   2.436   1.630  0.6187  0.0301 -0.6629
 3496SOL    HW211397   6.013   2.483   1.722 -1.7198  0.2892  2.1552
 3497SOL     OW11398   6.978   7.322   1.699  0.4418 -0.8767  0.1910
 3497SOL    HW111399   6.985   7.400   1.754  0.9637 -0.6732 -0.1546
 3497SOL    HW211400   7.009   7.251   1.755  2.0117 -0.5108 -0.1662
 3498SOL     OW11401   3.591   1.604   2.379 -0.1641  0.1286 -0.2522
 3498SOL    HW111402   3.510   1.577   2.336  0.1570 -0.7960 -0.2941
 3498SOL    HW211403   3.565   1.677   2.434 -1.1696 -0.5383  0.1943
 3499SOL     OW11404   1.303   0.172   1.281 -0.2843  0.0076 -0.0414
 3499SOL    HW111405   1.390   0.180   1.320 -0.0685 -1.6934 -0.0833
 3499SOL    HW211406   1.312   0.102   1.216 -1.7024 -0.2779  0.0266
 3500SOL     OW11407   0.808   6.017   4.892  0.1420  0.0371  0.0143
 3500SOL    HW111408   0.728   6.058   4.924 -0.5142 -0.1018 -1.3914
 3500SOL    HW211409   0.837   6.073   4.820  0.9044 -0.3178  0.0391
 3501SOL     OW11410   5.678   1.385   5.806 -0.2633 -0.5752  0.3515
 3501SOL    HW111411   5.687   1.459   5.867 -1.5599 -0.0426 -0.0786
 3501SOL    HW211412   5.752   1.394   5.746  0.2700 -0.3361  1.0318
 3502SOL     OW11413   5.826   2.115   1.641  0.3962  0.2656 -0.4531
 3502SOL    HW111414   5.860   2.026   1.636  1.2213  0.6109 -1.1816
 3502SOL    HW211415   5.802   2.138   1.551  0.3086  0.8247 -0.2950
 3503SOL     OW11416   4.892   2.726   5.111  0.6113 -0.3698 -0.5832
 3503SOL    HW111417   4.981   2.729   5.148  0.8675 -0.7478 -1.1557
 3503SOL    HW211418   4.835   2.722   5.188  0.9400  2.2855 -0.1158
 3504SOL     OW11419   2.594   6.016   3.529 -0.3810 -0.3677 -0.3013
 3504SOL    HW111420   2.656   5.944   3.539  1.6679  1.2656 -0.5762
 3504SOL    HW211421   2.591   6.059   3.615 -1.8405 -0.9098 -0.0418
 3505SOL     OW11422   2.671   7.527   5.969  0.3770  0.4134 -0.1328
 3505SOL    HW111423   2.598   7.499   5.914  0.6023 -0.8873  0.2061
 3505SOL    HW211424   2.748   7.487   5.928  0.6473  0.1029  0.6590
 3506SOL     OW11425   3.265   6.787   2.254 -0.3977  0.3327  0.1575
 3506SOL    HW111426   3.323   6.802   2.180  0.1509 -0.8827  0.3261
 3506SOL    HW211427   3.209   6.865   2.256  0.6873  1.1605 -0.4922
 3507SOL     OW11428   4.735   1.830   1.947 -0.0457 -0.8076  0.0532
 3507SOL    HW111429   4.711   1.899   1.885 -0.2551 -1.7653 -0.9645
 3507SOL    HW211430   4.813   1.865   1.992  1.7478 -1.0804 -2.5802
 3508SOL     OW11431   6.842   5.145   4.473  0.0723 -0.2188 -0.7115
 3508SOL    HW111432   6.844   5.115   4.382  0.1027  0.0222 -0.7914
 3508SOL    HW211433   6.929   5.180   4.488 -0.1295  0.3274 -0.7911
 3509SOL     OW11434   0.264   4.152   1.817  0.3036  0.2994 -0.4789
 3509SOL    HW111435   0.212   4.127   1.893 -0.0041 -0.2434 -0.8610
 3509SOL    HW211436   0.315   4.227   1.846  0.6883 -0.3086  0.4733
 3510SOL     OW11437   4.298   4.422   4.089  0.2646  0.7926 -0.2948
 3510SOL    HW111438   4.267   4.483   4.156  0.1212  0.5141 -0.1072
 3510SOL    HW211439   4.369   4.375   4.131  0.8767  1.3466 -0.6858
 3511SOL     OW11440   2.338   0.599   2.090  0.1739  0.0224 -1.0203
 3511SOL    HW111441   2.324   0.691   2.068  1.3977  1.4021  3.0709
 3511SOL    HW211442   2.429   0.595   2.121 -0.4252 -2.1251  0.6984
 3512SOL     OW11443   1.645   6.469   3.272 -0.0064  0.4631  0.1147
 3512SOL    HW111444   1.633   6.423   3.188  0.8069 -0.8587  0.6870
 3512SOL    HW211445   1.665   6.559   3.247  1.4726 -0.1685 -1.1927
 3513SOL     OW11446   2.831   0.267   1.551 -0.5992  0.1875  0.3735
 3513SOL    HW111447   2.918   0.232   1.574  0.0649 -0.2161 -2.4071
 3513SOL    HW211448   2.770   0.214   1.602  0.6459 -1.8993 -0.1907
 3514SOL     OW11449   2.358   7.022   4.171  0.5635  0.1234 -0.1841
 3514SOL    HW111450   2.373   7.102   4.222  0.5738  0.1247 -0.1893
 3514SOL    HW211451   2.263   7.019   4.158  0.5064 -0.1354  0.2610
 3515SOL     OW11452   7.252   7.610   2.643  0.2337 -0.7384 -1.0456
 3515SOL    HW111453   7.253   7.528   2.692  1.5653  0.2344  0.7120
 3515SOL    HW211454   7.167   7.649   2.664  0.4831 -0.6868 -0.0512
 3516SOL     OW11455   5.184   6.404   7.351 -0.2356 -0.1426  0.1642
 3516SOL    HW111456   5.224   6.336   7.297  3.1597  0.7506  1.2784
 3516SOL    HW211457   5.213   6.486   7.311 -1.0790  0.5879  1.0087
 3517SOL     OW11458   4.172   0.083   3.293 -0.3752  0.7196 -0.2067
 3517SOL    HW111459   4.262   0.091   3.262 -0.4354 -1.9675 -1.3486
 3517SOL    HW211460   4.180   0.035   3.376 -0.7540  0.1015 -0.5225
 3518SOL     OW11461   7.359   2.826   3.470  0.8406 -0.2026 -0.2378
 3518SOL    HW111462   7.352   2.732   3.483 -1.8059  0.0856  1.3299
 3518SOL    HW211463   7.340   2.840   3.377 -0.9351 -1.1261 -0.0537
 3519SOL     OW11464   7.553   2.410   0.243  0.1766  0.0270 -0.1186
 3519SOL    HW111465   7.474   2.355   0.240  0.0373  0.2832 -1.8675
 3519SOL    HW211466   7.526   2.486   0.296  0.1647 -1.1979  1.7420
 3520SOL     OW11467   1.938   1.534   7.408  0.5137  0.0020  0.5128
 3520SOL    HW111468   1.884   1.601   7.368  1.2436  0.2301 -0.1045
 3520SOL    HW211469   2.025   1.574   7.416  0.5680 -0.2905  1.6601
 3521SOL     OW11470   6.593   2.908   7.123 -0.3304 -0.1400 -1.0736
 3521SOL    HW111471   6.534   2.833   7.125 -0.3229 -0.1470 -1.1008
 3521SOL    HW211472   6.673   2.874   7.083  0.4938 -0.7043  0.9396
 3522SOL     OW11473   2.553   7.423   7.499  0.0481  0.1481 -0.9221
 3522SOL    HW111474   2.502   7.351   7.462 -0.1157 -0.0772 -0.2712
 3522SOL    HW211475   2.644   7.401   7.478  0.1099 -0.8870  0.3106
 3523SOL     OW11476   7.741   1.010   0.465  0.3700 -0.2813  0.5803
 3523SOL    HW111477   7.701   0.956   0.397 -1.2793 -0.2895  1.4941
 3523SOL    HW211478   7.739   1.099   0.430  0.4049 -0.4140  0.2423
 3524SOL     OW11479   4.140   2.801   0.634 -0.1154 -0.0331  0.4563
 3524SOL    HW111480   4.097   2.833   0.713 -0.0423 -1.2932  1.0281
 3524SOL    HW211481   4.069   2.795   0.570 -0.0467  1.7230  0.1497
 3525SOL     OW11482   4.835   0.415   1.143 -1.0466  0.4500  0.4412
 3525SOL    HW111483   4.848   0.490   1.085  0.4649 -0.1402 -0.0406
 3525SOL    HW211484   4.918   0.367   1.138 -2.7380 -2.5699 -1.1120
 3526SOL     OW11485   7.200   5.972   4.468 -0.0970 -0.0255 -0.7715
 3526SOL    HW111486   7.124   5.996   4.413  0.3744  0.0283 -1.4136
 3526SOL    HW211487   7.224   5.885   4.438  0.1485 -0.0087 -0.6225
 3527SOL     OW11488   4.334   0.740   6.630  0.1046  0.1994  0.0739
 3527SOL    HW111489   4.305   0.806   6.566 -2.2540 -0.9816 -0.1835
 3527SOL    HW211490   4.402   0.784   6.680  2.1416  1.1655 -3.2484
 3528SOL     OW11491   6.714   5.240   1.290 -1.0171  0.3385  0.4724
 3528SOL    HW111492   6.658   5.236   1.212 -2.8199  0.8089  1.6703
 3528SOL    HW211493   6.695   5.159   1.337 -0.5557  0.4289  0.8173
 3529SOL     OW11494   0.372   7.678   0.369 -0.4875  0.2137 -0.4166
 3529SOL    HW111495   0.302   7.660   0.431 -0.5747 -0.0791 -0.5940
 3529SOL    HW211496   0.414   7.757   0.402  0.1522 -0.5266  0.6240
 3530SOL     OW11497   5.874   5.345   7.188 -0.2287 -0.6260  0.1751
 3530SOL    HW111498   5.807   5.317   7.125  1.1913 -1.5415 -1.0060
 3530SOL    HW211499   5.913   5.422   7.148 -0.0993 -0.5133  0.5176
 3531SOL     OW11500   7.572   1.308   5.563  0.2102  0.2321  0.7230
 3531SOL    HW111501   7.561   1.229   5.510 -0.5298 -0.5531  1.9792
 3531SOL    HW211502   7.606   1.374   5.502  0.5286 -0.9523 -0.4331
 3532SOL     OW11503   7.235   3.055   1.215 -0.0009 -0.6831  0.2718
 3532SOL    HW111504   7.283   2.994   1.159 -0.1248 -0.1892 -0.3729
 3532SOL    HW211505   7.286   3.136   1.213 -1.3624  0.1784 -1.2333
 3533SOL     OW11506   6.001   7.358   5.606 -0.3307  0.2883 -0.5389
 3533SOL    HW111507   5.962   7.339   5.521  0.2195 -1.9570 -0.3531
 3533SOL    HW211508   6.066   7.289   5.619 -0.0612  0.8445  1.4852
 3534SOL     OW11509   6.187   3.803   6.478  0.2368 -0.5264  0.3495
 3534SOL    HW111510   6.251   3.769   6.415  1.6104 -0.6800  1.7621
 3534SOL    HW211511   6.162   3.888   6.442  1.2265 -0.4739 -0.2719
 3535SOL     OW11512   4.465   6.401   0.248 -0.1259 -0.1245  0.5888
 3535SOL    HW111513   4.445   6.336   0.316  0.5132 -0.4688  0.4523
 3535SOL    HW211514   4.552   6.433   0.271  0.4091 -0.7698 -0.4651
 3536SOL     OW11515   3.980   4.688   3.837  0.1768 -0.7550 -0.1462
 3536SOL    HW111516   3.939   4.697   3.923  0.2197 -1.4662 -0.0477
 3536SOL    HW211517   3.917   4.728   3.777  0.5497  0.5776  0.2959
 3537SOL     OW11518   7.153   2.588   4.176 -0.3190 -0.3368 -0.3918
 3537SOL    HW111519   7.106   2.531   4.114  0.8383 -0.5219 -1.1209
 3537SOL    HW211520   7.196   2.652   4.120  0.0242  0.0301  0.2962
 3538SOL     OW11521   6.657   5.524   5.279  0.0943 -0.0024  0.4198
 3538SOL    HW111522   6.584   5.529   5.217 -1.0770 -1.3557  1.5774
 3538SOL    HW211523   6.723   5.583   5.244 -0.6517 -0.4159 -1.8945
 3539SOL     OW11524   1.371   3.479   6.712  0.2570 -0.2571  0.2693
 3539SOL    HW111525   1.383   3.506   6.804  0.1374 -1.0241  0.5217
 3539SOL    HW211526   1.343   3.387   6.718 -3.1511  0.6403 -0.4141
 3540SOL     OW11527   2.063   4.055   6.884 -0.3668 -0.5707 -0.5369
 3540SOL    HW111528   2.145   4.101   6.905  1.5720 -4.0113  0.1791
 3540SOL    HW211529   2.004   4.079   6.955 -0.4686  2.7548 -1.5620
 3541SOL     OW11530   4.197   1.266   4.781  0.2504  0.0375 -0.1677
 3541SOL    HW111531   4.155   1.352   4.785  0.9733  0.3567  0.8368
 3541SOL    HW211532   4.156   1.216   4.851  0.3425 -0.1955 -0.2806
 3542SOL     OW11533   4.741   4.901   7.156  0.2143 -0.2666 -0.5246
 3542SOL    HW111534   4.684   4.828   7.132 -0.8532 -0.0936  1.2615
 3542SOL    HW211535   4.826   4.861   7.172  0.2244 -0.7612 -1.7166
 3543SOL     OW11536   2.414   7.470   1.604  0.0232  0.2788  0.4459
 3543SOL    HW111537   2.502   7.498   1.630  0.0110  0.4010  0.3524
 3543SOL    HW211538   2.401   7.509   1.518 -1.2638  2.6995  1.6397
 3544SOL     OW11539   3.754   6.073   6.757 -0.4013  0.4963 -0.1707
 3544SOL    HW111540   3.684   6.139   6.758 -0.4782  0.4050  0.2923
 3544SOL    HW211541   3.747   6.028   6.841 -0.1045  0.1478 -0.3289
 3545SOL     OW11542   6.498   7.523   3.941  0.1434  0.0368 -0.0402
 3545SOL    HW111543   6.416   7.542   3.895 -1.1881 -2.4155  1.0741
 3545SOL    HW211544   6.542   7.458   3.885 -0.0879 -0.7763  0.6945
 3546SOL     OW11545   0.333   5.663   4.073 -0.1189 -0.0892 -0.6178
 3546SOL    HW111546   0.329   5.758   4.064  0.9907  0.5295  3.4160
 3546SOL    HW211547   0.424   5.641   4.056  0.1766 -0.0338  0.8145
 3547SOL     OW11548   1.977   3.304   2.248  0.4608 -0.1642  0.1319
 3547SOL    HW111549   2.066   3.333   2.226  0.9199 -1.5062  0.1580
 3547SOL    HW211550   1.925   3.328   2.172  0.5714  1.6962  0.5776
 3548SOL     OW11551   2.281   7.183   4.712  0.4686 -0.3899 -0.8661
 3548SOL    HW111552   2.361   7.217   4.672  0.3018 -0.0418 -0.9001
 3548SOL    HW211553   2.211   7.238   4.677  0.4284  0.6221  0.7333
 3549SOL     OW11554   6.172   2.708   2.199 -0.5887 -0.0918  0.6416
 3549SOL    HW111555   6.268   2.712   2.202 -0.5449 -1.4425  1.6387
 3549SOL    HW211556   6.144   2.719   2.289 -1.4851  1.7470  0.1911
 3550SOL     OW11557   0.211   1.278   6.181  0.1474 -0.1239 -0.0676
 3550SOL    HW111558   0.298   1.237   6.184  0.1030 -0.4925 -2.2219
 3550SOL    HW211559   0.165   1.232   6.112 -1.7499  0.1731  0.9403
 3551SOL     OW11560   2.142   2.702   3.439  0.4647  0.2507 -0.0744
 3551SOL    HW111561   2.105   2.787   3.414 -1.8263 -0.2081  1.4206
 3551SOL    HW211562   2.132   2.699   3.535  2.0603 -1.0300  0.0894
 3552SOL     OW11563   4.795   7.621   4.479 -0.1186 -0.4062 -0.6450
 3552SOL    HW111564   4.831   7.673   4.550 -0.1339 -0.2290 -0.7638
 3552SOL    HW211565   4.718   7.671   4.450  1.3357  0.9007 -2.5060
 3553SOL     OW11566   3.286   2.556   1.135  0.0923  0.4503 -0.1321
 3553SOL    HW111567   3.345   2.624   1.102 -1.4061  2.1670  0.5015
 3553SOL    HW211568   3.218   2.549   1.068  1.0119 -1.5978 -0.9188
 3554SOL     OW11569   6.405   1.474   6.164 -0.0504  0.1295 -0.6689
 3554SOL    HW111570   6.446   1.388   6.168 -0.8548 -0.3604 -2.0961
 3554SOL    HW211571   6.420   1.504   6.075 -0.5082  1.0982 -0.4369
 3555SOL     OW11572   5.538   7.740   5.990  0.4260  0.3707 -0.1406
 3555SOL    HW111573   5.475   7.804   5.956  0.1213 -0.2301 -0.7432
 3555SOL    HW211574   5.538   7.754   6.084  2.6363  3.3457 -0.4362
 3556SOL     OW11575   7.214   4.565   2.252  0.1252 -0.0185  0.2578
 3556SOL    HW111576   7.277   4.574   2.180 -0.1758  0.2406  0.0233
 3556SOL    HW211577   7.268   4.549   2.329  0.6539  2.3138  0.4485
 3557SOL     OW11578   4.008   3.281   6.154 -0.1456 -0.4250  0.1317
 3557SOL    HW111579   4.101   3.297   6.140 -0.0871 -2.2341 -2.2179
 3557SOL    HW211580   3.968   3.293   6.068 -1.7703 -1.4732  0.6880
 3558SOL     OW11581   5.552   6.362   5.243 -0.4985  0.1690  0.0403
 3558SOL    HW111582   5.466   6.321   5.233 -0.7311  0.3776  1.0254
 3558SOL    HW211583   5.592   6.314   5.317  0.5931 -0.5136 -0.9472
 3559SOL     OW11584   0.798   6.302   3.379  1.2451  0.4153 -0.0924
 3559SOL    HW111585   0.838   6.389   3.369  0.0661  1.1214  0.9325
 3559SOL    HW211586   0.872   6.242   3.390  2.0740  1.3670 -0.3340
 3560SOL     OW11587   3.169   4.905   6.893 -0.5720 -0.1243 -0.4780
 3560SOL    HW111588   3.089   4.852   6.891  0.7091 -2.3061  1.3197
 3560SOL    HW211589   3.220   4.873   6.818 -0.8338  0.3512 -0.8624
 3561SOL     OW11590   5.402   0.203   5.246 -0.3139 -0.1341 -0.1355
 3561SOL    HW111591   5.396   0.128   5.187 -0.1169 -2.5860  2.7407
 3561SOL    HW211592   5.491   0.199   5.281 -0.7971  0.5311  1.2190
 3562SOL     OW11593   0.692   7.169   3.423  0.0892 -0.5576  0.9012
 3562SOL    HW111594   0.736   7.238   3.474  0.9594 -1.6692  1.6938
 3562SOL    HW211595   0.733   7.088   3.453 -0.5472 -1.3795 -0.4179
 3563SOL     OW11596   6.521   4.777   3.617  0.2327 -0.4291  0.3756
 3563SOL    HW111597   6.472   4.849   3.576 -4.2697 -1.9351  2.4529
 3563SOL    HW211598   6.593   4.821   3.664 -2.1807  2.8281  1.4460
 3564SOL     OW11599   6.980   3.438   1.489 -0.0570 -0.0284  0.0300
 3564SOL    HW111600   6.984   3.344   1.505 -1.4661  0.0500  0.9555
 3564SOL    HW211601   6.944   3.475   1.569  1.6030  1.4557  0.1523
 3565SOL     OW11602   0.069   0.573   5.480 -0.3999  0.4349  0.1931
 3565SOL    HW111603  -0.020   0.604   5.497 -0.3123  1.0971 -0.4855
 3565SOL    HW211604   0.076   0.573   5.384 -0.2679 -1.3340  0.1712
 3566SOL     OW11605   5.754   0.106   0.690  0.8654 -0.4438  0.2934
 3566SOL    HW111606   5.812   0.163   0.741  1.0802  0.2030 -0.6558
 3566SOL    HW211607   5.688   0.164   0.654  2.3815 -0.3376 -2.5741
 3567SOL     OW11608   6.641   2.379   6.041 -0.1904  0.1963  0.3460
 3567SOL    HW111609   6.701   2.427   5.985 -1.0668  0.0696 -0.7391
 3567SOL    HW211610   6.555   2.391   6.000 -0.6096 -1.2890  0.7156
 3568SOL     OW11611   2.123   3.222   0.558  0.3104 -0.1071  0.1602
 3568SOL    HW111612   2.196   3.233   0.619 -0.9469  1.3199  1.5382
 3568SOL    HW211613   2.068   3.155   0.598  0.2622 -0.3058 -0.2350
 3569SOL     OW11614   3.222   0.801   2.187 -0.7435 -0.1879 -0.0601
 3569SOL    HW111615   3.192   0.872   2.132 -1.6727 -0.9380 -0.5415
 3569SOL    HW211616   3.232   0.841   2.274 -0.9871  0.5840 -0.3778
 3570SOL     OW11617   4.376   5.368   0.000  0.0716 -0.3890 -0.1447
 3570SOL    HW111618   4.445   5.317  -0.043 -1.4009 -1.4418 -1.3732
 3570SOL    HW211619   4.370   5.330   0.088  0.6254 -0.6899 -0.2280
 3571SOL     OW11620   0.457   4.229   2.846  0.6188 -0.0269 -0.0073
 3571SOL    HW111621   0.443   4.313   2.803 -0.2611  0.2724  0.8330
 3571SOL    HW211622   0.372   4.186   2.843  0.5294  0.0026  1.4106
 3572SOL     OW11623   0.530   4.916   0.254  0.2757 -0.4770 -0.0113
 3572SOL    HW111624   0.556   4.915   0.346  0.4285 -1.6184 -0.0450
 3572SOL    HW211625   0.436   4.930   0.256  0.2357 -0.7644  0.3431
 3573SOL     OW11626   0.655   0.732   5.344 -0.0858  0.3261 -0.3865
 3573SOL    HW111627   0.628   0.735   5.252 -0.0906 -0.9551 -0.4519
 3573SOL    HW211628   0.745   0.765   5.344  0.4279 -0.9803 -1.1016
 3574SOL     OW11629   2.624   2.060   1.678  0.0934  1.2620 -0.1776
 3574SOL    HW111630   2.693   2.024   1.735 -0.5253  0.2038 -0.0647
 3574SOL    HW211631   2.659   2.051   1.589 -0.1783  0.0271 -0.1785
 3575SOL     OW11632   2.178   0.974   0.851 -0.1472 -0.6888 -0.2847
 3575SOL    HW111633   2.254   0.987   0.795 -0.0604  1.2490  0.2149
 3575SOL    HW211634   2.215   0.947   0.935  0.0499  0.4064  0.0058
 3576SOL     OW11635   4.068   7.236   1.622  0.1076 -0.0769  0.0562
 3576SOL    HW111636   4.153   7.243   1.578 -0.1475  0.8366 -0.3172
 3576SOL    HW211637   4.057   7.321   1.665 -1.2167  0.3402 -1.0219
 3577SOL     OW11638   3.792   3.537   4.844  0.0607 -0.5202 -0.2487
 3577SOL    HW111639   3.812   3.605   4.907 -1.3980 -0.9496  0.7273
 3577SOL    HW211640   3.743   3.583   4.775 -0.0116 -0.3875 -0.1109
 3578SOL     OW11641   5.008   5.187   1.226 -0.8792 -0.1521  0.4238
 3578SOL    HW111642   5.087   5.226   1.265 -1.7079  0.0968  1.9198
 3578SOL    HW211643   5.037   5.155   1.141  0.6141  0.7922  0.5380
 3579SOL     OW11644   5.823   1.034   5.139 -0.3341  0.1052  0.5554
 3579SOL    HW111645   5.836   0.956   5.085 -0.2976  1.1288 -0.9941
 3579SOL    HW211646   5.910   1.070   5.151 -0.5820  1.3758 -1.1019
 3580SOL     OW11647   7.007   6.814   6.847  0.0430 -0.3766 -0.2876
 3580SOL    HW111648   6.949   6.829   6.922 -0.0057 -0.0492 -0.3927
 3580SOL    HW211649   7.082   6.768   6.885 -1.1957 -2.7282 -0.4652
 3581SOL     OW11650   0.371   7.492   0.735 -0.0434 -0.2818 -0.5618
 3581SOL    HW111651   0.317   7.421   0.701 -0.5469 -0.4821  0.6132
 3581SOL    HW211652   0.313   7.569   0.734 -0.7215 -0.7116  1.6406
 3582SOL     OW11653   1.275   0.903   0.200  0.2328  0.5152 -0.3142
 3582SOL    HW111654   1.204   0.960   0.170 -1.1297 -1.0541 -0.2160
 3582SOL    HW211655   1.282   0.836   0.132 -0.0776 -0.7410  0.8494
 3583SOL     OW11656   6.654   4.731   4.410  0.3353  0.6206  0.0909
 3583SOL    HW111657   6.578   4.765   4.457  0.6931  0.5801  0.6995
 3583SOL    HW211658   6.643   4.636   4.412  1.2613  0.5233  1.6541
 3584SOL     OW11659   7.153   4.419   3.841 -0.0132 -0.4671 -0.0203
 3584SOL    HW111660   7.189   4.423   3.752 -0.7367 -0.4959 -0.3151
 3584SOL    HW211661   7.211   4.357   3.887  0.6299 -0.1127 -0.3364
 3585SOL     OW11662   1.750   0.694   2.650  0.0340  0.2427 -0.4314
 3585SOL    HW111663   1.694   0.708   2.727  1.0644 -1.2589  0.6465
 3585SOL    HW211664   1.707   0.625   2.600  0.8289 -0.8853  0.3780
 3586SOL     OW11665   5.977   0.489   2.289 -0.1347 -0.3796 -0.0741
 3586SOL    HW111666   5.936   0.564   2.333 -0.2397  0.4749 -1.5671
 3586SOL    HW211667   6.011   0.525   2.207  0.9293 -1.7204 -0.2534
 3587SOL     OW11668   7.628   1.147   6.590 -0.0968 -0.5591  0.1030
 3587SOL    HW111669   7.724   1.146   6.585 -0.1054 -0.0017 -0.2443
 3587SOL    HW211670   7.608   1.195   6.670 -0.0878 -0.6725  0.1737
 3588SOL     OW11671   4.010   6.415   2.191 -0.0286  0.2869  0.5679
 3588SOL    HW111672   3.952   6.484   2.223 -0.5340 -0.6081  1.6273
 3588SOL    HW211673   4.048   6.376   2.270 -0.3128 -1.1248  0.0457
 3589SOL     OW11674   4.571   4.199   6.318  0.4857 -0.5445 -0.6500
 3589SOL    HW111675   4.595   4.157   6.401  1.1048  0.0059 -0.5416
 3589SOL    HW211676   4.614   4.145   6.251 -0.7515 -1.5245 -0.7010
 3590SOL     OW11677   7.330   1.149   0.736 -0.3466  0.0233  0.1680
 3590SOL    HW111678   7.423   1.127   0.740 -0.9836 -2.8997  1.8658
 3590SOL    HW211679   7.304   1.162   0.827 -1.9395 -1.0894 -0.0873
 3591SOL     OW11680   6.517   5.003   2.067  0.4439 -0.7080  0.5892
 3591SOL    HW111681   6.497   5.020   2.159  0.3940 -1.4610  0.7287
 3591SOL    HW211682   6.437   4.963   2.033  0.5495 -0.6593  0.2825
 3592SOL     OW11683   4.884   2.375   3.471  0.5167 -0.1796  0.4466
 3592SOL    HW111684   4.823   2.306   3.443  1.0003 -0.3393 -0.2604
 3592SOL    HW211685   4.872   2.445   3.407  1.2699 -0.3315  0.1202
 3593SOL     OW11686   1.396   7.241   0.385 -1.2501 -0.2625  0.1331
 3593SOL    HW111687   1.416   7.209   0.473 -2.0392 -2.1596 -0.3159
 3593SOL    HW211688   1.300   7.234   0.379 -1.1456 -0.8426 -1.1104
 3594SOL     OW11689   5.748   5.121   4.876 -0.1314 -0.1604  0.0657
 3594SOL    HW111690   5.664   5.155   4.847 -0.6082 -0.7696  0.7064
 3594SOL    HW211691   5.811   5.187   4.849 -1.2054  2.3470  3.0303
 3595SOL     OW11692   0.572   6.621   2.444 -0.2650 -0.1429 -0.5150
 3595SOL    HW111693   0.665   6.637   2.461  0.0919 -2.1935 -0.2824
 3595SOL    HW211694   0.570   6.543   2.389 -1.8424  0.2234 -1.0475
 3596SOL     OW11695   7.551   3.780   2.228  0.2254 -0.4538 -0.1442
 3596SOL    HW111696   7.531   3.722   2.302  1.9661  0.4379  1.0859
 3596SOL    HW211697   7.607   3.728   2.171  0.0503 -0.6631 -0.1298
 3597SOL     OW11698   4.082   2.381   7.062 -0.2304  0.3793  0.5736
 3597SOL    HW111699   4.144   2.330   7.010  0.6143  0.6996  1.2382
 3597SOL    HW211700   3.996   2.353   7.031  0.2346  0.9178 -1.3339
 3598SOL     OW11701   5.821   5.710   3.490  0.1873  0.8035 -0.3386
 3598SOL    HW111702   5.789   5.632   3.445 -0.1029  1.0676 -0.6054
 3598SOL    HW211703   5.830   5.684   3.581  2.2682 -0.1879 -0.7707
 3599SOL     OW11704   6.691   6.841   6.747 -0.3366 -0.7663  0.6523
 3599SOL    HW111705   6.641   6.830   6.828  0.5570  0.3859  1.3988
 3599SOL    HW211706   6.765   6.782   6.757  0.7402  0.6611  1.5310
 3600SOL     OW11707   1.860   5.684   1.650 -0.4492 -0.7501 -0.1285
 3600SOL    HW111708   1.943   5.687   1.601 -0.2877  0.8361  0.2033
 3600SOL    HW211709   1.884   5.647   1.735 -0.0919 -0.4324 -0.0849
 3601SOL     OW11710   2.210   6.554   1.272 -0.3948  0.1666  0.2173
 3601SOL    HW111711   2.264   6.476   1.266 -1.0879 -0.2532 -1.1725
 3601SOL    HW211712   2.143   6.533   1.336 -1.1476 -0.7776 -0.8440
 3602SOL     OW11713   5.970   6.550   0.245 -0.2554  0.0360  0.1517
 3602SOL    HW111714   6.041   6.557   0.309 -1.0000 -0.0820  1.0049
 3602SOL    HW211715   5.891   6.536   0.298 -0.8187 -0.5312 -0.8205
 3603SOL     OW11716   2.751   6.037   1.691  0.2416  0.0867 -0.0675
 3603SOL    HW111717   2.730   6.003   1.605  2.1106 -1.7493  0.1025
 3603SOL    HW211718   2.667   6.055   1.732 -0.7149 -0.5111 -1.6962
 3604SOL     OW11719   0.346   5.306   0.329  0.1102 -0.2031  0.3176
 3604SOL    HW111720   0.311   5.365   0.262 -0.3710 -1.3491 -0.4845
 3604SOL    HW211721   0.437   5.292   0.302  0.3327  0.4623  0.7209
 3605SOL     OW11722   3.858   7.670   3.595 -0.7970 -0.0124  0.0660
 3605SOL    HW111723   3.778   7.669   3.543 -1.0428 -0.3702  0.4509
 3605SOL    HW211724   3.834   7.717   3.675 -0.2640  1.0687 -0.3778
 3606SOL     OW11725   0.591   6.286   5.696 -0.6358 -0.7945  0.0991
 3606SOL    HW111726   0.606   6.348   5.624  0.4487  1.4678  2.1126
 3606SOL    HW211727   0.495   6.279   5.702 -0.7675 -2.3606 -2.5147
 3607SOL     OW11728   3.397   5.718   2.426  0.5211  0.2689  0.0703
 3607SOL    HW111729   3.403   5.779   2.353  0.6300 -0.4635 -0.5423
 3607SOL    HW211730   3.422   5.633   2.389  1.2889  0.0153  1.1259
 3608SOL     OW11731   5.702   5.328   2.631 -0.0139 -0.3485 -0.4784
 3608SOL    HW111732   5.608   5.312   2.623 -0.1916  0.0826  0.5979
 3608SOL    HW211733   5.709   5.423   2.637  0.4381 -0.4100  0.0307
 3609SOL     OW11734   5.507   6.018   0.471  0.7239  0.0799  0.6216
 3609SOL    HW111735   5.517   5.935   0.518 -0.0352 -0.3970 -0.0258
 3609SOL    HW211736   5.497   5.993   0.379  0.2514  0.8756  0.4452
 3610SOL     OW11737   3.953   4.107   3.656  0.2722  0.0758 -0.0077
 3610SOL    HW111738   3.977   4.047   3.726  1.6511 -0.1040 -0.5929
 3610SOL    HW211739   3.918   4.051   3.586  2.9281 -0.3294 -1.1527
 3611SOL     OW11740   0.815   6.842   5.502  0.6530  0.3022  0.2653
 3611SOL    HW111741   0.810   6.747   5.491  1.4340  0.5130 -2.7628
 3611SOL    HW211742   0.896   6.856   5.551  2.1655 -0.5595 -1.8243
 3612SOL     OW11743   1.674   0.954   6.762  0.0724  0.4132 -0.1548
 3612SOL    HW111744   1.645   1.034   6.719 -0.7543  0.6656  0.8313
 3612SOL    HW211745   1.612   0.887   6.731  1.3158 -0.0869 -1.7080
 3613SOL     OW11746   4.840   3.590   4.076 -0.1089 -0.5472  0.2463
 3613SOL    HW111747   4.835   3.678   4.038  0.9008 -0.5773  0.0177
 3613SOL    HW211748   4.811   3.531   4.007  0.7655 -0.5185 -0.1560
 3614SOL     OW11749   2.998   3.125   1.423  0.4264 -0.3280  0.4136
 3614SOL    HW111750   3.058   3.139   1.350  0.1842  1.2415  0.4855
 3614SOL    HW211751   2.999   3.030   1.437  0.9872 -0.5885 -1.1803
 3615SOL     OW11752   4.591   2.919   6.801 -0.5447  0.0870 -0.1408
 3615SOL    HW111753   4.508   2.916   6.850  0.2163  0.5693  1.2475
 3615SOL    HW211754   4.628   2.832   6.813 -0.3641  0.2013  0.1390
 3616SOL     OW11755   3.293   6.097   0.741 -0.0871  0.3153  0.1951
 3616SOL    HW111756   3.368   6.137   0.697  1.0284 -0.1993  1.5445
 3616SOL    HW211757   3.217   6.138   0.700  0.9205  0.9786 -1.1039
 3617SOL     OW11758   6.475   0.420   4.953 -0.0526  0.2088 -0.0643
 3617SOL    HW111759   6.485   0.422   5.048 -1.4605 -0.1669  0.1091
 3617SOL    HW211760   6.564   0.431   4.920  0.2535  2.3780  1.2576
 3618SOL     OW11761   4.355   6.843   3.927 -0.0027  0.2829  1.0254
 3618SOL    HW111762   4.389   6.927   3.898 -0.7495  0.3656  0.3426
 3618SOL    HW211763   4.289   6.865   3.993 -0.7771  0.2895  0.2628
 3619SOL     OW11764   7.410   0.201   2.101 -0.5011  0.4142  0.3523
 3619SOL    HW111765   7.394   0.277   2.044  0.0436  0.2679 -0.0021
 3619SOL    HW211766   7.435   0.131   2.041  2.0048  0.7641  0.8836
 3620SOL     OW11767   5.558   4.264   1.605  0.2086  0.2949 -0.3151
 3620SOL    HW111768   5.601   4.302   1.529  0.4052  0.6111 -0.0482
 3620SOL    HW211769   5.628   4.256   1.670  0.1591 -0.4708 -0.3474
 3621SOL     OW11770   5.559   6.703   6.108  0.0215  0.5450  0.1039
 3621SOL    HW111771   5.589   6.637   6.046  0.0320  1.5523 -0.9928
 3621SOL    HW211772   5.630   6.709   6.172  0.1290 -0.3209  0.0770
 3622SOL     OW11773   2.091   3.762   5.592  0.3703 -0.0818  0.1706
 3622SOL    HW111774   2.112   3.843   5.545 -0.1604 -0.2365 -0.3489
 3622SOL    HW211775   2.142   3.767   5.673 -0.5736  1.3305  0.7088
 3623SOL     OW11776   4.975   3.134   3.294 -0.1815 -0.2074  0.3833
 3623SOL    HW111777   4.996   3.219   3.333 -0.2016 -0.2592  0.5057
 3623SOL    HW211778   4.967   3.074   3.368 -1.7026  0.0022  0.4220
 3624SOL     OW11779   3.556   5.275   6.765 -0.1605  0.5335 -0.0975
 3624SOL    HW111780   3.650   5.290   6.765 -0.0603  0.1568  1.7539
 3624SOL    HW211781   3.518   5.361   6.782 -0.1029  0.5177  0.1102
 3625SOL     OW11782   4.108   1.760   6.252  0.6487  0.3713  0.2972
 3625SOL    HW111783   4.031   1.767   6.196 -1.0785 -1.8474  2.2050
 3625SOL    HW211784   4.152   1.680   6.223  0.8821  0.3139  0.7969
 3626SOL     OW11785   0.346   4.733   0.655 -0.1698  0.0291  0.3639
 3626SOL    HW111786   0.289   4.701   0.726 -1.1143 -0.0388 -0.4051
 3626SOL    HW211787   0.289   4.788   0.601 -0.0844 -1.6168 -1.5420
 3627SOL     OW11788   1.444   1.763   6.327  0.1130  0.6923 -0.3843
 3627SOL    HW111789   1.404   1.776   6.241  3.3143 -0.1030 -2.1687
 3627SOL    HW211790   1.424   1.672   6.349  0.3265  0.5246 -0.8815
 3628SOL     OW11791   3.213   0.107   5.600  0.5036  0.1406 -0.5572
 3628SOL    HW111792   3.303   0.136   5.583  0.0650  1.3237 -0.9452
 3628SOL    HW211793   3.223   0.037   5.665  1.5895  1.6595  1.0200
 3629SOL     OW11794   0.332   6.339   2.172  0.0067 -0.4815 -0.3311
 3629SOL    HW111795   0.387   6.389   2.112  0.2702  0.4454  0.6474
 3629SOL    HW211796   0.242   6.355   2.142  0.1825 -1.0628 -1.2248
 3630SOL     OW11797   1.532   6.548   4.506  0.2058 -0.4350  0.1722
 3630SOL    HW111798   1.559   6.518   4.419  1.1956 -1.1280  0.6999
 3630SOL    HW211799   1.546   6.643   4.504  1.1181 -0.5720 -0.1116
 3631SOL     OW11800   2.103   6.642   2.332  0.1075  0.3285  0.0738
 3631SOL    HW111801   2.049   6.585   2.278  1.9573 -3.1762  1.5893
 3631SOL    HW211802   2.157   6.690   2.270 -0.2087 -0.9980 -1.2799
 3632SOL     OW11803   2.394   3.365   1.974  0.2632  0.1328 -0.1135
 3632SOL    HW111804   2.474   3.315   1.988  0.9115  1.3819  0.8563
 3632SOL    HW211805   2.326   3.299   1.963  0.8995 -1.0062  2.2197
 3633SOL     OW11806   5.538   4.373   2.928  0.3400 -0.6658  1.1660
 3633SOL    HW111807   5.476   4.312   2.968  1.0118 -1.3276  1.2261
 3633SOL    HW211808   5.582   4.415   3.002 -1.5398  1.4610  1.1883
 3634SOL     OW11809   6.754   3.473   6.177  0.4353  0.2178 -0.0914
 3634SOL    HW111810   6.820   3.445   6.240  1.4199  2.0357 -0.2530
 3634SOL    HW211811   6.725   3.559   6.210 -1.3013 -0.2124 -0.4406
 3635SOL     OW11812   0.606   2.126   7.516 -0.2721  0.6238  0.3934
 3635SOL    HW111813   0.607   2.124   7.612  1.2486  0.0120  0.4045
 3635SOL    HW211814   0.521   2.163   7.493 -0.5807  0.9724  1.9801
 3636SOL     OW11815   2.528   5.810   5.145  0.4875 -0.0622  0.5557
 3636SOL    HW111816   2.546   5.716   5.143  1.2231  0.0703  0.6585
 3636SOL    HW211817   2.492   5.825   5.233  1.0057 -0.1434  0.7865
 3637SOL     OW11818   4.600   1.411   3.739  0.2240  0.7065  0.6337
 3637SOL    HW111819   4.663   1.482   3.728  0.1052  0.7479  0.1804
 3637SOL    HW211820   4.633   1.359   3.811 -0.2981  1.8934  1.7677
 3638SOL     OW11821   5.579   6.942   3.870  0.4005 -0.0253 -0.7674
 3638SOL    HW111822   5.587   6.948   3.965  0.8262 -0.0719 -0.8024
 3638SOL    HW211823   5.663   6.910   3.840 -0.3205 -1.8281 -1.0005
 3639SOL     OW11824   3.129   6.344   3.177  0.1259  0.0078 -0.3411
 3639SOL    HW111825   3.085   6.261   3.194  1.2399 -0.6531 -0.6062
 3639SOL    HW211826   3.215   6.320   3.145  0.3580  1.2752 -0.7345
 3640SOL     OW11827   4.506   1.465   5.653  0.4031 -0.1175  0.0801
 3640SOL    HW111828   4.599   1.442   5.648  0.6729  0.9116 -0.0582
 3640SOL    HW211829   4.506   1.549   5.700 -0.6771 -1.3532  2.4010
 3641SOL     OW11830   5.836   5.751   4.311 -0.3617  0.2424  0.1634
 3641SOL    HW111831   5.865   5.810   4.241 -1.1215  1.1058  0.5500
 3641SOL    HW211832   5.915   5.733   4.362 -0.0745  0.7496 -0.0967
 3642SOL     OW11833   2.422   3.247   7.039  0.1594 -0.2164 -0.0377
 3642SOL    HW111834   2.439   3.314   6.973 -2.6124  0.8418  0.1815
 3642SOL    HW211835   2.379   3.177   6.992 -1.2614  0.2701  0.4926
 3643SOL     OW11836   1.339   4.362   4.088  0.6790 -0.4938  0.1956
 3643SOL    HW111837   1.284   4.419   4.142  1.2849  1.1720 -0.8563
 3643SOL    HW211838   1.394   4.315   4.151  0.6282  0.6006  1.0858
 3644SOL     OW11839   3.769   7.660   1.936  0.4994 -0.5909  0.3391
 3644SOL    HW111840   3.842   7.638   1.995  1.0262  0.1579 -0.0234
 3644SOL    HW211841   3.804   7.727   1.878 -0.6695  0.2339  0.5520
 3645SOL     OW11842   1.540   6.821   4.533 -0.2571  0.3841  0.2393
 3645SOL    HW111843   1.454   6.840   4.571 -0.0304  1.0022  0.4618
 3645SOL    HW211844   1.536   6.858   4.445 -0.0479  0.8659  0.4303
 3646SOL     OW11845   3.705   4.003   6.048  0.0816  0.0802 -0.0396
 3646SOL    HW111846   3.720   3.951   5.969  0.4298  1.7805 -1.1541
 3646SOL    HW211847   3.756   3.959   6.116 -0.2736 -1.4592 -0.7184
 3647SOL     OW11848   2.334   6.676   6.358  0.5107 -0.2630 -0.4444
 3647SOL    HW111849   2.267   6.707   6.297  0.5850  0.4470 -0.1681
 3647SOL    HW211850   2.325   6.732   6.434  2.4727  0.9386 -1.0359
 3648SOL     OW11851   2.317   0.359   6.141  0.3511 -0.2000 -0.0542
 3648SOL    HW111852   2.335   0.407   6.060  0.4984  0.4727  0.3676
 3648SOL    HW211853   2.372   0.402   6.206 -2.0306  1.3187  1.1005
 3649SOL     OW11854   1.999   0.983   4.748 -0.4012 -0.5473  0.5626
 3649SOL    HW111855   1.970   1.039   4.675  0.3216 -1.1277 -0.1899
 3649SOL    HW211856   1.934   0.998   4.817 -1.4402 -0.4177 -0.4108
 3650SOL     OW11857   1.439   6.118   5.070 -0.9008 -0.0605 -0.1479
 3650SOL    HW111858   1.473   6.066   5.143 -0.8522 -0.1432 -0.2280
 3650SOL    HW211859   1.360   6.159   5.104 -0.6126  0.2896  0.1005
 3651SOL     OW11860   5.762   0.184   6.179  0.1486  0.7223  0.9682
 3651SOL    HW111861   5.785   0.242   6.252 -1.4444  2.8749 -0.1209
 3651SOL    HW211862   5.841   0.180   6.125  0.5599  1.1555  1.5274
 3652SOL     OW11863   5.996   5.949   2.938  0.2959  0.2526 -0.1673
 3652SOL    HW111864   6.041   5.934   2.855 -0.7607 -3.3140 -0.2850
 3652SOL    HW211865   6.064   5.938   3.005  0.4180 -1.1135 -0.4796
 3653SOL     OW11866   4.866   6.008   1.972 -0.6114  0.1372 -0.3833
 3653SOL    HW111867   4.792   6.068   1.984  0.3095  1.4478 -0.9203
 3653SOL    HW211868   4.942   6.066   1.966  0.1639 -1.0058 -2.3539
 3654SOL     OW11869   0.247   2.450   3.206 -0.0673 -0.1751  0.2650
 3654SOL    HW111870   0.319   2.472   3.265  2.7999 -1.6766 -2.4010
 3654SOL    HW211871   0.232   2.357   3.219 -0.3762 -0.2213 -0.3686
 3655SOL     OW11872   0.048   3.337   4.465  0.3839  0.0426  0.0366
 3655SOL    HW111873   0.093   3.418   4.490  1.4260 -0.1364 -1.1694
 3655SOL    HW211874  -0.042   3.363   4.451  0.9498  1.2778 -1.5739
 3656SOL     OW11875   7.441   4.140   5.115  0.2660 -0.1966 -0.1800
 3656SOL    HW111876   7.531   4.109   5.104  0.0118 -0.9487 -0.2147
 3656SOL    HW211877   7.450   4.233   5.134  1.0924 -0.4309  0.6387
 3657SOL     OW11878   1.316   0.731   4.957  0.2502 -0.2891 -0.6301
 3657SOL    HW111879   1.395   0.784   4.954  0.5064 -0.6947 -1.1056
 3657SOL    HW211880   1.345   0.644   4.981  0.2471 -0.9499 -2.7748
 3658SOL     OW11881   5.910   2.828   5.030  0.6147 -0.4405 -0.5041
 3658SOL    HW111882   5.827   2.826   4.982  0.8166  1.2305 -1.0056
 3658SOL    HW211883   5.944   2.739   5.024 -1.2813 -1.2686 -0.0003
 3659SOL     OW11884   5.747   6.190   4.167 -0.1626 -0.1775 -0.4506
 3659SOL    HW111885   5.669   6.234   4.133 -0.1027  1.4428  1.2974
 3659SOL    HW211886   5.747   6.210   4.261  1.5928 -1.3340 -0.1479
 3660SOL     OW11887   5.993   5.993   0.271 -0.1427  0.1978 -0.2177
 3660SOL    HW111888   6.087   6.007   0.265 -0.0752 -0.7572 -2.2656
 3660SOL    HW211889   5.954   6.061   0.216 -0.3958 -1.2761 -1.9763
 3661SOL     OW11890   7.365   5.369   1.938 -0.3841 -0.6238 -0.7673
 3661SOL    HW111891   7.427   5.414   1.881  0.5612 -2.9797 -1.7337
 3661SOL    HW211892   7.281   5.378   1.893  0.1018 -1.2276 -1.8533
 3662SOL     OW11893   2.906   0.095   2.350 -0.0696 -0.2533  0.2611
 3662SOL    HW111894   2.829   0.067   2.300  0.7073 -1.6097 -0.2356
 3662SOL    HW211895   2.949   0.159   2.293 -1.1538  1.0568  0.8374
 3663SOL     OW11896   2.125   0.102   3.590  0.4008  0.1881  0.1595
 3663SOL    HW111897   2.059   0.042   3.555 -0.0216 -0.2691  1.6709
 3663SOL    HW211898   2.089   0.189   3.572 -0.7784 -0.0505  1.1770
 3664SOL     OW11899   0.971   3.648   0.258  0.0901  0.2070  0.3757
 3664SOL    HW111900   0.983   3.721   0.319 -0.9709  0.9464 -0.2845
 3664SOL    HW211901   0.958   3.689   0.173  0.0500 -0.7748 -0.1036
 3665SOL     OW11902   1.452   0.213   4.811  0.2193  0.3308  0.1892
 3665SOL    HW111903   1.394   0.287   4.791  1.0545  0.1101 -3.9727
 3665SOL    HW211904   1.402   0.136   4.787  1.3619  0.0172 -1.3723
 3666SOL     OW11905   6.297   4.581   2.769 -0.6837 -0.0428  0.2481
 3666SOL    HW111906   6.287   4.564   2.863 -2.7870 -0.5803 -0.0364
 3666SOL    HW211907   6.283   4.496   2.728  2.5972 -0.3574 -0.5154
 3667SOL     OW11908   6.061   5.722   4.460  0.2548 -0.3674 -0.0575
 3667SOL    HW111909   6.140   5.771   4.436  0.9005 -1.5138 -0.3722
 3667SOL    HW211910   6.093   5.633   4.475 -1.2376 -1.3281 -2.0985
 3668SOL     OW11911   3.985   1.992   1.885  0.0347 -0.7628 -0.0812
 3668SOL    HW111912   4.040   2.009   1.961 -1.6898 -0.5501  1.1773
 3668SOL    HW211913   3.969   1.898   1.887  2.2901 -1.2966 -1.9060
 3669SOL     OW11914   6.666   5.510   1.229  0.2722 -0.6488  0.5817
 3669SOL    HW111915   6.671   5.432   1.285 -0.0628 -0.9651  0.1824
 3669SOL    HW211916   6.708   5.483   1.147  1.6755  0.1301  1.0217
 3670SOL     OW11917   4.186   0.227   0.117  0.1017  0.1605  0.2241
 3670SOL    HW111918   4.254   0.258   0.177 -0.7629  1.5153  0.5418
 3670SOL    HW211919   4.203   0.273   0.035 -0.0194 -0.0333  0.0874
 3671SOL     OW11920   4.812   4.277   6.764 -0.8119 -0.7200  0.1176
 3671SOL    HW111921   4.801   4.371   6.781  0.6855 -0.5710  0.4562
 3671SOL    HW211922   4.817   4.237   6.851  0.7735 -0.7852  0.0335
 3672SOL     OW11923   6.992   0.561   0.781  0.1349 -0.0701 -0.3060
 3672SOL    HW111924   6.928   0.601   0.840  0.3919  0.1596 -0.1787
 3672SOL    HW211925   6.943   0.496   0.732 -0.4508  0.8903 -1.0261
 3673SOL     OW11926   2.212   0.323   7.044  0.1282 -0.0175 -0.1780
 3673SOL    HW111927   2.133   0.285   7.083  0.2914  0.0752  0.2478
 3673SOL    HW211928   2.269   0.341   7.119 -0.1054  1.4438 -0.3249
 3674SOL     OW11929   4.042   6.299   5.175 -0.4087 -0.7139 -0.2028
 3674SOL    HW111930   4.038   6.358   5.100  0.2122 -1.2162 -0.6376
 3674SOL    HW211931   4.104   6.230   5.149 -0.1456 -0.8686  0.7765
 3675SOL     OW11932   1.341   6.789   4.044 -0.2241  0.1885 -0.0980
 3675SOL    HW111933   1.386   6.851   3.986 -2.5248  1.0350 -1.0938
 3675SOL    HW211934   1.347   6.705   3.998  1.0149  0.1077  0.1865
 3676SOL     OW11935   1.758   6.817   3.380  0.0008  0.4039 -0.1855
 3676SOL    HW111936   1.732   6.897   3.337  0.5020  0.6546 -0.0367
 3676SOL    HW211937   1.788   6.760   3.309 -0.5137  0.2833 -0.3078
 3677SOL     OW11938   0.947   1.545   2.029  0.0046 -0.1934  0.0562
 3677SOL    HW111939   1.002   1.474   2.064  0.8502  1.2916  1.9877
 3677SOL    HW211940   0.993   1.574   1.950  0.8273 -0.4009  0.4458
 3678SOL     OW11941   6.823   0.960   4.819  0.0987  0.4512 -0.6543
 3678SOL    HW111942   6.835   0.963   4.914  1.8631  1.4137 -0.8531
 3678SOL    HW211943   6.730   0.944   4.807 -0.5286  2.1632  1.2494
 3679SOL     OW11944   2.902   1.653   6.584 -0.2089 -0.2839  0.1483
 3679SOL    HW111945   2.985   1.665   6.537  0.9164 -0.1973  2.0828
 3679SOL    HW211946   2.882   1.560   6.576 -0.9089 -0.0152 -1.8306
 3680SOL     OW11947   4.781   3.461   5.042  0.3893 -0.2971 -0.1116
 3680SOL    HW111948   4.725   3.414   4.981  0.1466  0.1916 -0.2722
 3680SOL    HW211949   4.812   3.537   4.993 -0.3190  0.4457  0.5529
 3681SOL     OW11950   7.490   5.864   5.078  0.3423  0.0917 -0.4555
 3681SOL    HW111951   7.441   5.942   5.052  0.0334 -0.2224 -0.8246
 3681SOL    HW211952   7.471   5.853   5.171  0.2310  0.3373 -0.4477
 3682SOL     OW11953   1.545   5.477   6.376  0.3638 -0.0688  0.5095
 3682SOL    HW111954   1.595   5.554   6.402 -0.3196  0.4854  0.1866
 3682SOL    HW211955   1.503   5.447   6.456  0.1258  0.2682  0.5115
 3683SOL     OW11956   7.219   4.546   6.180  0.1022  0.1810  0.0151
 3683SOL    HW111957   7.255   4.635   6.180  0.5878  0.0958 -2.8896
 3683SOL    HW211958   7.288   4.492   6.219  0.6858  0.8021 -0.1421
 3684SOL     OW11959   2.698   4.603   4.950  0.2277 -0.0229  0.3782
 3684SOL    HW111960   2.612   4.562   4.934 -1.5081  2.7264  1.8572
 3684SOL    HW211961   2.736   4.613   4.862 -0.3818 -2.3419 -0.2173
 3685SOL     OW11962   0.564   0.113   4.302 -0.1691 -0.2105 -0.4042
 3685SOL    HW111963   0.620   0.188   4.286  0.2906 -0.5935 -0.6391
 3685SOL    HW211964   0.625   0.039   4.308 -0.5814 -0.5015  0.2280
 3686SOL     OW11965   7.684   5.411   0.421  0.3752  0.1760  0.0943
 3686SOL    HW111966   7.598   5.451   0.436  0.8315  0.9777  0.6721
 3686SOL    HW211967   7.696   5.352   0.495  0.4939  0.3673  0.2273
 3687SOL     OW11968   7.073   0.680   2.667 -0.0765  0.5152  0.0679
 3687SOL    HW111969   7.163   0.656   2.644  0.3560  2.1789 -0.0892
 3687SOL    HW211970   7.077   0.702   2.760 -0.3197  0.6034  0.0575
 3688SOL     OW11971   4.294   1.018   3.410  0.5818  0.5727  0.0058
 3688SOL    HW111972   4.235   0.958   3.365 -0.2769  0.6971  0.9393
 3688SOL    HW211973   4.305   1.090   3.348 -1.6424  1.3798  0.4528
 3689SOL     OW11974   5.860   6.874   6.408  0.7673 -0.2481  0.3136
 3689SOL    HW111975   5.829   6.959   6.377  3.4218  0.6961  0.0424
 3689SOL    HW211976   5.855   6.881   6.504  0.9133  0.1782  0.2928
 3690SOL     OW11977   4.436   2.065   5.987 -0.2083  0.4783  0.3007
 3690SOL    HW111978   4.340   2.067   5.984 -0.2065 -0.2016 -0.5396
 3690SOL    HW211979   4.456   2.008   6.061 -0.4277  1.2323  0.9690
 3691SOL     OW11980   5.997   2.369   1.435 -0.4604 -0.0407 -0.0535
 3691SOL    HW111981   6.033   2.281   1.437 -0.1564  0.0146 -1.7651
 3691SOL    HW211982   6.034   2.408   1.355  1.2654  2.4222  1.7959
 3692SOL     OW11983   0.671   4.474   5.750  0.2108 -0.7177 -0.0315
 3692SOL    HW111984   0.743   4.501   5.694 -0.3607  0.9915 -0.0163
 3692SOL    HW211985   0.710   4.413   5.813  1.7422  0.4983  0.2483
 3693SOL     OW11986   7.094   3.043   6.066  0.2092 -0.6077 -0.0868
 3693SOL    HW111987   7.136   2.963   6.034  0.7034 -0.3792 -0.0180
 3693SOL    HW211988   7.166   3.104   6.081  0.0225 -0.7273  1.5027
 3694SOL     OW11989   4.763   3.998   2.841 -0.0947  0.6971 -0.1876
 3694SOL    HW111990   4.780   3.983   2.934 -0.3854 -1.2595 -0.4086
 3694SOL    HW211991   4.806   3.925   2.796 -0.5743  1.2039 -1.5435
 3695SOL     OW11992   0.656   6.208   7.078  0.1831  0.5404 -0.2462
 3695SOL    HW111993   0.733   6.164   7.041  0.7417  1.7139 -0.5599
 3695SOL    HW211994   0.638   6.161   7.159  0.3505 -0.6508 -0.8831
 3696SOL     OW11995   5.965   7.430   1.026  0.2193  0.5038 -0.0649
 3696SOL    HW111996   5.959   7.525   1.031  1.3428  0.5321  1.8507
 3696SOL    HW211997   6.029   7.407   1.093 -1.2414 -1.7297  0.6670
 3697SOL     OW11998   0.015   5.677   2.678 -0.4486  0.4784  0.3973
 3697SOL    HW111999  -0.071   5.670   2.720  0.8099  0.1399  3.1322
 3697SOL    HW212000   0.058   5.750   2.723  1.1404 -0.1254 -0.0724
 3698SOL     OW12001   4.316   3.309   1.991  0.9785 -0.1534  0.4425
 3698SOL    HW112002   4.315   3.400   1.961  1.2395 -0.3263 -0.1051
 3698SOL    HW212003   4.241   3.268   1.949  1.0296 -0.2666  0.4605
 3699SOL     OW12004   4.972   3.852   2.145  0.0549 -0.3807  0.5850
 3699SOL    HW112005   5.067   3.849   2.157  0.0416 -0.0340  0.7817
 3699SOL    HW212006   4.960   3.872   2.053  0.1757  0.4175  0.7397
 3700SOL     OW12007   6.173   0.734   6.063 -0.1960 -0.2265 -0.4249
 3700SOL    HW112008   6.093   0.765   6.107 -0.4222  0.7293 -1.4453
 3700SOL    HW212009   6.230   0.706   6.134 -1.6026 -1.3611  0.3196
 3701SOL     OW12010   2.915   6.730   3.834  0.1994  0.1278  0.0402
 3701SOL    HW112011   2.963   6.813   3.836  1.0272 -0.3435  0.2752
 3701SOL    HW212012   2.955   6.681   3.762 -0.6817  0.1531 -0.4829
 3702SOL     OW12013   6.732   2.196   2.871  0.1552  0.1200  0.0330
 3702SOL    HW112014   6.715   2.250   2.794 -1.6195 -0.7260 -0.2039
 3702SOL    HW212015   6.809   2.145   2.847 -0.6385 -0.4600 -1.3710
 3703SOL     OW12016   6.931   6.624   0.202  0.0772  0.0165 -0.3609
 3703SOL    HW112017   6.974   6.580   0.129 -0.4150 -1.1868  0.0554
 3703SOL    HW212018   7.003   6.657   0.256  0.4567 -0.3730 -0.6254
 3704SOL     OW12019   7.577   7.220   2.814  0.1838 -0.2644 -0.7459
 3704SOL    HW112020   7.639   7.280   2.773 -0.1785 -0.1129 -1.0779
 3704SOL    HW212021   7.616   7.133   2.801  0.1465 -0.2066 -1.2839
 3705SOL     OW12022   4.890   4.654   5.853 -0.2737  0.2144  0.6639
 3705SOL    HW112023   4.895   4.662   5.949  0.1369 -0.8116  0.7450
 3705SOL    HW212024   4.962   4.595   5.831  0.2079  1.1638 -0.3886
 3706SOL     OW12025   6.433   2.063   0.506 -0.3976  0.2867 -0.2990
 3706SOL    HW112026   6.472   2.143   0.470 -0.7704  0.4052 -0.4375
 3706SOL    HW212027   6.368   2.036   0.441 -1.2077  0.6010  0.3720
 3707SOL     OW12028   3.776   5.917   4.608  0.1062  0.7785 -0.2152
 3707SOL    HW112029   3.828   5.990   4.575  0.2097  1.0003  0.4231
 3707SOL    HW212030   3.837   5.865   4.660 -0.1019  0.5493 -0.1971
 3708SOL     OW12031   3.181   6.032   5.398 -0.0692 -0.4858 -0.0354
 3708SOL    HW112032   3.218   5.945   5.385 -0.7074 -0.5893 -1.3248
 3708SOL    HW212033   3.187   6.074   5.313 -1.8533 -0.1053 -0.0198
 3709SOL     OW12034   1.654   4.418   6.071 -0.0351 -0.3003  0.6059
 3709SOL    HW112035   1.669   4.379   6.157 -0.3878 -1.0664  0.3301
 3709SOL    HW212036   1.559   4.411   6.058  0.1986 -1.6515 -0.5128
 3710SOL     OW12037   1.611   1.256   6.487  0.0113  0.0015  0.3974
 3710SOL    HW112038   1.646   1.242   6.575  1.1747  0.8770  0.0977
 3710SOL    HW212039   1.688   1.255   6.430 -0.7160 -0.5237 -0.6216
 3711SOL     OW12040   5.141   6.695   3.734 -0.0862 -0.4031  0.4801
 3711SOL    HW112041   5.197   6.676   3.810 -1.9106 -2.1700  1.4716
 3711SOL    HW212042   5.176   6.640   3.664  0.5940  0.0105  0.4768
 3712SOL     OW12043   2.710   1.194   4.882 -0.4231  0.1718  0.2394
 3712SOL    HW112044   2.645   1.178   4.814 -0.1362 -0.5146  0.1193
 3712SOL    HW212045   2.679   1.143   4.957  0.5261 -1.0311 -0.1627
 3713SOL     OW12046   0.101   3.199   0.901  0.2884  0.0462  0.1682
 3713SOL    HW112047   0.147   3.278   0.871 -0.9478  0.2729 -1.2962
 3713SOL    HW212048   0.166   3.129   0.896  0.5330  0.3528 -1.8210
 3714SOL     OW12049   6.422   3.535   5.887  0.6870  0.1487 -0.0052
 3714SOL    HW112050   6.355   3.594   5.922 -0.0521 -0.3455 -0.5513
 3714SOL    HW212051   6.501   3.588   5.882  0.5630  0.5089  1.4612
 3715SOL     OW12052   3.270   0.986   7.150  0.4459  0.4175  0.0138
 3715SOL    HW112053   3.307   1.052   7.092  2.9646  0.3530  1.4246
 3715SOL    HW212054   3.303   0.902   7.116  0.8991  0.2806  0.7614
 3716SOL     OW12055   3.787   6.023   0.351  0.2855  0.3795 -0.1697
 3716SOL    HW112056   3.699   6.018   0.389  0.2163 -2.0704 -0.4351
 3716SOL    HW212057   3.846   6.025   0.426  0.0380  0.6946  0.0185
 3717SOL     OW12058   0.643   1.510   5.895  0.4524  0.6330 -0.0058
 3717SOL    HW112059   0.562   1.460   5.881  0.6868  0.4387 -0.7014
 3717SOL    HW212060   0.636   1.584   5.835  0.9894  0.3767 -0.3891
 3718SOL     OW12061   6.605   2.641   6.204  0.7479  0.4542  0.1910
 3718SOL    HW112062   6.541   2.574   6.227  1.7373 -0.9210 -0.8431
 3718SOL    HW212063   6.686   2.612   6.247  1.1188  1.1574 -0.0149
 3719SOL     OW12064   0.579   6.118   4.958 -0.5010 -1.0101  0.2706
 3719SOL    HW112065   0.564   6.145   5.049  0.6695  0.6104  0.0321
 3719SOL    HW212066   0.504   6.152   4.910 -0.2232 -0.2565  0.3579
 3720SOL     OW12067   0.323   0.122   7.657  0.1739  0.2486  0.0839
 3720SOL    HW112068   0.293   0.207   7.688 -1.5833 -0.6099  0.8454
 3720SOL    HW212069   0.248   0.086   7.610  1.7977  0.2881 -2.8395
 3721SOL     OW12070   3.629   3.297   2.292 -0.2187 -0.1806 -0.1232
 3721SOL    HW112071   3.623   3.329   2.202 -1.9411  0.5949  0.2299
 3721SOL    HW212072   3.659   3.206   2.283  1.6855  0.4918 -1.3287
 3722SOL     OW12073   7.281   3.398   0.661  0.1075  0.4848  0.4022
 3722SOL    HW112074   7.359   3.352   0.629 -0.4627 -0.3319  0.1683
 3722SOL    HW212075   7.266   3.363   0.748 -1.0984 -0.7709 -0.2808
 3723SOL     OW12076   6.748   3.535   4.819 -0.0150 -0.5713  0.0247
 3723SOL    HW112077   6.692   3.459   4.838 -0.1574 -0.2887  0.7430
 3723SOL    HW212078   6.755   3.582   4.902  1.3381 -0.6239 -0.0366
 3724SOL     OW12079   6.548   6.502   0.757 -0.1751 -0.2525  0.4812
 3724SOL    HW112080   6.635   6.466   0.739  1.2329  2.8550  0.4047
 3724SOL    HW212081   6.537   6.496   0.852  0.8144  0.6420  0.6688
 3725SOL     OW12082   0.741   3.264   3.947 -0.1505  0.2738 -0.5092
 3725SOL    HW112083   0.807   3.333   3.946 -0.5157  0.6228 -1.3934
 3725SOL    HW212084   0.723   3.247   3.855 -1.4574  0.3373 -0.2748
 3726SOL     OW12085   4.671   5.613   0.640 -0.6837 -0.2206  0.4985
 3726SOL    HW112086   4.722   5.579   0.713  1.7777 -0.1109 -1.0527
 3726SOL    HW212087   4.646   5.536   0.589 -0.8699 -0.1822  0.5315
 3727SOL     OW12088   5.076   2.302   1.897 -0.0904 -0.0855  0.1017
 3727SOL    HW112089   5.094   2.345   1.981  1.5815 -0.3114 -0.1137
 3727SOL    HW212090   5.102   2.366   1.831 -1.2642  0.0368 -0.2662
 3728SOL     OW12091   6.744   1.182   6.535  0.6002 -0.0199 -0.0123
 3728SOL    HW112092   6.771   1.108   6.589 -0.5651 -1.2846 -1.0914
 3728SOL    HW212093   6.823   1.208   6.488  1.1197 -0.2913  0.6897
 3729SOL     OW12094   4.042   5.285   1.318 -0.1238  0.4832  0.2861
 3729SOL    HW112095   4.070   5.372   1.290  1.2170  0.7877  2.3617
 3729SOL    HW212096   4.119   5.230   1.307 -0.7806 -0.3172 -0.4292
 3730SOL     OW12097   0.061   1.961   4.067  0.5000  0.1049 -0.2965
 3730SOL    HW112098   0.020   1.879   4.039  0.4212 -0.1821  0.6098
 3730SOL    HW212099   0.041   2.023   3.997 -0.4814 -0.3367 -0.4337
 3731SOL     OW12100   3.864   5.858   3.463  0.0131 -0.0786  0.6389
 3731SOL    HW112101   3.883   5.946   3.496 -0.4530 -0.2728  1.4588
 3731SOL    HW212102   3.816   5.873   3.382  0.0601  0.4291  0.7019
 3732SOL     OW12103   4.637   6.998   2.391  0.5370 -0.7168 -0.4031
 3732SOL    HW112104   4.665   7.085   2.360 -2.3657  0.1516 -0.9001
 3732SOL    HW212105   4.568   7.017   2.455 -0.0034 -2.6717 -0.3450
 3733SOL     OW12106   2.132   4.163   2.441 -0.1360  0.0186 -0.3541
 3733SOL    HW112107   2.191   4.102   2.396  0.5326  0.5184 -0.1716
 3733SOL    HW212108   2.187   4.205   2.507 -0.9259 -0.1527  0.4210
 3734SOL     OW12109   0.052   4.169   0.480  0.4361  0.1567  0.0472
 3734SOL    HW112110   0.079   4.211   0.562 -0.1733  1.5284 -0.4346
 3734SOL    HW212111   0.072   4.233   0.412  1.5333 -1.2112 -0.9957
 3735SOL     OW12112   2.913   7.318   6.914  0.2282  0.6983 -0.0729
 3735SOL    HW112113   2.987   7.291   6.860 -0.3434 -4.2879  1.1903
 3735SOL    HW212114   2.950   7.332   7.001 -0.1030 -0.5665  0.2826
 3736SOL     OW12115   6.752   6.597   2.015  0.4327 -0.2714 -0.4114
 3736SOL    HW112116   6.829   6.558   2.057  0.7776 -0.0527 -0.8333
 3736SOL    HW212117   6.787   6.650   1.944  0.0792  1.8864  0.9368
 3737SOL     OW12118   7.221   3.925   6.844 -0.4152  0.9588 -0.3497
 3737SOL    HW112119   7.130   3.954   6.856 -0.3919  2.0950 -2.4895
 3737SOL    HW212120   7.273   4.003   6.863  0.0000  0.8399 -1.0008
 3738SOL     OW12121   6.353   1.062   4.190 -0.1557  0.3427 -0.3229
 3738SOL    HW112122   6.417   1.009   4.237  0.6283 -0.0960 -1.8097
 3738SOL    HW212123   6.404   1.133   4.152 -0.9338  1.2519  0.2677
 3739SOL     OW12124   1.919   1.978   6.707  0.6562 -0.1006 -0.5642
 3739SOL    HW112125   1.859   1.918   6.662 -0.5024  2.0082 -2.0036
 3739SOL    HW212126   2.005   1.955   6.673  0.1723 -0.6288 -1.4709
 3740SOL     OW12127   2.860   1.486   5.276  0.4701 -0.4028  0.6075
 3740SOL    HW112128   2.908   1.405   5.292 -3.0097 -2.5033  1.5490
 3740SOL    HW212129   2.809   1.469   5.197  1.1507  1.7040 -0.3598
 3741SOL     OW12130   2.829   1.269   1.555  0.3588 -0.1567  0.3150
 3741SOL    HW112131   2.831   1.317   1.473  0.2999 -1.4117 -0.4561
 3741SOL    HW212132   2.876   1.324   1.617  0.9193  0.5458 -0.7121
 3742SOL     OW12133   7.377   6.094   1.678  0.7547 -0.0372  0.0449
 3742SOL    HW112134   7.307   6.030   1.680  1.4951 -0.9817 -1.7099
 3742SOL    HW212135   7.404   6.098   1.586  1.5280  1.9256  0.3007
 3743SOL     OW12136   4.854   1.871   6.027 -0.3846  0.7073 -0.0103
 3743SOL    HW112137   4.824   1.843   5.941 -0.5696 -1.3818  0.6871
 3743SOL    HW212138   4.821   1.804   6.087  2.1950  0.5117  1.3187
 3744SOL     OW12139   4.300   2.525   2.138  0.1543  0.0858  0.1654
 3744SOL    HW112140   4.329   2.521   2.047 -1.9994 -0.4414 -0.5501
 3744SOL    HW212141   4.346   2.600   2.175  0.7771  0.5400 -1.4621
 3745SOL     OW12142   4.381   6.006   6.123  0.0321  0.2185 -0.1762
 3745SOL    HW112143   4.380   5.966   6.036  0.1182  0.1283 -0.1366
 3745SOL    HW212144   4.413   5.936   6.181  3.2614  1.2152 -0.5561
 3746SOL     OW12145   5.415   5.402   0.585 -0.1731  0.0599 -0.7584
 3746SOL    HW112146   5.478   5.387   0.515  0.2299 -0.1539 -0.3512
 3746SOL    HW212147   5.411   5.318   0.632 -0.6464  0.1173 -0.6876
 3747SOL     OW12148   1.256   7.711   2.062  0.2446  0.3308 -0.3113
 3747SOL    HW112149   1.244   7.796   2.105  0.7266  0.2560 -0.0259
 3747SOL    HW212150   1.350   7.696   2.064  0.2522  0.2020 -1.1664
 3748SOL     OW12151   7.073   4.241   5.577 -0.3250 -0.6050  0.3169
 3748SOL    HW112152   6.980   4.231   5.555  0.0001 -0.8074 -1.0595
 3748SOL    HW212153   7.112   4.156   5.557  0.0457 -0.7305  1.5373
 3749SOL     OW12154   7.015   6.490   2.183 -0.0070  0.4643  0.2462
 3749SOL    HW112155   7.028   6.570   2.234 -1.1123  0.2941  0.8379
 3749SOL    HW212156   7.000   6.422   2.248  1.2394 -0.3107 -0.2386
 3750SOL     OW12157   6.290   5.908   0.233  0.6596 -0.4642  0.1674
 3750SOL    HW112158   6.299   5.840   0.299  1.3105 -1.3769 -0.8250
 3750SOL    HW212159   6.299   5.990   0.281 -0.6657 -1.0408  1.4707
 3751SOL     OW12160   1.078   0.785   7.668 -0.3880 -0.0700 -0.1515
 3751SOL    HW112161   1.101   0.734   7.745 -1.3527  0.9665  0.8537
 3751SOL    HW212162   1.104   0.729   7.594  0.5031 -1.1030  0.8951
 3752SOL     OW12163   5.376   3.653   1.549  0.4133  0.3916  0.6220
 3752SOL    HW112164   5.399   3.659   1.641 -0.2781 -2.1319  1.0515
 3752SOL    HW212165   5.290   3.695   1.543  0.6035  0.8484  1.0498
 3753SOL     OW12166   6.613   4.249   7.720 -0.1440 -0.3360 -0.1514
 3753SOL    HW112167   6.563   4.178   7.759 -0.5958  1.0931  2.0990
 3753SOL    HW212168   6.703   4.216   7.717 -0.6007 -1.5761 -0.7153
 3754SOL     OW12169   1.619   7.676   6.548  0.0906  0.4118  0.0323
 3754SOL    HW112170   1.660   7.670   6.634  0.3197 -2.0949 -0.1733
 3754SOL    HW212171   1.692   7.695   6.488  0.2707  0.1326  0.1608
 3755SOL     OW12172   7.557   3.187   5.653  0.1374  0.0127 -0.4618
 3755SOL    HW112173   7.527   3.098   5.633 -0.6695 -0.1535  1.3161
 3755SOL    HW212174   7.481   3.231   5.689  1.2362  0.5252  1.3701
 3756SOL     OW12175   3.967   1.867   5.363  0.6178 -0.1657 -0.0334
 3756SOL    HW112176   3.959   1.958   5.391  0.5656 -0.0181 -0.5134
 3756SOL    HW212177   3.888   1.825   5.396  1.1600 -0.3104  1.1616
 3757SOL     OW12178   3.037   2.484   1.510 -0.2440  0.3916  0.0461
 3757SOL    HW112179   3.116   2.513   1.464  0.5780  0.3815  1.3976
 3757SOL    HW212180   2.965   2.512   1.454  0.7036  0.7122 -1.0492
 3758SOL     OW12181   4.188   7.539   6.583 -0.0676 -0.6081  0.3663
 3758SOL    HW112182   4.239   7.496   6.514  1.4635  1.0490  0.3929
 3758SOL    HW212183   4.210   7.490   6.662 -0.8904 -1.7615 -0.0848
 3759SOL     OW12184   1.556   0.090   3.313  0.3246 -0.0985 -0.2437
 3759SOL    HW112185   1.613   0.149   3.362  1.1803 -2.1283  1.2885
 3759SOL    HW212186   1.614   0.047   3.250 -0.0573 -0.2181 -0.5186
 3760SOL     OW12187   6.413   6.831   0.640  0.3135  0.5203  0.4102
 3760SOL    HW112188   6.430   6.842   0.733  1.3938  0.4600  0.2392
 3760SOL    HW212189   6.445   6.742   0.620 -1.3390 -0.0779  0.2793
 3761SOL     OW12190   4.815   4.420   0.760  0.5127  0.1447  0.2542
 3761SOL    HW112191   4.764   4.350   0.799 -0.1842 -0.5434 -1.7538
 3761SOL    HW212192   4.764   4.448   0.684  0.5715  3.1387  1.1932
 3762SOL     OW12193   3.628   0.240   0.714 -0.1671  0.2377 -0.6698
 3762SOL    HW112194   3.698   0.273   0.769 -0.3469  0.4705 -0.5803
 3762SOL    HW212195   3.672   0.207   0.636  0.1401 -0.5896 -0.1554
 3763SOL     OW12196   1.806   0.656   6.088 -0.6284 -0.7351 -0.3490
 3763SOL    HW112197   1.731   0.692   6.042 -0.4714 -0.4099 -0.3574
 3763SOL    HW212198   1.784   0.665   6.181 -0.1987  0.2700 -0.3260
 3764SOL     OW12199   6.729   2.569   4.627  0.5630  0.0754  0.2310
 3764SOL    HW112200   6.768   2.495   4.581 -1.8555 -0.1932 -1.5595
 3764SOL    HW212201   6.782   2.644   4.600  0.8251 -0.4852 -0.8900
 3765SOL     OW12202   4.312   2.901   0.974  0.2336  0.3163 -0.1999
 3765SOL    HW112203   4.336   2.889   1.066 -0.3826  0.2854 -0.0369
 3765SOL    HW212204   4.364   2.976   0.945  1.7051 -0.6980 -0.3155
 3766SOL     OW12205   3.476   4.899   7.002  0.3616  0.2740 -0.1756
 3766SOL    HW112206   3.510   4.849   6.927  0.5514  0.8211 -0.4575
 3766SOL    HW212207   3.429   4.973   6.963  1.3468  1.1441  0.2590
 3767SOL     OW12208   5.084   2.387   6.607 -0.1669  0.2296  0.6007
 3767SOL    HW112209   5.050   2.404   6.695  0.2907  0.6412  0.7018
 3767SOL    HW212210   5.166   2.436   6.603 -0.2597  0.3366 -0.1130
 3768SOL     OW12211   6.897   3.705   1.078  0.3987 -0.1140  0.6472
 3768SOL    HW112212   6.818   3.711   1.025  0.2815 -0.4707  0.7744
 3768SOL    HW212213   6.893   3.617   1.116  1.4858 -0.6278 -0.3521
 3769SOL     OW12214   3.249   3.832   3.843  0.1671  0.7565 -0.4035
 3769SOL    HW112215   3.314   3.886   3.799 -0.2793  1.1565 -0.5857
 3769SOL    HW212216   3.298   3.756   3.876  0.4980  0.4208 -1.6335
 3770SOL     OW12217   1.502   0.720   6.422 -0.5220 -0.0670  0.2159
 3770SOL    HW112218   1.445   0.763   6.359  0.2776  0.2737 -0.2962
 3770SOL    HW212219   1.591   0.735   6.388 -0.2162 -2.5746 -0.2641
 3771SOL     OW12220   2.101   1.624   5.584 -0.5880  0.0435 -0.2405
 3771SOL    HW112221   2.193   1.631   5.612 -0.1116  0.4310 -1.8071
 3771SOL    HW212222   2.063   1.709   5.605 -0.4005  0.1266 -0.2379
 3772SOL     OW12223   7.540   3.289   0.671 -0.0024  0.0137 -0.2050
 3772SOL    HW112224   7.585   3.204   0.659  1.5712  0.5286  1.5991
 3772SOL    HW212225   7.609   3.354   0.658 -0.3888  0.8791  1.7813
 3773SOL     OW12226   3.217   4.777   5.019 -0.3674  0.5634 -0.1211
 3773SOL    HW112227   3.174   4.807   4.939 -0.2911  0.5978 -0.1498
 3773SOL    HW212228   3.271   4.851   5.047  1.5315 -0.2576 -1.3974
 3774SOL     OW12229   5.938   1.747   7.238 -0.0660  0.0412  0.1264
 3774SOL    HW112230   5.951   1.794   7.320  0.3847  2.5394 -1.3010
 3774SOL    HW212231   5.992   1.668   7.246  0.9285  0.8540  1.7258
 3775SOL     OW12232   6.584   2.926   0.349 -0.6088  0.1228  0.3627
 3775SOL    HW112233   6.531   2.980   0.408  2.1841  1.8023  1.5242
 3775SOL    HW212234   6.618   2.986   0.283  1.5475 -0.3703  0.9271
 3776SOL     OW12235   4.331   1.800   2.289  0.4780  0.2118 -0.4096
 3776SOL    HW112236   4.346   1.716   2.333  0.5723  0.4087 -0.0571
 3776SOL    HW212237   4.415   1.845   2.294  0.7779 -0.1650 -1.6929
 3777SOL     OW12238   4.068   1.161   4.542 -0.7390 -0.1710 -0.4919
 3777SOL    HW112239   4.109   1.195   4.622  0.2926 -1.8345 -0.2540
 3777SOL    HW212240   4.068   1.235   4.482  1.6715  0.2188 -0.1235
 3778SOL     OW12241   5.274   0.561   3.803 -0.2513 -0.5978  0.0477
 3778SOL    HW112242   5.216   0.636   3.792  2.6844  1.9998  0.9364
 3778SOL    HW212243   5.299   0.562   3.896  0.6849 -2.0222 -0.1475
 3779SOL     OW12244   2.248   4.307   0.894 -0.9749  0.6378  0.1374
 3779SOL    HW112245   2.158   4.284   0.917 -0.7459  0.9163  1.4247
 3779SOL    HW212246   2.291   4.223   0.879 -1.1819  0.4441  0.6078
 3780SOL     OW12247   5.142   3.568   3.753  0.0285  0.5419  0.7182
 3780SOL    HW112248   5.238   3.565   3.751  0.0096 -0.3929  0.8422
 3780SOL    HW212249   5.116   3.480   3.777 -0.9703 -0.6246 -3.7388
 3781SOL     OW12250   6.611   4.088   6.426  0.7843  0.0526  0.3626
 3781SOL    HW112251   6.613   4.118   6.335  0.0909  0.5963  0.5194
 3781SOL    HW212252   6.651   4.002   6.423 -1.0445 -0.8371 -0.8132
 3782SOL     OW12253   6.588   1.353   5.377  0.5032  0.1194 -0.2447
 3782SOL    HW112254   6.545   1.330   5.460  1.3563  0.7217  0.3833
 3782SOL    HW212255   6.662   1.292   5.371  2.0597  1.7836  0.8317
 3783SOL     OW12256   4.760   4.375   3.021 -0.1238  0.3717  0.2625
 3783SOL    HW112257   4.807   4.448   3.062  1.3052  0.4812 -1.4841
 3783SOL    HW212258   4.680   4.415   2.987  0.2492  0.9506  0.0523
 3784SOL     OW12259   1.247   1.137   3.292 -0.4664 -0.2277 -0.1214
 3784SOL    HW112260   1.249   1.221   3.337 -1.5595 -0.9523  1.3367
 3784SOL    HW212261   1.154   1.120   3.277 -0.1839  0.4785 -3.7300
 3785SOL     OW12262   5.053   6.102   4.390  0.6246  0.5399  0.2387
 3785SOL    HW112263   4.976   6.157   4.403  0.9255  0.6162  1.8788
 3785SOL    HW212264   5.047   6.035   4.458  2.0628  0.6108  0.4649
 3786SOL     OW12265   5.957   2.732   2.627  0.3910 -0.1645 -0.6991
 3786SOL    HW112266   5.982   2.641   2.643 -0.8187 -0.2593  1.0767
 3786SOL    HW212267   5.950   2.770   2.715  0.4776  1.5407 -1.3924
 3787SOL     OW12268   1.127   4.515   4.248  0.0958  0.4879 -0.0513
 3787SOL    HW112269   1.070   4.547   4.178 -2.7377  0.7600  2.1943
 3787SOL    HW212270   1.088   4.433   4.275  2.4488 -0.7638 -0.1770
 3788SOL     OW12271   7.080   3.220   4.982  0.4249  0.8243 -0.1021
 3788SOL    HW112272   7.121   3.271   5.052 -0.8535 -0.1119  1.3689
 3788SOL    HW212273   7.131   3.139   4.977 -0.3350  0.2818  0.7389
 3789SOL     OW12274   5.989   6.592   3.537  0.1419  0.3432 -0.4112
 3789SOL    HW112275   5.897   6.603   3.515 -0.1124  1.7843  1.2229
 3789SOL    HW212276   6.009   6.501   3.513 -1.8600 -0.1835 -0.2141
 3790SOL     OW12277   3.368   5.342   7.082 -0.9282 -0.2052 -0.6395
 3790SOL    HW112278   3.289   5.396   7.073 -0.0624  1.9367  2.7707
 3790SOL    HW212279   3.438   5.404   7.100  1.0979 -2.2218 -1.0575
 3791SOL     OW12280   3.465   2.354   6.998 -0.3864 -0.2031 -0.1248
 3791SOL    HW112281   3.539   2.389   7.048  0.5915 -0.7844 -1.1068
 3791SOL    HW212282   3.463   2.408   6.918 -0.9874 -0.2334 -0.1322
 3792SOL     OW12283   3.966   6.307   3.341  0.0358  0.3213 -0.3548
 3792SOL    HW112284   3.979   6.394   3.379  0.2639 -0.1794  0.7255
 3792SOL    HW212285   3.871   6.294   3.344  0.1196 -0.1491  1.0746
 3793SOL     OW12286   3.463   4.849   5.508 -0.2483  0.3234 -0.0603
 3793SOL    HW112287   3.374   4.871   5.533  0.0858  2.1262 -0.3006
 3793SOL    HW212288   3.456   4.763   5.466 -1.6008 -0.2724  1.3092
 3794SOL     OW12289   4.912   5.257   2.413  0.1029  0.1978  0.2210
 3794SOL    HW112290   4.855   5.183   2.437  0.6133 -0.3794 -0.3044
 3794SOL    HW212291   4.987   5.216   2.371  0.0267  1.0791 -0.7970
 3795SOL     OW12292   3.517   1.612   5.426  0.3383  0.0986 -0.5169
 3795SOL    HW112293   3.439   1.580   5.379 -0.1163 -2.2700  1.5992
 3795SOL    HW212294   3.494   1.603   5.518  2.6830  0.5563  0.1711
 3796SOL     OW12295   4.888   7.264   3.778  0.2931 -0.2188 -0.0698
 3796SOL    HW112296   4.968   7.229   3.739 -0.5120 -0.9733 -1.1371
 3796SOL    HW212297   4.823   7.195   3.763 -0.6631  0.5665  0.3701
 3797SOL     OW12298   7.504   0.648   4.882 -0.3247  0.2093  0.7477
 3797SOL    HW112299   7.518   0.669   4.975 -0.1857  1.9671  0.3599
 3797SOL    HW212300   7.592   0.650   4.843 -0.2424 -1.6130  0.7452
 3798SOL     OW12301   2.504   5.193   4.962  0.5870 -0.1586 -0.6476
 3798SOL    HW112302   2.596   5.219   4.954  0.7299  0.0577  1.2221
 3798SOL    HW212303   2.474   5.235   5.043 -1.0824 -0.4835 -1.0525
 3799SOL     OW12304   0.978   4.772   2.749  0.3102  0.0709  0.5146
 3799SOL    HW112305   1.041   4.841   2.773  1.4498 -1.0630  0.8673
 3799SOL    HW212306   0.919   4.815   2.687  2.4217  0.7460 -1.1515
 3800SOL     OW12307   0.494   1.303   2.872 -0.4911  0.8175  0.2673
 3800SOL    HW112308   0.452   1.389   2.875 -0.4339  0.8262  1.0119
 3800SOL    HW212309   0.431   1.244   2.914 -0.7349  0.3960 -0.6490
 3801SOL     OW12310   3.481   1.016   4.429 -0.1671 -0.1435 -0.2553
 3801SOL    HW112311   3.486   0.938   4.374  1.5486  0.8050 -1.5657
 3801SOL    HW212312   3.403   1.062   4.400  0.7471  0.3748 -2.0262
 3802SOL     OW12313   6.988   2.829   3.244 -0.2323  0.1638  0.0853
 3802SOL    HW112314   6.990   2.893   3.173  0.3322 -0.6679 -0.6885
 3802SOL    HW212315   6.915   2.771   3.222  1.0597 -1.1875 -0.8643
 3803SOL     OW12316   6.548   2.559   4.014  0.1794 -1.0017 -0.2286
 3803SOL    HW112317   6.586   2.580   3.928 -0.9127  0.5383 -0.3833
 3803SOL    HW212318   6.606   2.604   4.076 -0.3926 -0.0586 -0.3525
 3804SOL     OW12319   6.894   3.807   5.409  0.4042  0.3390  0.0899
 3804SOL    HW112320   6.830   3.874   5.383 -1.0732 -2.0856 -3.4818
 3804SOL    HW212321   6.853   3.761   5.482 -0.3143  0.9638  0.0889
 3805SOL     OW12322   6.847   6.435   1.073 -0.1225 -0.0017 -0.0348
 3805SOL    HW112323   6.779   6.400   1.131 -1.1587  0.8160 -0.7198
 3805SOL    HW212324   6.928   6.426   1.123 -0.6820 -1.2525  0.6966
 3806SOL     OW12325   4.684   3.265   3.320  0.3809 -0.0399 -0.7432
 3806SOL    HW112326   4.657   3.195   3.379  0.0937  0.1383 -0.6606
 3806SOL    HW212327   4.767   3.235   3.285 -0.5085 -1.1792 -1.9717
 3807SOL     OW12328   1.170   7.319   7.113  0.3319  0.4321  0.1175
 3807SOL    HW112329   1.211   7.237   7.084  0.8713  0.8004 -0.1722
 3807SOL    HW212330   1.089   7.291   7.155 -0.6066 -0.1333 -1.9189
 3808SOL     OW12331   5.320   4.242   3.022 -0.0742  0.3045  0.0745
 3808SOL    HW112332   5.332   4.180   3.093 -1.0337 -1.7523 -1.4455
 3808SOL    HW212333   5.227   4.234   2.998  0.0803  1.3695 -1.0152
 3809SOL     OW12334   5.298   6.272   6.616 -1.1485 -0.1379  0.0013
 3809SOL    HW112335   5.270   6.287   6.707 -0.2119  0.9649  0.1358
 3809SOL    HW212336   5.268   6.350   6.570 -0.3488 -0.0159 -0.3252
 3810SOL     OW12337   0.717   4.757   0.872 -0.1164  0.0526  0.3175
 3810SOL    HW112338   0.653   4.716   0.931  0.8086 -0.4232  1.0171
 3810SOL    HW212339   0.742   4.686   0.812 -0.3247  0.2721 -0.0324
 3811SOL     OW12340   1.665   2.724   3.879  0.0165  0.1978 -0.0614
 3811SOL    HW112341   1.609   2.671   3.937 -0.6350 -0.0100 -0.8508
 3811SOL    HW212342   1.606   2.791   3.844  0.3097  0.1188 -0.7288
 3812SOL     OW12343   1.546   0.877   4.922  0.1741 -0.0495 -0.1552
 3812SOL    HW112344   1.592   0.899   4.841  1.8374 -0.0134  0.7614
 3812SOL    HW212345   1.614   0.843   4.980 -1.0918 -0.6711  1.0187
 3813SOL     OW12346   0.205   0.369   5.722 -0.3021  0.0568  0.2371
 3813SOL    HW112347   0.278   0.361   5.783  3.2662  0.4633 -3.4739
 3813SOL    HW212348   0.215   0.457   5.684 -2.7030  0.0829 -0.5106
 3814SOL     OW12349   7.094   4.886   4.063 -0.8268 -0.0115  0.1242
 3814SOL    HW112350   7.130   4.853   4.145  0.2560  1.6428  0.3564
 3814SOL    HW212351   7.001   4.860   4.065 -1.1877  1.1955  2.5606
 3815SOL     OW12352   2.333   6.738   3.364  0.0179  0.6250 -0.1462
 3815SOL    HW112353   2.331   6.646   3.336 -0.4827  0.2892  0.9539
 3815SOL    HW212354   2.425   6.763   3.357  0.4804 -0.5419  1.3495
 3816SOL     OW12355   1.553   3.687   4.283  0.1037  0.3971  0.2126
 3816SOL    HW112356   1.601   3.769   4.279  0.1018  0.5011  1.7599
 3816SOL    HW212357   1.466   3.711   4.313  0.5223 -0.2969  2.0971
 3817SOL     OW12358   0.974   3.438   0.466 -0.1834  0.1043 -0.1559
 3817SOL    HW112359   0.953   3.361   0.412 -1.2319 -0.1343  0.5768
 3817SOL    HW212360   0.992   3.507   0.402 -1.1016 -0.2544 -0.8351
 3818SOL     OW12361   6.052   1.620   2.431  0.2811 -0.2629  0.3475
 3818SOL    HW112362   6.027   1.703   2.391 -0.6034 -0.9972 -0.6917
 3818SOL    HW212363   5.974   1.565   2.422  1.7308 -2.1649 -1.6856
 3819SOL     OW12364   2.543   3.866   5.171  0.5380  0.1765  0.5028
 3819SOL    HW112365   2.509   3.955   5.164  0.9592  0.2796 -0.4446
 3819SOL    HW212366   2.636   3.874   5.151  0.6453 -0.4256  0.7448
 3820SOL     OW12367   5.296   6.355   0.137  0.3414 -0.4308 -0.1608
 3820SOL    HW112368   5.249   6.432   0.168  0.8678 -0.6661  1.3021
 3820SOL    HW212369   5.376   6.352   0.190  1.1722 -1.0074 -1.4018
 3821SOL     OW12370   2.422   0.599   3.681 -0.2255 -0.2722 -0.2232
 3821SOL    HW112371   2.460   0.599   3.593  0.1341 -0.7664 -0.0763
 3821SOL    HW212372   2.470   0.530   3.727 -0.7991 -0.3996  0.1897
 3822SOL     OW12373   3.528   1.476   0.381 -0.2264  0.0740  0.1182
 3822SOL    HW112374   3.447   1.496   0.334  0.1661  0.5568 -0.3548
 3822SOL    HW212375   3.521   1.526   0.463 -0.6803 -0.3779  0.3701
 3823SOL     OW12376   3.772   6.244   0.677 -0.1273  0.2844 -0.2340
 3823SOL    HW112377   3.724   6.297   0.741  1.4171  0.2937  0.9585
 3823SOL    HW212378   3.737   6.155   0.688 -0.4573  0.4457  0.0255
 3824SOL     OW12379   2.121   2.956   6.359 -0.0819  0.3056 -0.4433
 3824SOL    HW112380   2.197   2.940   6.304  0.8995 -0.5921  1.1021
 3824SOL    HW212381   2.054   2.988   6.299  0.8826 -0.7818 -2.1768
 3825SOL     OW12382   6.071   3.561   1.409 -0.3823  0.2081 -0.2866
 3825SOL    HW112383   6.082   3.470   1.382  0.7703  0.7646 -1.8491
 3825SOL    HW212384   6.090   3.561   1.503 -0.0769 -1.1023 -0.3277
 3826SOL     OW12385   6.609   4.617   2.885 -0.1665 -0.5836  0.4539
 3826SOL    HW112386   6.517   4.642   2.880  0.1194  0.3562 -0.6648
 3826SOL    HW212387   6.629   4.580   2.799  0.9823  1.1406 -0.0879
 3827SOL     OW12388   2.137   6.630   0.509  0.6929  0.6063 -0.2384
 3827SOL    HW112389   2.125   6.699   0.443 -0.8293  1.1454  0.5602
 3827SOL    HW212390   2.212   6.660   0.561 -0.4474  2.1266  0.6155
 3828SOL     OW12391   5.968   7.206   2.273 -0.2620  0.7477  0.2989
 3828SOL    HW112392   6.058   7.182   2.253 -0.9613  0.8259 -3.7210
 3828SOL    HW212393   5.922   7.123   2.283  0.0044  0.6968  1.1742
 3829SOL     OW12394   3.014   1.479   4.242 -0.5114 -0.1653 -0.1119
 3829SOL    HW112395   2.989   1.526   4.163  0.2810  0.0902 -0.2189
 3829SOL    HW212396   3.106   1.458   4.229 -0.5038 -0.5585  0.5294
 3830SOL     OW12397   3.407   5.093   2.087  0.1042 -0.1766  0.2009
 3830SOL    HW112398   3.354   5.031   2.137  2.3183 -2.3022  0.0863
 3830SOL    HW212399   3.495   5.087   2.126  1.0359  0.8551 -1.5885
 3831SOL     OW12400   3.028   0.396   5.011 -0.5532 -0.2307  0.1392
 3831SOL    HW112401   3.013   0.490   5.016 -0.0614  0.0279 -2.1204
 3831SOL    HW212402   3.099   0.380   5.074 -0.4433  0.9432  0.3391
 3832SOL     OW12403   6.390   4.034   4.180 -0.6448 -0.4275 -0.2721
 3832SOL    HW112404   6.449   3.959   4.189  0.6230  0.6989  1.2959
 3832SOL    HW212405   6.351   4.044   4.267  0.8703  2.0249  0.2045
 3833SOL     OW12406   3.019   3.678   4.910  0.3783  0.6963  0.3851
 3833SOL    HW112407   3.001   3.625   4.988  1.6515  0.1669  0.3430
 3833SOL    HW212408   3.078   3.623   4.858  0.1194  1.3510 -0.6081
 3834SOL     OW12409   1.343   5.247   0.184 -0.0116 -0.4136 -0.2063
 3834SOL    HW112410   1.263   5.298   0.184  0.3695  0.2170  1.2816
 3834SOL    HW212411   1.314   5.157   0.198 -0.4445 -0.1531  0.5993
 3835SOL     OW12412   3.462   1.567   5.693 -0.0889  0.2678  0.0565
 3835SOL    HW112413   3.521   1.571   5.769 -0.8783 -1.6984  0.8525
 3835SOL    HW212414   3.413   1.649   5.697  0.9499  0.8800  0.7738
 3836SOL     OW12415   4.705   4.934   1.753 -0.2625  0.1633 -0.3900
 3836SOL    HW112416   4.677   4.848   1.722 -0.8040  0.4959 -0.8459
 3836SOL    HW212417   4.647   4.995   1.709 -0.5040  0.7087  0.6686
 3837SOL     OW12418   6.760   2.397   6.520 -0.2193  0.1727 -0.7715
 3837SOL    HW112419   6.685   2.448   6.551 -0.2100 -0.6276  0.6643
 3837SOL    HW212420   6.721   2.326   6.469 -0.4797 -0.2786  0.0243
 3838SOL     OW12421   5.797   7.280   0.373  0.1692  0.8137 -0.1246
 3838SOL    HW112422   5.839   7.315   0.452  1.8359  1.3200 -1.1852
 3838SOL    HW212423   5.870   7.254   0.317 -0.9917 -0.6133 -1.0534
 3839SOL     OW12424   1.664   0.492   1.141  0.2598  0.3084 -0.4965
 3839SOL    HW112425   1.746   0.498   1.091  2.2250  0.4864  2.5132
 3839SOL    HW212426   1.649   0.398   1.150 -0.0344  0.2749 -1.2571
 3840SOL     OW12427   6.358   3.843   0.656  0.2127  0.9341 -0.0169
 3840SOL    HW112428   6.402   3.823   0.573 -2.5513  0.1400 -1.4151
 3840SOL    HW212429   6.399   3.924   0.686  1.8860  0.7788 -1.7088
 3841SOL     OW12430   2.660   7.217   2.075  0.1836 -0.2787  0.0197
 3841SOL    HW112431   2.731   7.281   2.080 -0.2910  0.4288 -1.5418
 3841SOL    HW212432   2.612   7.227   2.158  2.4263 -1.4839  1.5656
 3842SOL     OW12433   2.453   3.663   3.735 -0.2896  0.1483  0.1798
 3842SOL    HW112434   2.465   3.578   3.777 -0.4741 -0.2530 -0.5650
 3842SOL    HW212435   2.361   3.685   3.751 -0.6135 -0.4363 -0.7720
 3843SOL     OW12436   6.780   5.818   5.443 -0.7692  0.3396  0.5183
 3843SOL    HW112437   6.791   5.911   5.424 -2.4521  0.3039 -0.9056
 3843SOL    HW212438   6.789   5.775   5.358  1.9449 -1.0755  1.4050
 3844SOL     OW12439   7.553   6.460   4.343 -0.1756  0.1143  0.2782
 3844SOL    HW112440   7.578   6.480   4.433 -2.9195  0.5461  1.0172
 3844SOL    HW212441   7.559   6.365   4.337 -0.3672  0.0493  1.0344
 3845SOL     OW12442   6.544   3.452   2.594  0.7941 -0.2757 -0.0347
 3845SOL    HW112443   6.535   3.430   2.501 -0.4120  2.5839 -0.6892
 3845SOL    HW212444   6.455   3.447   2.628  1.1743 -0.9107  0.9070
 3846SOL     OW12445   2.519   6.872   1.455 -0.0943 -0.0616 -0.1915
 3846SOL    HW112446   2.528   6.895   1.548 -1.3882 -0.5752  0.0782
 3846SOL    HW212447   2.561   6.787   1.447  1.3190  0.6213 -0.4057
 3847SOL     OW12448   5.349   6.780   0.443 -0.5738  0.8641 -0.0703
 3847SOL    HW112449   5.420   6.716   0.442 -0.0115  1.4827 -0.5828
 3847SOL    HW212450   5.365   6.834   0.366 -1.1871  1.4625  0.2182
 3848SOL     OW12451   5.886   4.090   0.691  0.3679  0.3060  0.5703
 3848SOL    HW112452   5.903   4.152   0.620 -1.8947  1.1913  0.7249
 3848SOL    HW212453   5.844   4.015   0.648 -1.6260  1.1312  1.0067
 3849SOL     OW12454   0.885   7.667   2.229 -0.2792  0.0669 -0.0213
 3849SOL    HW112455   0.897   7.572   2.241 -3.1231 -0.6847 -2.0615
 3849SOL    HW212456   0.836   7.695   2.306 -1.7725 -0.7444 -0.6329
 3850SOL     OW12457   4.953   5.790   1.491 -0.1817  0.3619  0.1465
 3850SOL    HW112458   4.991   5.826   1.411 -0.5190 -1.2574 -0.7887
 3850SOL    HW212459   5.021   5.799   1.557  1.5377 -1.5571 -1.2377
 3851SOL     OW12460   3.219   6.382   3.908 -0.1425  0.2293  0.3402
 3851SOL    HW112461   3.301   6.334   3.895  0.0209  0.4761  0.4641
 3851SOL    HW212462   3.221   6.411   3.999  0.1114  1.1238  0.0575
 3852SOL     OW12463   0.106   2.416   7.027  0.2991  0.1165 -0.2741
 3852SOL    HW112464   0.098   2.412   7.122  3.9898  2.2188  0.3224
 3852SOL    HW212465   0.054   2.492   7.001  0.7980  0.6765  0.3503
 3853SOL     OW12466   6.540   1.211   3.696 -0.7682  0.1636  0.3424
 3853SOL    HW112467   6.486   1.177   3.625 -0.0336 -0.3788  0.0255
 3853SOL    HW212468   6.518   1.155   3.771 -0.9254  0.1887  0.3149
 3854SOL     OW12469   3.742   3.662   3.131  0.1187  0.5711 -0.1527
 3854SOL    HW112470   3.748   3.702   3.218  2.0015 -0.0568  0.0601
 3854SOL    HW212471   3.798   3.717   3.076 -0.2242  0.3545 -0.7264
 3855SOL     OW12472   0.512   6.251   1.762  0.1688 -0.1905  0.0189
 3855SOL    HW112473   0.445   6.318   1.774 -0.3538 -0.7597  0.3011
 3855SOL    HW212474   0.576   6.269   1.831  1.1632  1.3452 -1.2312
 3856SOL     OW12475   0.637   0.998   6.237  0.7144  0.1950 -0.5844
 3856SOL    HW112476   0.563   0.937   6.234  0.7541  0.1810 -1.8455
 3856SOL    HW212477   0.596   1.084   6.244  0.6657  0.0555  1.8099
 3857SOL     OW12478   7.178   2.420   5.126 -0.5902  0.4355  0.1305
 3857SOL    HW112479   7.101   2.402   5.071 -0.9814  1.1931  0.4225
 3857SOL    HW212480   7.172   2.513   5.147  0.4439  0.5211  0.1182
 3858SOL     OW12481   7.500   0.433   1.285  0.3275 -0.3066  0.9559
 3858SOL    HW112482   7.465   0.346   1.305  1.0889 -0.4939  1.5427
 3858SOL    HW212483   7.520   0.471   1.371  1.0866 -0.0241  0.6647
 3859SOL     OW12484   6.796   2.802   1.877 -0.5999 -0.1881  0.2819
 3859SOL    HW112485   6.807   2.733   1.943 -0.5207 -0.3898  0.0584
 3859SOL    HW212486   6.721   2.773   1.825 -0.3885 -0.2473  0.0085
 3860SOL     OW12487   4.100   0.637   5.467 -0.1314  0.1394 -0.0890
 3860SOL    HW112488   4.072   0.665   5.379  0.6274 -0.1308 -0.4264
 3860SOL    HW212489   4.195   0.640   5.464 -0.0113 -1.7492  0.0831
 3861SOL     OW12490   0.289   6.872   1.870 -0.1436 -0.4090  0.7238
 3861SOL    HW112491   0.221   6.932   1.898 -0.0144  1.3799 -2.4107
 3861SOL    HW212492   0.245   6.809   1.813  0.6500  0.3728 -0.8071
 3862SOL     OW12493   4.777   0.387   5.031  0.2988  0.3767 -0.1431
 3862SOL    HW112494   4.779   0.434   5.114  2.8244 -0.5407  0.3888
 3862SOL    HW212495   4.822   0.304   5.048 -0.7416 -0.6478 -1.9898
 3863SOL     OW12496   6.671   3.741   6.367  0.1402 -0.0933 -0.0213
 3863SOL    HW112497   6.749   3.730   6.421 -0.4373  2.4469  1.4977
 3863SOL    HW212498   6.598   3.736   6.429 -0.5931  2.1446 -0.6084
 3864SOL     OW12499   5.138   3.309   1.255 -0.3772 -0.0643  0.4517
 3864SOL    HW112500   5.189   3.290   1.176 -0.7013 -2.1519  0.6798
 3864SOL    HW212501   5.202   3.343   1.317  0.3113 -0.4908 -0.0105
 3865SOL     OW12502   1.738   6.608   5.370  0.1631 -0.2788  0.0385
 3865SOL    HW112503   1.698   6.529   5.333  0.1678 -0.5528  0.5925
 3865SOL    HW212504   1.831   6.586   5.378 -0.2291 -1.4420  3.0416
 3866SOL     OW12505   7.302   0.517   1.637  0.2723  0.1053  0.4415
 3866SOL    HW112506   7.361   0.582   1.600 -0.7185  1.2465  0.8195
 3866SOL    HW212507   7.307   0.443   1.577 -0.8786  1.6803 -1.7133
 3867SOL     OW12508   7.376   2.451   0.792 -0.1459 -0.4126 -0.5368
 3867SOL    HW112509   7.398   2.391   0.721  0.2630 -0.3120 -0.4977
 3867SOL    HW212510   7.338   2.527   0.749  0.3904 -0.2188 -0.6747
 3868SOL     OW12511   4.446   2.940   0.299  0.5878 -0.8252  0.7121
 3868SOL    HW112512   4.462   2.904   0.386  0.5775 -1.4337  0.4687
 3868SOL    HW212513   4.362   2.902   0.272  0.6479 -0.7354  0.3918
 3869SOL     OW12514   5.791   3.051   2.173  0.5431 -0.4077  0.0132
 3869SOL    HW112515   5.769   3.095   2.091  0.4141  0.2420  0.3956
 3869SOL    HW212516   5.749   2.965   2.165  1.6634 -0.8929 -1.1836
 3870SOL     OW12517   0.888   6.458   1.866  0.3509  0.4274  0.5367
 3870SOL    HW112518   0.947   6.423   1.799  0.1109  0.9800  0.0298
 3870SOL    HW212519   0.894   6.553   1.856  0.2346  0.5144  1.2335
 3871SOL     OW12520   6.514   5.898   5.807  0.2284  0.6152 -0.2568
 3871SOL    HW112521   6.598   5.940   5.822  0.9182 -0.0983 -1.9069
 3871SOL    HW212522   6.458   5.967   5.771 -0.4402  1.4910  2.2345
 3872SOL     OW12523   0.035   4.615   7.260  0.2532  0.3333 -0.3657
 3872SOL    HW112524   0.086   4.695   7.276  0.5020 -0.0491  0.8044
 3872SOL    HW212525  -0.046   4.628   7.310  1.3687 -1.2124  1.9704
 3873SOL     OW12526   6.725   0.036   6.714 -0.5471  0.1667  0.7417
 3873SOL    HW112527   6.679   0.063   6.794 -0.5578 -3.8417  2.2774
 3873SOL    HW212528   6.655   0.027   6.649 -0.6508  2.5370  0.4061
 3874SOL     OW12529   4.470   7.683   5.871 -0.1866  0.0532  0.3883
 3874SOL    HW112530   4.414   7.750   5.910 -0.0310  0.0602  0.6030
 3874SOL    HW212531   4.499   7.720   5.788  0.8505  0.7395  1.0413
 3875SOL     OW12532   7.217   0.211   2.727 -0.6825 -0.0330 -0.0071
 3875SOL    HW112533   7.153   0.140   2.718 -0.6047 -0.0440 -0.5442
 3875SOL    HW212534   7.234   0.217   2.821 -0.5093 -0.8890  0.0208
 3876SOL     OW12535   7.170   5.390   2.972  0.0907 -0.5034  0.0660
 3876SOL    HW112536   7.113   5.345   3.035  0.6995 -1.9875 -0.3934
 3876SOL    HW212537   7.202   5.320   2.915 -0.6100  0.8080 -2.0443
 3877SOL     OW12538   7.295   7.674   7.640  0.0225  0.0360 -0.2479
 3877SOL    HW112539   7.251   7.756   7.618  0.5763  0.7329  1.1284
 3877SOL    HW212540   7.288   7.668   7.735 -0.8296 -1.9969 -0.3915
 3878SOL     OW12541   7.703   3.654   5.093 -0.0139  0.0127 -0.0384
 3878SOL    HW112542   7.787   3.609   5.101 -0.7718 -1.2434  1.2954
 3878SOL    HW212543   7.694   3.704   5.174 -0.5719  0.0839 -0.1358
 3879SOL     OW12544   6.368   3.111   7.524 -0.2089  0.1895  0.2935
 3879SOL    HW112545   6.379   3.138   7.615  0.8337  1.6957 -0.2402
 3879SOL    HW212546   6.431   3.040   7.512  0.4866  0.7851  0.4287
 3880SOL     OW12547   0.097   6.439   5.556 -0.5887 -0.1780 -0.0964
 3880SOL    HW112548   0.147   6.471   5.631  0.4483 -2.6874  0.3672
 3880SOL    HW212549   0.161   6.436   5.485 -0.4238 -1.9836  0.1040
 3881SOL     OW12550   5.968   1.327   0.622  0.0992 -0.5545  0.2892
 3881SOL    HW112551   5.898   1.391   0.612 -1.2573 -1.9921  0.1394
 3881SOL    HW212552   6.020   1.335   0.543 -1.0213 -0.7280 -0.4888
 3882SOL     OW12553   7.456   3.396   7.291 -0.2937 -1.1913 -0.2788
 3882SOL    HW112554   7.407   3.409   7.372 -0.6104 -0.0829 -0.6272
 3882SOL    HW212555   7.436   3.474   7.239 -0.2511 -1.9822 -1.5015
 3883SOL     OW12556   0.850   5.099   4.610  0.3111 -0.5637  0.6854
 3883SOL    HW112557   0.848   5.093   4.706  1.9983  0.9335  0.8553
 3883SOL    HW212558   0.924   5.156   4.591 -1.1660  0.7659 -1.4555
 3884SOL     OW12559   6.093   1.307   3.833  0.4212 -0.1569  0.1627
 3884SOL    HW112560   6.118   1.238   3.772  0.3446  1.0308 -1.2681
 3884SOL    HW212561   6.079   1.384   3.778 -1.2031  0.5754  1.4911
 3885SOL     OW12562   3.449   2.095   3.469  0.4771  0.6143 -0.2065
 3885SOL    HW112563   3.425   2.004   3.451 -0.3745  1.0476 -1.4014
 3885SOL    HW212564   3.528   2.089   3.523  2.7702 -0.8776 -3.3822
 3886SOL     OW12565   3.668   0.468   5.730  0.7590 -0.5977  0.2466
 3886SOL    HW112566   3.733   0.448   5.798  0.0973 -0.2066  1.0165
 3886SOL    HW212567   3.654   0.562   5.738  0.3568 -0.6211 -0.1547
 3887SOL     OW12568   2.467   3.048   3.931 -0.1424  0.3304 -0.2429
 3887SOL    HW112569   2.550   3.021   3.969 -0.8852  0.7106  1.7929
 3887SOL    HW212570   2.485   3.057   3.837  2.2876  1.0818  0.2198
 3888SOL     OW12571   2.196   4.748   7.273 -0.3688 -0.0207 -0.3485
 3888SOL    HW112572   2.215   4.741   7.180  0.8069  1.5010 -0.2728
 3888SOL    HW212573   2.108   4.714   7.283 -0.5514 -0.1090 -2.0317
 3889SOL     OW12574   3.607   1.517   7.392  0.0748  0.2077 -0.3579
 3889SOL    HW112575   3.622   1.612   7.402  0.5674  0.0041  0.9896
 3889SOL    HW212576   3.513   1.506   7.402 -0.1749  0.6925 -1.8839
 3890SOL     OW12577   0.849   5.965   2.406  0.2695  0.1031 -0.2884
 3890SOL    HW112578   0.826   5.883   2.362  3.2823 -0.2284 -1.4803
 3890SOL    HW212579   0.897   5.938   2.484 -0.4418  0.7342  0.3736
 3891SOL     OW12580   3.022   1.190   7.058 -0.4357  0.3241 -0.1565
 3891SOL    HW112581   3.072   1.211   6.979  2.8325 -0.7895  1.4521
 3891SOL    HW212582   3.006   1.096   7.051  1.3165 -0.1257  1.1535
 3892SOL     OW12583   5.923   1.986   5.914 -0.0464 -0.0495  0.1704
 3892SOL    HW112584   5.873   1.943   5.844 -2.5005  1.4111  0.8953
 3892SOL    HW212585   5.971   1.914   5.956 -1.0540 -1.4696 -0.9842
 3893SOL     OW12586   3.757   6.556   4.052 -0.6611 -0.4907  0.4977
 3893SOL    HW112587   3.809   6.476   4.062  0.3212  0.3974  3.5541
 3893SOL    HW212588   3.819   6.620   4.016 -0.3172 -0.1410  1.6567
 3894SOL     OW12589   0.854   5.027   6.521 -0.2128 -0.0289  0.4242
 3894SOL    HW112590   0.839   5.029   6.426  1.3095  1.2190  0.1542
 3894SOL    HW212591   0.896   4.943   6.537  0.3869  0.1484 -0.1796
 3895SOL     OW12592   3.802   6.983   5.998  0.7836  0.7526 -0.4492
 3895SOL    HW112593   3.738   7.054   5.992  1.2426  1.2448  0.3027
 3895SOL    HW212594   3.871   7.008   5.937 -0.0815 -0.1646 -1.8447
 3896SOL     OW12595   5.078   5.009   0.031  0.1625 -0.3450  0.3556
 3896SOL    HW112596   5.138   5.040   0.099  1.9329 -0.9827 -0.8433
 3896SOL    HW212597   5.104   4.918   0.016 -1.7312 -0.9462  0.4155
 3897SOL     OW12598   4.563   1.068   5.927 -0.3120 -0.1138 -0.1686
 3897SOL    HW112599   4.577   1.100   5.838  2.9058 -0.3849  0.1142
 3897SOL    HW212600   4.545   1.147   5.978 -0.6947  0.2302 -0.8271
 3898SOL     OW12601   5.824   1.676   5.266 -0.5057  0.1713 -0.1621
 3898SOL    HW112602   5.821   1.606   5.200 -0.4472  0.4494 -0.4626
 3898SOL    HW212603   5.735   1.712   5.265 -0.1645  1.0294 -1.0240
 3899SOL     OW12604   6.847   0.693   5.009 -0.2894  0.1610  0.0923
 3899SOL    HW112605   6.878   0.782   5.028 -1.7402  0.5174  0.9650
 3899SOL    HW212606   6.880   0.640   5.082  0.5365 -0.0264 -0.4042
 3900SOL     OW12607   4.364   4.358   6.757  0.4815  0.3724  0.6485
 3900SOL    HW112608   4.391   4.270   6.781  0.1144  0.3926  1.1564
 3900SOL    HW212609   4.400   4.372   6.670 -0.8596 -0.9033 -0.1468
 3901SOL     OW12610   6.435   2.181   0.196 -0.4109  0.1727  0.2478
 3901SOL    HW112611   6.372   2.111   0.212 -0.6010  0.6227  1.5873
 3901SOL    HW212612   6.521   2.140   0.208 -0.2990 -0.7849 -2.9076
 3902SOL     OW12613   0.979   1.902   2.007  0.6249  0.5321 -0.1363
 3902SOL    HW112614   0.917   1.941   2.068  1.0266  0.8473  0.0764
 3902SOL    HW212615   1.063   1.906   2.052  0.7709 -0.0926 -0.3304
 3903SOL     OW12616   3.290   6.842   0.988 -0.0227  0.3193 -0.0885
 3903SOL    HW112617   3.263   6.752   0.970  0.1032  0.7547 -3.0757
 3903SOL    HW212618   3.386   6.837   0.995 -0.1578 -0.0220  1.7375
 3904SOL     OW12619   1.858   7.261   7.705 -0.3597 -0.3062  0.6573
 3904SOL    HW112620   1.801   7.304   7.641  0.1195  0.6916  0.8913
 3904SOL    HW212621   1.797   7.229   7.772 -0.8139 -0.9033 -0.0161
 3905SOL     OW12622   3.053   5.656   2.191 -0.1924 -0.4925  0.1709
 3905SOL    HW112623   2.996   5.651   2.114 -0.2229  1.1402  0.0578
 3905SOL    HW212624   3.044   5.570   2.233 -1.4770 -0.8266 -0.7160
 3906SOL     OW12625   6.025   5.120   6.757 -0.4429  0.0170  0.2628
 3906SOL    HW112626   6.006   5.206   6.794  1.2902  0.4674  0.1711
 3906SOL    HW212627   6.046   5.137   6.666 -1.7936 -0.7439 -0.2175
 3907SOL     OW12628   0.007   2.011   5.029  0.4617 -0.2275 -0.4467
 3907SOL    HW112629   0.095   1.991   5.064  0.4206  0.3178 -0.0095
 3907SOL    HW212630  -0.001   1.955   4.952 -0.1035 -2.7707  1.3323
 3908SOL     OW12631   6.797   5.237   6.557 -0.0732 -0.3427 -0.0824
 3908SOL    HW112632   6.741   5.163   6.579  0.3380 -0.1963  1.6203
 3908SOL    HW212633   6.737   5.310   6.544 -0.3454 -0.3565  1.0107
 3909SOL     OW12634   1.001   4.853   4.905 -0.1749 -0.3640  0.6843
 3909SOL    HW112635   0.983   4.947   4.917 -1.5397 -0.7347  1.8642
 3909SOL    HW212636   1.026   4.845   4.813  0.7396  1.2622  0.7656
 3910SOL     OW12637   4.600   7.405   3.749  0.2331 -0.2226 -0.1400
 3910SOL    HW112638   4.644   7.474   3.800  0.2890  0.4565 -1.0727
 3910SOL    HW212639   4.667   7.339   3.736  0.4958  0.0377 -0.1278
 3911SOL     OW12640   0.516   3.336   5.726  0.4518 -0.4280  0.0274
 3911SOL    HW112641   0.506   3.243   5.708  1.2914 -0.5192  0.0196
 3911SOL    HW212642   0.556   3.341   5.812  1.0956 -0.0976 -0.2804
 3912SOL     OW12643   1.436   7.268   2.338  0.0841 -0.1014 -0.1866
 3912SOL    HW112644   1.352   7.227   2.362  0.7104 -1.3652 -0.0752
 3912SOL    HW212645   1.474   7.295   2.422 -1.0649  2.3229 -0.3501
 3913SOL     OW12646   5.214   3.134   4.398  0.6394 -0.4387  0.7853
 3913SOL    HW112647   5.241   3.120   4.489  0.1026 -0.1019  1.0036
 3913SOL    HW212648   5.192   3.227   4.394 -0.9766 -0.8015  0.7545
 3914SOL     OW12649   4.483   7.303   1.001 -0.4728  0.6491  0.1290
 3914SOL    HW112650   4.556   7.275   0.946 -0.5524 -0.0066  0.3375
 3914SOL    HW212651   4.490   7.398   1.006 -0.8711  0.8001 -1.5819
 3915SOL     OW12652   7.524   0.804   6.189 -0.3823  0.5137 -0.0144
 3915SOL    HW112653   7.561   0.726   6.148 -0.2568  1.5801 -2.0733
 3915SOL    HW212654   7.582   0.823   6.263 -0.7059 -1.5708  0.8496
 3916SOL     OW12655   2.361   6.731   0.638  0.2651  0.8261  0.3699
 3916SOL    HW112656   2.355   6.810   0.692  0.6348  1.0742  0.0551
 3916SOL    HW212657   2.449   6.697   0.655 -0.0848  0.1771  0.9171
 3917SOL     OW12658   5.016   5.325   6.817 -0.2166 -0.3585  0.1747
 3917SOL    HW112659   5.079   5.259   6.789  0.6203  0.1299  0.8539
 3917SOL    HW212660   5.054   5.362   6.897 -1.2558  0.1081  0.4712
 3918SOL     OW12661   0.102   7.056   4.049  0.1322 -0.0779  0.1324
 3918SOL    HW112662   0.111   7.067   3.954  0.4716  0.8122  0.2625
 3918SOL    HW212663   0.189   7.070   4.084  0.4668 -2.4581  0.4292
 3919SOL     OW12664   2.961   7.143   5.175 -0.3542  0.2959  0.0377
 3919SOL    HW112665   3.005   7.227   5.187 -1.7027  0.9233  0.8867
 3919SOL    HW212666   2.886   7.163   5.119 -0.3945 -0.4543 -0.1931
 3920SOL     OW12667   2.051   3.771   2.028  0.5860 -0.4236  0.8330
 3920SOL    HW112668   2.142   3.741   2.036  0.3853 -0.9366  1.2502
 3920SOL    HW212669   2.005   3.725   2.098  0.0735  0.1119  0.8493
 3921SOL     OW12670   2.605   7.437   0.456  0.3195 -0.0217 -0.4400
 3921SOL    HW112671   2.540   7.440   0.387  0.0523  2.2110 -0.1563
 3921SOL    HW212672   2.570   7.494   0.525  1.3196 -0.9252  0.8784
 3922SOL     OW12673   2.338   3.019   3.227  0.2894  0.0912 -0.3806
 3922SOL    HW112674   2.388   3.062   3.157 -0.3712  1.6684  0.0726
 3922SOL    HW212675   2.393   2.946   3.255  0.4981 -0.6937 -2.6474
 3923SOL     OW12676   6.929   6.020   7.246 -0.0025 -0.1606  0.1905
 3923SOL    HW112677   6.999   6.085   7.254  1.3930 -1.6600  0.6759
 3923SOL    HW212678   6.972   5.942   7.211 -1.5138 -1.0235  0.1623
 3924SOL     OW12679   2.284   6.964   5.359  0.3035  0.6132  1.0203
 3924SOL    HW112680   2.356   7.013   5.399  0.7525 -0.6490  1.7863
 3924SOL    HW212681   2.274   6.886   5.414 -0.9890  0.2706  0.3413
 3925SOL     OW12682   5.227   0.775   4.143 -0.4363  0.0867  0.1413
 3925SOL    HW112683   5.321   0.764   4.158 -0.4960 -0.0841  0.4061
 3925SOL    HW212684   5.194   0.813   4.225 -0.6017  0.1224  0.0581
 3926SOL     OW12685   7.336   0.948   2.292 -0.0288  0.8176  0.0707
 3926SOL    HW112686   7.278   0.946   2.368 -1.3559 -1.1343 -0.9020
 3926SOL    HW212687   7.420   0.916   2.324 -0.8681 -1.0562  0.5474
 3927SOL     OW12688   5.144   5.816   1.976  0.3456  0.1516  0.5128
 3927SOL    HW112689   5.096   5.892   2.008  0.2277  0.3507 -0.1316
 3927SOL    HW212690   5.097   5.741   2.013 -1.5383  0.2647 -1.4918
 3928SOL     OW12691   6.703   7.552   3.176  0.3292 -0.4024  0.3556
 3928SOL    HW112692   6.723   7.587   3.263  1.6179  1.1294 -0.5054
 3928SOL    HW212693   6.637   7.611   3.141  0.8184 -0.1946 -0.2285
 3929SOL     OW12694   2.391   5.263   2.080 -0.2059 -0.3927  0.0153
 3929SOL    HW112695   2.347   5.331   2.030  0.0960 -0.1713  0.0479
 3929SOL    HW212696   2.333   5.246   2.154  0.7816  1.5245  1.3296
 3930SOL     OW12697   5.472   7.630   4.439 -0.1648 -0.0121 -0.2234
 3930SOL    HW112698   5.435   7.651   4.525 -4.0113  2.3434 -2.1839
 3930SOL    HW212699   5.560   7.666   4.442  0.0643 -0.5608  2.8928
 3931SOL     OW12700   1.365   4.372   2.583  0.3083 -0.5374  0.8461
 3931SOL    HW112701   1.314   4.359   2.664 -0.2526 -0.2206  0.5488
 3931SOL    HW212702   1.302   4.356   2.513  0.5525  0.1107  0.4720
 3932SOL     OW12703   4.728   3.763   6.172 -0.7454 -0.4518  0.3300
 3932SOL    HW112704   4.739   3.668   6.164 -1.1324 -0.5375  0.7604
 3932SOL    HW212705   4.746   3.797   6.085  0.1476 -0.8497  0.3539
 3933SOL     OW12706   2.228   6.966   4.860 -0.4460 -0.1072  0.0989
 3933SOL    HW112707   2.238   7.040   4.800 -1.2823 -1.1608 -1.4198
 3933SOL    HW212708   2.294   6.902   4.832 -1.7508 -1.1793 -0.6714
 3934SOL     OW12709   2.281   0.621   4.095 -0.3741  0.7453 -0.3385
 3934SOL    HW112710   2.303   0.693   4.036  1.5964 -0.6128 -1.3479
 3934SOL    HW212711   2.264   0.663   4.179  1.5492  2.3560 -0.6904
 3935SOL     OW12712   6.304   3.496   2.669  0.3621 -0.3829 -0.2482
 3935SOL    HW112713   6.235   3.501   2.603 -0.0742 -0.9557  0.1637
 3935SOL    HW212714   6.261   3.460   2.746  0.6532  1.0896  0.6489
 3936SOL     OW12715   2.533   6.689   0.126 -0.5622  0.6514 -0.0698
 3936SOL    HW112716   2.622   6.696   0.093 -1.0302 -1.5047 -2.0294
 3936SOL    HW212717   2.540   6.711   0.219  1.9765  0.5838 -0.1727
 3937SOL     OW12718   3.180   7.130   2.685 -0.5383  0.1913 -0.4155
 3937SOL    HW112719   3.244   7.078   2.636 -0.2629  0.1435 -0.0096
 3937SOL    HW212720   3.161   7.078   2.763  0.6701  1.2472  0.6161
 3938SOL     OW12721   6.867   2.353   0.420  0.0872  0.0378 -0.1477
 3938SOL    HW112722   6.845   2.398   0.339 -0.9368  0.9896  0.6171
 3938SOL    HW212723   6.926   2.414   0.466 -0.5745  0.2273  0.4831
 3939SOL     OW12724   4.781   0.566   4.151 -0.5355 -0.3193 -0.4677
 3939SOL    HW112725   4.846   0.629   4.120 -0.2760  0.1097  0.8929
 3939SOL    HW212726   4.702   0.618   4.165 -0.0325 -0.0311  1.6522
 3940SOL     OW12727   3.517   6.155   7.309 -0.2979 -0.5777 -1.1233
 3940SOL    HW112728   3.432   6.133   7.348  0.8035 -0.5560  1.4603
 3940SOL    HW212729   3.581   6.129   7.374  1.4938  3.7113 -0.8671
 3941SOL     OW12730   5.812   3.522   1.683  0.9192  0.2727 -0.3724
 3941SOL    HW112731   5.779   3.583   1.748 -1.2698 -1.4319  0.2234
 3941SOL    HW212732   5.775   3.552   1.600  3.1520  2.0391 -0.8254
 3942SOL     OW12733   3.434   7.037   0.147 -0.1110  0.5147  0.5641
 3942SOL    HW112734   3.460   7.057   0.057  0.4112 -1.5730  0.1981
 3942SOL    HW212735   3.512   7.056   0.200 -0.0667  0.7185  0.4265
 3943SOL     OW12736   3.094   6.565   4.734 -0.3991  0.1018 -0.7772
 3943SOL    HW112737   3.177   6.597   4.768 -0.3367 -1.5033  0.7121
 3943SOL    HW212738   3.118   6.510   4.660 -0.1435 -0.1913 -0.4780
 3944SOL     OW12739   2.095   2.892   6.801  0.4664  0.0510 -0.2217
 3944SOL    HW112740   2.018   2.930   6.842  0.4563  1.4768 -1.4803
 3944SOL    HW212741   2.083   2.798   6.810 -0.6142  0.2780  1.0185
 3945SOL     OW12742   5.604   7.108   0.774  0.0379  0.0319  0.2630
 3945SOL    HW112743   5.672   7.098   0.707 -2.1058  2.2774 -2.5496
 3945SOL    HW212744   5.529   7.060   0.738 -1.0183  0.8175  1.3573
 3946SOL     OW12745   7.039   0.285   5.482  0.6134  0.0748 -0.2292
 3946SOL    HW112746   6.995   0.262   5.401 -1.9135  1.1826  0.7421
 3946SOL    HW212747   6.974   0.270   5.550  2.6809 -0.9254  1.6793
 3947SOL     OW12748   5.357   3.106   2.987  0.1954  0.1618 -0.0467
 3947SOL    HW112749   5.282   3.165   2.977 -0.2623 -0.5511 -1.0360
 3947SOL    HW212750   5.432   3.158   2.960 -0.2686  0.1628 -1.4243
 3948SOL     OW12751   1.862   0.457   4.232 -0.1056 -0.5463  0.2107
 3948SOL    HW112752   1.928   0.458   4.162 -0.0769  0.7760  0.2171
 3948SOL    HW212753   1.826   0.369   4.230 -0.3671 -0.4545 -1.7379
 3949SOL     OW12754   0.515   1.954   3.220  0.4690 -0.0019 -0.2103
 3949SOL    HW112755   0.606   1.924   3.224  0.6545  0.4354 -0.8888
 3949SOL    HW212756   0.488   1.962   3.311  1.0327 -0.3819 -0.0073
 3950SOL     OW12757   5.621   6.670   4.027  0.3234  0.0105  0.0218
 3950SOL    HW112758   5.681   6.689   3.955 -0.0268 -1.9410 -0.8564
 3950SOL    HW212759   5.673   6.616   4.087  0.0552  0.0523  0.2893
 3951SOL     OW12760   2.809   1.804   5.605  0.1532  0.6004  0.0805
 3951SOL    HW112761   2.785   1.836   5.692  0.2919 -0.1817  0.4106
 3951SOL    HW212762   2.726   1.800   5.557  0.0230  0.6479  0.3021
 3952SOL     OW12763   4.483   2.489   2.537 -0.4385  0.6075  0.1323
 3952SOL    HW112764   4.415   2.553   2.514  0.7423  2.2856  1.0625
 3952SOL    HW212765   4.456   2.453   2.621 -1.1162 -0.1621 -0.4021
 3953SOL     OW12766   5.329   1.401   2.369  0.4282 -0.3448 -0.4484
 3953SOL    HW112767   5.272   1.400   2.292 -0.0440  0.9435 -0.1380
 3953SOL    HW212768   5.361   1.491   2.374 -1.6418  0.3649  2.3401
 3954SOL     OW12769   6.630   1.280   0.508  0.8912  0.5206  0.1382
 3954SOL    HW112770   6.602   1.301   0.419 -0.2915 -1.2407  0.0582
 3954SOL    HW212771   6.710   1.229   0.497  1.3950  1.2705  0.1727
 3955SOL     OW12772   4.680   4.064   6.110  0.3394 -0.7016 -0.4017
 3955SOL    HW112773   4.676   3.974   6.142  1.4504  0.3176  3.0471
 3955SOL    HW212774   4.773   4.085   6.108  0.0545  0.6942 -0.0570
 3956SOL     OW12775   3.705   6.339   7.154 -0.5147 -0.3750 -0.1822
 3956SOL    HW112776   3.648   6.270   7.188 -1.4662  1.7773  3.0027
 3956SOL    HW212777   3.783   6.336   7.209  0.2098  0.0384 -1.1457
 3957SOL     OW12778   1.418   7.325   0.036  0.1663  0.4057 -0.2774
 3957SOL    HW112779   1.329   7.301   0.061  0.0540  1.3575  0.2709
 3957SOL    HW212780   1.451   7.248  -0.011 -0.3085 -0.6542  1.0704
 3958SOL     OW12781   1.932   5.490   6.090  0.0587 -0.1530 -0.5779
 3958SOL    HW112782   1.938   5.540   6.171  0.1204 -0.8186 -0.1632
 3958SOL    HW212783   1.926   5.556   6.021  1.2745  0.4443 -0.1417
 3959SOL     OW12784   3.656   1.160   7.227  0.3403  0.0832  0.3269
 3959SOL    HW112785   3.655   1.078   7.277 -0.1341 -0.5619 -0.7037
 3959SOL    HW212786   3.653   1.228   7.294  2.1924 -0.6912  1.2623
 3960SOL     OW12787   3.796   4.672   3.253 -0.2701  0.3407  0.2561
 3960SOL    HW112788   3.747   4.615   3.313 -0.2189  1.2802  1.2250
 3960SOL    HW212789   3.817   4.750   3.305  0.1954  0.9877 -0.8529
 3961SOL     OW12790   5.668   5.454   5.438 -0.1544  0.7272 -0.3346
 3961SOL    HW112791   5.627   5.384   5.387  1.3769 -1.2618  0.9781
 3961SOL    HW212792   5.744   5.480   5.385 -0.6669  1.3481 -0.7764
 3962SOL     OW12793   4.564   5.126   1.210  0.5529 -0.5060 -0.0831
 3962SOL    HW112794   4.603   5.131   1.123 -0.5884  1.2972 -0.5341
 3962SOL    HW212795   4.636   5.148   1.270  0.5861  1.6364 -0.8294
 3963SOL     OW12796   3.985   3.238   6.516 -0.0387  0.1684  0.5999
 3963SOL    HW112797   4.074   3.202   6.516 -0.8079 -1.8490  0.3902
 3963SOL    HW212798   3.973   3.271   6.605  0.8999  0.4581  0.6341
 3964SOL     OW12799   5.801   4.565   2.010  0.0093 -0.2988  0.0363
 3964SOL    HW112800   5.850   4.647   2.004 -2.2332  0.9869 -2.3122
 3964SOL    HW212801   5.869   4.497   2.002  1.6635  1.3544 -0.9773
 3965SOL     OW12802   5.371   0.186   4.254 -0.2844  0.2606 -0.1111
 3965SOL    HW112803   5.301   0.140   4.207  0.3892 -0.3962 -0.5005
 3965SOL    HW212804   5.406   0.248   4.191 -2.0701  2.3366  0.8181
 3966SOL     OW12805   2.842   6.653   6.734 -0.1360 -0.1762 -0.0321
 3966SOL    HW112806   2.921   6.645   6.788  1.2615 -0.8004 -2.0554
 3966SOL    HW212807   2.848   6.741   6.696 -1.1056  0.2552  0.7667
 3967SOL     OW12808   3.629   4.686   1.830  0.2926  0.4773 -0.1139
 3967SOL    HW112809   3.543   4.727   1.835  0.2382  0.2887  0.5686
 3967SOL    HW212810   3.638   4.661   1.737 -0.4694  0.3232 -0.1562
 3968SOL     OW12811   1.234   1.252   6.384 -0.0342 -0.2144 -0.1281
 3968SOL    HW112812   1.272   1.229   6.299 -1.7958 -0.2058 -0.9565
 3968SOL    HW212813   1.205   1.342   6.374 -3.2949 -1.2137 -0.7369
 3969SOL     OW12814   6.515   2.509   1.945 -0.9431  0.2729  0.3802
 3969SOL    HW112815   6.470   2.512   1.861 -1.1409  1.5810  0.5191
 3969SOL    HW212816   6.606   2.491   1.923 -0.9987  0.5753 -0.1111
 3970SOL     OW12817   7.398   0.533   5.857 -0.2932 -0.5274 -0.2716
 3970SOL    HW112818   7.339   0.561   5.927  1.7638  1.1158  0.9120
 3970SOL    HW212819   7.391   0.437   5.857  0.6031 -0.7273  3.1829
 3971SOL     OW12820   6.020   6.393   2.118 -0.3298 -0.1774 -0.1771
 3971SOL    HW112821   5.953   6.429   2.176 -0.4784 -1.2934  0.3775
 3971SOL    HW212822   5.972   6.335   2.059  0.1015 -0.7614  0.0387
 3972SOL     OW12823   0.506   6.728   7.300 -0.5005  0.4160 -0.4989
 3972SOL    HW112824   0.575   6.794   7.294  0.3029 -0.3513  0.0454
 3972SOL    HW212825   0.426   6.774   7.272  0.2027  1.3448 -1.0314
 3973SOL     OW12826   1.800   6.141   1.171  0.1083  0.3979  0.0622
 3973SOL    HW112827   1.780   6.125   1.078  0.4758  0.5427 -0.0448
 3973SOL    HW212828   1.760   6.068   1.217  0.5964 -0.1021 -0.2875
 3974SOL     OW12829   0.871   5.570   6.841  1.0137  0.6361 -0.1449
 3974SOL    HW112830   0.924   5.601   6.767 -0.7879  1.7161 -1.0534
 3974SOL    HW212831   0.800   5.634   6.847  0.9919  0.4567  2.4199
 3975SOL     OW12832   5.397   0.526   1.699 -0.3984  0.2477  0.1326
 3975SOL    HW112833   5.382   0.572   1.781  0.3493  2.2840 -0.8174
 3975SOL    HW212834   5.317   0.540   1.648 -0.9363 -1.1673  0.5220
 3976SOL     OW12835   5.065   1.882   1.795  0.3501 -0.1489  0.2633
 3976SOL    HW112836   5.004   1.937   1.844  1.9783  0.7779  1.3366
 3976SOL    HW212837   5.098   1.938   1.725 -0.6108 -0.9031 -0.8167
 3977SOL     OW12838   7.286   5.834   5.398  0.4011 -0.2145  0.3351
 3977SOL    HW112839   7.364   5.887   5.380 -0.8698  2.1216  1.3001
 3977SOL    HW212840   7.221   5.866   5.336 -0.1587 -1.3214  0.3345
 3978SOL     OW12841   7.627   0.577   2.236 -0.2779 -0.9427 -0.1229
 3978SOL    HW112842   7.670   0.548   2.317  2.1587  2.3549 -0.0045
 3978SOL    HW212843   7.647   0.508   2.173  2.2462 -1.2707  0.8815
 3979SOL     OW12844   6.532   2.027   3.772 -0.3451  0.0634 -0.5379
 3979SOL    HW112845   6.536   2.093   3.842 -2.1387 -0.2439 -0.0851
 3979SOL    HW212846   6.438   2.021   3.751 -0.3613 -2.9697  0.0570
 3980SOL     OW12847   2.099   5.396   0.859 -0.1357  0.0320 -0.7537
 3980SOL    HW112848   2.191   5.399   0.883 -0.4005  1.4520  0.2050
 3980SOL    HW212849   2.079   5.484   0.827 -1.6142  0.3785  0.9561
 3981SOL     OW12850   4.406   2.100   2.883 -0.2962  0.6550 -0.0482
 3981SOL    HW112851   4.339   2.165   2.903 -0.5785 -0.1612  1.8723
 3981SOL    HW212852   4.474   2.148   2.836 -1.8620  1.6547 -1.3815
 3982SOL     OW12853   3.175   4.578   5.790  0.0554  0.2840 -0.0119
 3982SOL    HW112854   3.199   4.524   5.866 -1.3174  2.1027  1.8169
 3982SOL    HW212855   3.083   4.558   5.774  0.3353 -0.0878 -1.2571
 3983SOL     OW12856   4.962   6.055   0.094 -0.1076 -0.1934 -0.0838
 3983SOL    HW112857   4.892   6.054   0.029 -0.3675  2.3315  0.0800
 3983SOL    HW212858   4.929   6.111   0.164  1.0881 -1.0055  1.1794
 3984SOL     OW12859   3.087   6.308   3.502 -0.2030  0.0857 -0.6334
 3984SOL    HW112860   3.051   6.225   3.534  1.2943 -0.4300 -0.2102
 3984SOL    HW212861   3.010   6.363   3.486 -1.1374 -0.6057  1.1948
 3985SOL     OW12862   4.541   6.418   5.436 -0.0115 -0.3069  0.1907
 3985SOL    HW112863   4.611   6.436   5.373  0.2997  2.8693  1.2413
 3985SOL    HW212864   4.586   6.384   5.513 -0.1208 -1.7846 -0.3560
 3986SOL     OW12865   5.940   2.130   2.283 -0.0337 -0.4218 -0.5818
 3986SOL    HW112866   5.902   2.119   2.196 -0.7732 -0.5574 -0.2527
 3986SOL    HW212867   5.965   2.223   2.286  0.2030 -0.4680 -1.0138
 3987SOL     OW12868   4.827   6.512   1.215  0.2050  0.2784 -0.4382
 3987SOL    HW112869   4.884   6.552   1.150  1.3984 -0.1292  0.3252
 3987SOL    HW212870   4.848   6.418   1.211 -1.6002 -0.1433 -1.2739
 3988SOL     OW12871   4.255   0.083   4.352  0.2886 -0.0362 -0.0389
 3988SOL    HW112872   4.176   0.042   4.389  0.5099  0.3833  0.9418
 3988SOL    HW212873   4.244   0.176   4.372 -0.8573  0.6645 -3.4141
 3989SOL     OW12874   0.639   4.157   6.201  0.4477  0.6152  0.2156
 3989SOL    HW112875   0.668   4.093   6.136 -0.0303 -1.5033  1.9408
 3989SOL    HW212876   0.547   4.173   6.180  0.3642  0.1348  0.1949
 3990SOL     OW12877   7.202   5.251   5.390  0.7720  0.0763 -0.3295
 3990SOL    HW112878   7.167   5.166   5.420  0.2208  0.2359 -0.5070
 3990SOL    HW212879   7.128   5.311   5.399  1.2732  0.6266  0.1559
 3991SOL     OW12880   7.630   6.944   7.529 -0.2148 -0.5445  0.0641
 3991SOL    HW112881   7.546   6.980   7.502 -0.1104  0.8488  1.4461
 3991SOL    HW212882   7.623   6.936   7.624  0.2001 -3.1554 -0.0486
 3992SOL     OW12883   4.082   3.681   6.756  0.1460  0.7517  0.1141
 3992SOL    HW112884   4.010   3.681   6.693 -0.8247  1.4103  1.1924
 3992SOL    HW212885   4.140   3.611   6.726 -0.9133  0.2277 -0.7865
 3993SOL     OW12886   2.361   0.685   0.892  0.4665 -0.1676  0.0249
 3993SOL    HW112887   2.445   0.726   0.875 -0.3974  0.7417 -2.6040
 3993SOL    HW212888   2.362   0.605   0.839 -0.5265  0.1494 -0.4898
 3994SOL     OW12889   6.541   0.656   0.213 -0.0118  0.0840 -0.0553
 3994SOL    HW112890   6.480   0.600   0.260 -1.6302  2.8614  1.4297
 3994SOL    HW212891   6.623   0.651   0.262 -0.3656 -0.3699  0.4849
 3995SOL     OW12892   2.855   1.579   1.046 -0.6314 -0.3075 -0.3292
 3995SOL    HW112893   2.900   1.518   1.105 -0.8416 -0.0327  0.1175
 3995SOL    HW212894   2.913   1.584   0.970  0.0535 -0.0493  0.1879
 3996SOL     OW12895   5.819   6.085   5.030  0.4712  0.0685  0.1556
 3996SOL    HW112896   5.826   6.012   4.969 -1.2951 -0.3773  0.4252
 3996SOL    HW212897   5.780   6.048   5.109 -0.1258  1.2215  0.4253
 3997SOL     OW12898   4.458   1.816   4.946  0.0501  0.1543  0.2809
 3997SOL    HW112899   4.500   1.776   5.022  0.8616 -0.3510 -0.4161
 3997SOL    HW212900   4.530   1.851   4.894 -0.4185 -0.1812 -0.6326
 3998SOL     OW12901   4.883   3.921   3.537  0.0994 -0.0612  0.0787
 3998SOL    HW112902   4.796   3.916   3.496 -0.5940  0.5372  1.4157
 3998SOL    HW212903   4.888   3.843   3.592 -0.4482  0.9107  1.5595
 3999SOL     OW12904   1.014   5.562   0.224  0.1652  0.0228 -0.6635
 3999SOL    HW112905   1.085   5.540   0.163  0.4808  1.3934 -0.8252
 3999SOL    HW212906   1.000   5.656   0.210  1.7521  0.9458  2.8807
 4000SOL     OW12907   0.828   4.693   5.477  0.4128 -0.0660  0.3740
 4000SOL    HW112908   0.817   4.734   5.390 -0.5992 -2.7054 -0.8490
 4000SOL    HW212909   0.918   4.662   5.477  0.0269 -1.2639 -0.3563
 4001SOL     OW12910   2.346   0.955   7.162  0.1445 -0.7102  0.4377
 4001SOL    HW112911   2.315   0.923   7.247  1.3441 -0.9602  0.7901
 4001SOL    HW212912   2.410   0.890   7.133  0.2230 -0.2934 -0.3604
 4002SOL     OW12913   7.604   2.827   4.272 -0.4174 -0.5160 -0.1291
 4002SOL    HW112914   7.609   2.922   4.277 -2.6951 -0.2915 -0.9613
 4002SOL    HW212915   7.601   2.808   4.178  0.0032 -1.4187  0.0247
 4003SOL     OW12916   1.920   4.346   5.497  0.5509  0.3540 -0.1403
 4003SOL    HW112917   1.867   4.361   5.418 -0.4043  1.0461  0.6118
 4003SOL    HW212918   1.868   4.284   5.549 -0.1276  1.9145  1.1304
 4004SOL     OW12919   0.076   7.453   5.673  0.3671  0.0441 -0.4257
 4004SOL    HW112920   0.094   7.437   5.766  0.3804 -0.6874 -0.5510
 4004SOL    HW212921   0.125   7.385   5.627  0.1329  0.2331 -0.9594
 4005SOL     OW12922   0.557   3.069   3.468  0.9545  0.2826  0.3131
 4005SOL    HW112923   0.471   3.109   3.459  0.2763 -1.4040 -1.5119
 4005SOL    HW212924   0.604   3.126   3.529 -1.9911  0.2884  2.8372
 4006SOL     OW12925   3.252   2.055   5.766 -0.3670  0.3708 -0.6995
 4006SOL    HW112926   3.217   2.126   5.821 -2.7773  0.6681 -2.4430
 4006SOL    HW212927   3.345   2.076   5.756 -0.7045  2.5013  0.0076
 4007SOL     OW12928   0.485   0.966   3.459 -0.3016 -0.2660 -0.3321
 4007SOL    HW112929   0.411   1.015   3.423 -0.2769 -0.7263 -1.0397
 4007SOL    HW212930   0.560   0.993   3.406 -0.4474 -1.7057 -1.3521
 4008SOL     OW12931   7.317   5.815   7.022 -0.1652 -0.1379 -0.5317
 4008SOL    HW112932   7.223   5.801   7.030 -0.1115  0.6336  3.1221
 4008SOL    HW212933   7.355   5.727   7.033 -0.4357  0.0006  2.1991
 4009SOL     OW12934   6.778   0.956   4.078  0.0008  0.1526 -0.0503
 4009SOL    HW112935   6.777   1.038   4.029 -2.2817  0.3288  0.1807
 4009SOL    HW212936   6.800   0.889   4.013 -0.6054  0.6658 -0.7960
 4010SOL     OW12937   2.958   6.349   4.221 -0.5205 -0.2175  0.1040
 4010SOL    HW112938   2.979   6.443   4.217 -2.9355  0.3231 -1.9703
 4010SOL    HW212939   2.868   6.346   4.253 -0.9311 -1.7364 -1.1094
 4011SOL     OW12940   4.594   3.603   2.683 -0.2012  0.4144 -0.2237
 4011SOL    HW112941   4.684   3.574   2.668  0.4077  0.9013  2.0492
 4011SOL    HW212942   4.597   3.697   2.671  0.0915  0.6906  1.7032
 4012SOL     OW12943   3.157   2.908   4.353 -0.0195  0.3220 -0.2998
 4012SOL    HW112944   3.092   2.840   4.336 -0.8885 -0.1044  3.8511
 4012SOL    HW212945   3.237   2.861   4.374 -0.0143  0.6446  0.4266
 4013SOL     OW12946   0.627   4.614   2.082 -0.2030  0.2859  0.3982
 4013SOL    HW112947   0.556   4.552   2.066 -1.3976  1.6289  0.2750
 4013SOL    HW212948   0.703   4.574   2.040 -0.7891 -1.3570  0.8397
 4014SOL     OW12949   0.577   1.808   7.695 -0.0867  0.1626  0.3529
 4014SOL    HW112950   0.618   1.788   7.611  0.2451 -0.1109  0.5747
 4014SOL    HW212951   0.629   1.759   7.759  0.8587  1.8238  0.9387
 4015SOL     OW12952   3.872   1.612   2.319  0.1728  0.5476 -0.7818
 4015SOL    HW112953   3.788   1.640   2.354  0.9222  2.8063 -0.6039
 4015SOL    HW212954   3.924   1.589   2.396 -0.6098 -2.0579 -0.9552
 4016SOL     OW12955   1.619   3.832   3.796 -0.0267  0.0272  0.0397
 4016SOL    HW112956   1.613   3.855   3.703  2.1333  0.2971 -0.0743
 4016SOL    HW212957   1.566   3.899   3.840  1.1609  1.5937 -0.8075
 4017SOL     OW12958   3.345   4.154   1.823 -0.0216  0.5591  0.0462
 4017SOL    HW112959   3.431   4.195   1.829  0.8179 -0.9551 -0.9290
 4017SOL    HW212960   3.283   4.228   1.823  1.2131  1.6457  1.3173
 4018SOL     OW12961   2.464   3.712   4.960 -0.0946 -0.2033 -0.0282
 4018SOL    HW112962   2.501   3.758   4.885 -2.6230 -2.1481 -2.6971
 4018SOL    HW212963   2.504   3.754   5.036  1.3322  3.0718 -2.3540
 4019SOL     OW12964   4.710   1.597   0.269 -0.0933  0.8487  0.4381
 4019SOL    HW112965   4.704   1.677   0.218  0.2824 -0.5739 -2.0195
 4019SOL    HW212966   4.795   1.560   0.246 -0.7233 -0.8064  0.5713
 4020SOL     OW12967   0.792   7.388   0.429 -0.4384 -0.2594 -0.0216
 4020SOL    HW112968   0.832   7.423   0.349 -1.4672 -0.6679 -0.7448
 4020SOL    HW212969   0.698   7.394   0.413 -0.6646 -2.1732  0.3270
 4021SOL     OW12970   5.158   1.176   5.289  0.2666  0.1344  0.3797
 4021SOL    HW112971   5.153   1.228   5.369 -0.3673  0.4721  0.1268
 4021SOL    HW212972   5.252   1.160   5.276  0.3213 -1.0232  1.8793
 4022SOL     OW12973   0.927   0.022   0.829 -0.3042  0.7469  0.6907
 4022SOL    HW112974   0.841  -0.016   0.847  0.8051 -2.1473  0.4427
 4022SOL    HW212975   0.934   0.024   0.734 -0.0956  1.0352  0.7089
 4023SOL     OW12976   4.668   0.955   0.353 -0.2146 -0.3408 -0.4222
 4023SOL    HW112977   4.658   1.048   0.335 -0.3687 -0.3921 -0.6142
 4023SOL    HW212978   4.761   0.942   0.366 -0.1639 -0.2026 -0.6444
 4024SOL     OW12979   0.378   4.769   6.343  0.1944 -0.4426  0.3938
 4024SOL    HW112980   0.432   4.709   6.395  0.3738 -0.0794  0.6323
 4024SOL    HW212981   0.354   4.839   6.404  1.3281  0.5718 -0.2672
 4025SOL     OW12982   3.002   6.222   6.128 -0.0188  0.5713 -0.3768
 4025SOL    HW112983   2.985   6.205   6.036 -0.0302  1.0582 -0.4654
 4025SOL    HW212984   2.915   6.228   6.169 -0.0439  1.5355 -0.5528
 4026SOL     OW12985   6.861   4.755   2.954  0.5355 -0.0794  0.3789
 4026SOL    HW112986   6.892   4.744   3.044  0.3005 -2.3959  0.2319
 4026SOL    HW212987   6.777   4.710   2.952 -0.7902  2.2603 -0.3776
 4027SOL     OW12988   0.551   4.908   7.432  0.3012 -0.5163 -0.3535
 4027SOL    HW112989   0.510   4.978   7.482  0.8465 -1.3216  1.3265
 4027SOL    HW212990   0.643   4.932   7.427  0.0564  0.1865 -2.1580
 4028SOL     OW12991   6.975   2.711   5.438 -0.2320  0.2062  0.3622
 4028SOL    HW112992   6.917   2.778   5.402  0.2254  0.7399  0.5940
 4028SOL    HW212993   7.005   2.661   5.362  0.8198  1.3980 -0.0539
 4029SOL     OW12994   3.716   1.845   3.244  0.3877  0.5634 -0.3459
 4029SOL    HW112995   3.677   1.833   3.330 -1.7190  0.5136 -1.2638
 4029SOL    HW212996   3.755   1.932   3.247  1.7203 -0.0196  1.1198
 4030SOL     OW12997   6.834   0.040   3.678  0.0991 -0.2891  0.1791
 4030SOL    HW112998   6.900   0.107   3.662 -0.9793  0.6182 -0.6724
 4030SOL    HW212999   6.881  -0.043   3.672  0.8907  0.2511 -2.0656
 4031SOL     OW13000   1.248   5.975   0.280 -0.2006  0.1393 -0.2164
 4031SOL    HW113001   1.323   6.032   0.300 -0.1855  1.8201 -4.1317
 4031SOL    HW213002   1.285   5.887   0.280  1.0626  0.6347  0.8223
 4032SOL     OW13003   5.167   5.255   3.346  0.4408  0.3188  0.0901
 4032SOL    HW113004   5.228   5.190   3.379  1.2741  1.0703  0.0686
 4032SOL    HW213005   5.170   5.245   3.251  0.5120  0.3395  0.0902
 4033SOL     OW13006   7.586   4.435   5.049  0.2423  0.2221 -0.5387
 4033SOL    HW113007   7.653   4.485   5.001  0.6250  0.4951  0.2471
 4033SOL    HW213008   7.632   4.405   5.128  0.0205 -1.3971 -0.9914
 4034SOL     OW13009   1.689   4.770   1.374 -0.1989  0.0027  0.6508
 4034SOL    HW113010   1.649   4.760   1.288  0.1794  0.9585  0.3553
 4034SOL    HW213011   1.783   4.768   1.358 -0.1128 -1.3425  1.2363
 4035SOL     OW13012   3.046   0.349   5.956 -0.4967 -0.0671  0.5798
 4035SOL    HW113013   3.029   0.332   5.864  0.9561  0.0148  0.2674
 4035SOL    HW213014   2.996   0.428   5.976  0.0273  0.5505 -0.4529
 4036SOL     OW13015   7.432   5.156   4.096 -0.1958 -0.0837  0.8422
 4036SOL    HW113016   7.491   5.231   4.085  1.7119 -1.4201  1.3935
 4036SOL    HW213017   7.402   5.162   4.186  2.5073 -1.6088  1.9764
 4037SOL     OW13018   1.167   4.107   6.010  0.1672  0.1340  0.4167
 4037SOL    HW113019   1.187   4.111   6.104 -0.0987  1.6429  0.4441
 4037SOL    HW213020   1.224   4.173   5.971  0.1415 -0.3523 -0.4665
 4038SOL     OW13021   7.285   0.990   5.928 -0.2374  0.4244 -0.1778
 4038SOL    HW113022   7.344   0.961   5.859 -1.1178 -0.1742 -0.6912
 4038SOL    HW213023   7.253   1.075   5.897 -0.0648  0.5016 -0.1484
 4039SOL     OW13024   0.509   2.680   5.965 -0.0683  0.0666  0.2808
 4039SOL    HW113025   0.552   2.745   5.910  1.2059 -0.8205  0.1947
 4039SOL    HW213026   0.541   2.698   6.053 -2.4553  1.7824  0.9062
 4040SOL     OW13027   1.936   0.677   4.398 -0.5008 -0.3068 -0.7564
 4040SOL    HW113028   1.908   0.614   4.332 -0.4432 -0.2695 -0.8167
 4040SOL    HW213029   1.881   0.658   4.474 -0.0326 -0.8763 -0.5451
 4041SOL     OW13030   4.627   6.470   5.917 -0.3018 -0.0247 -0.1627
 4041SOL    HW113031   4.560   6.431   5.973  0.9829  0.8923  2.1160
 4041SOL    HW213032   4.689   6.400   5.900 -0.4926 -0.2039 -0.1189
 4042SOL     OW13033   6.506   3.991   7.579  0.7759  0.0093 -0.1872
 4042SOL    HW113034   6.590   3.947   7.584  1.2925  0.7944 -1.4341
 4042SOL    HW213035   6.453   3.936   7.522  0.9695  0.2821 -0.6405
 4043SOL     OW13036   0.516   2.735   1.996  0.0277  0.3570 -0.0593
 4043SOL    HW113037   0.422   2.750   2.006  0.3319  1.2772  2.0773
 4043SOL    HW213038   0.527   2.642   2.012 -0.6612 -0.0884 -1.9621
 4044SOL     OW13039   1.183   6.863   5.035  0.0963 -0.0130  0.5080
 4044SOL    HW113040   1.094   6.831   5.020  0.0120  1.2196 -2.1793
 4044SOL    HW213041   1.180   6.955   5.009  1.5547  0.8643  3.0857
 4045SOL     OW13042   1.230   7.131   6.131  0.0207 -0.5111  0.3034
 4045SOL    HW113043   1.156   7.110   6.188 -0.6394  0.5688 -0.1277
 4045SOL    HW213044   1.295   7.170   6.189 -0.7115  0.7271  0.3055
 4046SOL     OW13045   2.724   5.306   6.365 -0.1797  0.1663 -0.3712
 4046SOL    HW113046   2.708   5.224   6.318  1.9723 -0.7296  0.3528
 4046SOL    HW213047   2.752   5.367   6.297 -0.3736 -0.1098 -0.7058
 4047SOL     OW13048   2.699   7.606   1.636 -0.0542  0.0751  0.6625
 4047SOL    HW113049   2.784   7.562   1.623  0.2160  0.8927 -0.4649
 4047SOL    HW213050   2.698   7.629   1.729  0.8198 -0.2174  0.7557
 4048SOL     OW13051   6.625   0.367   0.599 -0.7199  0.2652 -0.0966
 4048SOL    HW113052   6.719   0.384   0.607 -0.7087 -0.3130  1.5124
 4048SOL    HW213053   6.585   0.453   0.596 -0.2097  0.5355  0.5638
 4049SOL     OW13054   7.496   0.010   1.450 -0.2731 -0.0953 -0.6344
 4049SOL    HW113055   7.404   0.034   1.460  0.1834  1.4996  0.1063
 4049SOL    HW213056   7.507  -0.067   1.505 -1.4678 -1.2206 -1.8935
 4050SOL     OW13057   0.519   0.952   2.123 -0.4671 -0.5639 -0.5873
 4050SOL    HW113058   0.488   0.862   2.114 -1.9531 -0.1273 -0.1264
 4050SOL    HW213059   0.456   1.004   2.073  0.3082  0.2418 -0.7517
 4051SOL     OW13060   0.161   7.297   1.534  0.6434  0.2637 -0.0551
 4051SOL    HW113061   0.086   7.272   1.588 -0.4178  1.2797 -0.9820
 4051SOL    HW213062   0.234   7.302   1.596  0.5689 -3.0991  0.4936
 4052SOL     OW13063   5.841   7.462   2.287 -0.1913 -0.0875 -0.1155
 4052SOL    HW113064   5.852   7.487   2.379  0.7014  0.7463 -0.4302
 4052SOL    HW213065   5.883   7.376   2.281 -2.0008 -1.0799  0.6628
 4053SOL     OW13066   4.609   6.336   4.796 -0.1896 -0.0341  0.4925
 4053SOL    HW113067   4.645   6.253   4.827  3.4366  1.6459  1.3899
 4053SOL    HW213068   4.686   6.390   4.778 -2.3507  3.1836  0.0218
 4054SOL     OW13069   2.158   6.343   4.903  0.1335 -0.0030  0.4023
 4054SOL    HW113070   2.165   6.387   4.988  0.0422 -2.0719  1.5505
 4054SOL    HW213071   2.228   6.380   4.851 -0.5661  2.2046  0.9376
 4055SOL     OW13072   4.605   6.694   1.326  0.1307  0.3083  0.0552
 4055SOL    HW113073   4.672   6.763   1.327  1.5168 -0.9687  1.2432
 4055SOL    HW213074   4.641   6.627   1.269 -1.3499  0.6542 -1.3404
 4056SOL     OW13075   5.156   7.236   6.204 -0.0594 -0.8872 -0.1183
 4056SOL    HW113076   5.076   7.218   6.254 -0.3643 -0.2763 -0.3736
 4056SOL    HW213077   5.213   7.161   6.221 -1.1309 -1.9043 -0.8325
 4057SOL     OW13078   4.912   1.610   4.488  0.7030  0.2687 -0.0239
 4057SOL    HW113079   4.906   1.646   4.576 -0.2975 -1.3187  0.5981
 4057SOL    HW213080   4.994   1.561   4.487  1.1419  0.9922 -0.2729
 4058SOL     OW13081   3.717   6.992   0.502 -0.0843 -0.4331 -0.1139
 4058SOL    HW113082   3.707   7.050   0.426  0.1341 -1.0135 -0.5863
 4058SOL    HW213083   3.630   6.990   0.542  0.1979  1.2622  0.6763
 4059SOL     OW13084   4.081   3.780   4.741  0.3206  0.6411  0.5193
 4059SOL    HW113085   4.118   3.729   4.669 -0.3789  0.0469  0.5712
 4059SOL    HW213086   4.146   3.848   4.758  0.7050  0.5038 -0.3612
 4060SOL     OW13087   1.668   0.142   4.616 -0.1476  0.3669  0.6619
 4060SOL    HW113088   1.618   0.104   4.544  0.7202 -1.4526  0.9382
 4060SOL    HW213089   1.603   0.156   4.686 -0.7182  0.6198  0.0861
 4061SOL     OW13090   6.623   7.116   6.425 -0.3447 -0.1162  0.6030
 4061SOL    HW113091   6.620   7.142   6.517 -0.5815  0.3374  0.4744
 4061SOL    HW213092   6.541   7.069   6.411  0.3899 -1.5506  1.0057
 4062SOL     OW13093   3.471   0.143   7.152 -0.0237 -1.0815 -0.1634
 4062SOL    HW113094   3.393   0.191   7.179  1.2135 -0.4572  2.6643
 4062SOL    HW213095   3.471   0.065   7.208  1.1306 -1.3093 -0.4703
 4063SOL     OW13096   7.274   4.514   2.750  0.7356 -1.0207  0.0003
 4063SOL    HW113097   7.195   4.476   2.711 -0.8720 -0.8959  2.8266
 4063SOL    HW213098   7.245   4.597   2.789  2.1532 -1.1171  1.4036
 4064SOL     OW13099   7.553   3.675   0.523 -0.1593  0.2906 -0.3032
 4064SOL    HW113100   7.459   3.676   0.540 -0.5238  0.5125 -2.1394
 4064SOL    HW213101   7.561   3.642   0.433  1.4142  1.5704 -0.6805
 4065SOL     OW13102   0.244   4.903   0.291 -0.0355 -0.1894  0.6588
 4065SOL    HW113103   0.177   4.967   0.267  0.7651 -0.0241 -1.2933
 4065SOL    HW213104   0.217   4.872   0.377 -2.4567  0.0807  0.0725
 4066SOL     OW13105   1.990   4.226   0.957 -0.1645  0.0345 -0.5333
 4066SOL    HW113106   1.920   4.191   0.902 -1.5766 -1.1329  1.8136
 4066SOL    HW213107   1.947   4.245   1.041  2.2852 -0.5814  0.9779
 4067SOL     OW13108   6.232   0.331   0.279  0.5405 -0.1583 -0.6362
 4067SOL    HW113109   6.215   0.249   0.232  0.6091 -1.2427  1.1332
 4067SOL    HW213110   6.327   0.342   0.274  0.4565  0.2163 -1.5009
 4068SOL     OW13111   2.954   4.039   1.857 -0.2096 -1.1216 -0.6426
 4068SOL    HW113112   2.977   4.071   1.944 -1.9098  0.3690 -0.6853
 4068SOL    HW213113   3.018   3.969   1.839  1.3276 -0.2131  1.0046
 4069SOL     OW13114   0.894   5.174   5.932 -0.3628  0.3130  0.2210
 4069SOL    HW113115   0.944   5.247   5.968  0.7138 -1.0616  1.6686
 4069SOL    HW213116   0.836   5.148   6.004  1.9630 -2.6210  1.2518
 4070SOL     OW13117   0.435   3.158   0.689 -0.1756  0.8409  0.3863
 4070SOL    HW113118   0.417   3.160   0.595 -0.9693 -0.1160  0.4973
 4070SOL    HW213119   0.453   3.249   0.712 -0.0775  1.0998 -0.6677
 4071SOL     OW13120   6.543   6.923   1.565 -0.4789  0.0773 -0.4403
 4071SOL    HW113121   6.481   6.857   1.533  0.6867 -0.3756 -1.8735
 4071SOL    HW213122   6.496   6.967   1.636 -1.8885 -1.2092 -0.5150
 4072SOL     OW13123   6.604   6.840   2.189 -0.2048  0.1945  0.0488
 4072SOL    HW113124   6.547   6.818   2.263  0.3519  1.3727  0.8566
 4072SOL    HW213125   6.692   6.820   2.220  0.1493  1.8930  0.1919
 4073SOL     OW13126   0.580   4.349   0.771  0.3771  0.5926  0.0535
 4073SOL    HW113127   0.604   4.259   0.750  0.9728  0.9338 -0.7675
 4073SOL    HW213128   0.503   4.367   0.718 -0.8838 -0.0142  1.5886
 4074SOL     OW13129   4.256   6.623   6.487  0.1867 -0.7143  0.0698
 4074SOL    HW113130   4.302   6.643   6.568 -1.0307 -1.6279  1.0344
 4074SOL    HW213131   4.223   6.707   6.456 -1.8555 -0.6474  2.1475
 4075SOL     OW13132   2.804   7.060   3.733 -0.5981 -0.5176  0.3184
 4075SOL    HW113133   2.858   7.028   3.805  0.5997  0.8760  0.0687
 4075SOL    HW213134   2.749   7.128   3.773  0.8186  1.0128 -0.2506
 4076SOL     OW13135   4.750   2.504   3.944 -0.2858 -0.2352  0.2179
 4076SOL    HW113136   4.808   2.434   3.975 -0.7684 -1.0958 -0.7426
 4076SOL    HW213137   4.785   2.584   3.983 -0.5211 -1.1641  2.4881
 4077SOL     OW13138   4.779   5.898   3.597 -0.3764  0.2879 -0.0904
 4077SOL    HW113139   4.854   5.952   3.624  0.3485 -1.0130  0.5581
 4077SOL    HW213140   4.788   5.890   3.502  1.0925 -0.9549  0.1205
 4078SOL     OW13141   3.268   0.765   4.570  0.3975  0.3939 -0.1246
 4078SOL    HW113142   3.224   0.715   4.501  1.8588  0.8165 -1.4115
 4078SOL    HW213143   3.222   0.848   4.573 -0.7232 -0.2160  0.5979
 4079SOL     OW13144   5.459   5.087   2.853  0.0512  0.1948  0.1170
 4079SOL    HW113145   5.535   5.076   2.797 -0.7795 -0.8163 -0.8571
 4079SOL    HW213146   5.438   5.180   2.847  0.8037  0.3574 -0.1316
 4080SOL     OW13147   6.041   4.610   4.209  0.0527 -0.2619 -0.0896
 4080SOL    HW113148   5.993   4.597   4.127 -1.4424 -1.2102  0.8976
 4080SOL    HW213149   6.130   4.631   4.181 -0.6380  0.3567 -1.9646
 4081SOL     OW13150   2.918   0.899   0.826  0.1682 -0.0664 -0.0825
 4081SOL    HW113151   2.889   0.808   0.824  1.7195 -0.5805 -0.4916
 4081SOL    HW213152   2.989   0.900   0.891  1.8161  0.2988 -1.7985
 4082SOL     OW13153   2.961   4.025   5.270  0.4046 -0.2586  0.3159
 4082SOL    HW113154   2.908   3.976   5.208 -0.2179  0.6564  0.1054
 4082SOL    HW213155   3.040   3.972   5.282  0.5267 -0.4525 -1.2441
 4083SOL     OW13156   2.083   2.336   7.145 -0.0832 -0.4626  0.1722
 4083SOL    HW113157   2.081   2.429   7.126 -2.4477 -0.3395  0.6755
 4083SOL    HW213158   2.044   2.294   7.068  0.8907 -1.0551 -0.0197
 4084SOL     OW13159   3.034   1.230   0.799  0.1514  0.4752  0.4161
 4084SOL    HW113160   3.114   1.274   0.826  0.5393 -1.3814  2.5668
 4084SOL    HW213161   3.060   1.138   0.789 -1.9726 -0.5067  2.8318
 4085SOL     OW13162   3.950   7.698   2.951 -0.1873 -0.4451  0.8514
 4085SOL    HW113163   4.035   7.656   2.960 -0.5857 -1.3478  0.5237
 4085SOL    HW213164   3.941   7.713   2.857 -1.0724 -1.8522  0.6823
 4086SOL     OW13165   4.617   2.962   3.342 -0.1120 -0.0963 -0.3350
 4086SOL    HW113166   4.523   2.968   3.327 -0.1635  0.8196  0.2587
 4086SOL    HW213167   4.626   2.948   3.437  0.3818  3.3514  0.2687
 4087SOL     OW13168   3.900   0.804   6.298  0.1300  0.1731 -0.4876
 4087SOL    HW113169   3.964   0.759   6.244  0.8507  0.9399 -0.2841
 4087SOL    HW213170   3.832   0.831   6.237 -0.4542 -1.3890 -0.5788
 4088SOL     OW13171   3.120   5.412   6.446 -0.2591 -0.1117 -0.2684
 4088SOL    HW113172   3.176   5.399   6.522  0.0966  0.6695 -0.3872
 4088SOL    HW213173   3.089   5.502   6.454 -2.4469 -0.8468  0.4111
 4089SOL     OW13174   7.154   5.605   7.199  0.5128 -0.5433  0.2045
 4089SOL    HW113175   7.102   5.589   7.121 -2.6442  0.6978  1.8666
 4089SOL    HW213176   7.245   5.605   7.168 -0.5397 -0.5281 -3.3315
 4090SOL     OW13177   6.709   5.982   0.894 -0.3816  0.2241 -0.0656
 4090SOL    HW113178   6.760   6.018   0.823 -0.0230 -0.5233 -0.2011
 4090SOL    HW213179   6.672   5.901   0.859  0.9742 -0.9177  1.0144
 4091SOL     OW13180   3.662   4.287   3.545  0.6301  0.5328 -0.2501
 4091SOL    HW113181   3.567   4.296   3.537  0.5680 -0.2424 -0.4459
 4091SOL    HW213182   3.681   4.314   3.635  0.2681  1.0415 -0.3241
 4092SOL     OW13183   3.461   2.271   4.961 -0.3618 -0.1553  0.1239
 4092SOL    HW113184   3.537   2.212   4.960 -0.2829 -0.1395  1.9355
 4092SOL    HW213185   3.420   2.255   5.046 -0.8789  1.7200  0.2681
 4093SOL     OW13186   1.767   0.718   3.456 -0.4289  0.1622 -0.0534
 4093SOL    HW113187   1.821   0.797   3.449 -0.6721  0.3429  0.0515
 4093SOL    HW213188   1.808   0.667   3.525  0.6631 -0.5651 -1.2086
 4094SOL     OW13189   6.398   4.029   1.613 -0.3315 -0.5008 -0.3986
 4094SOL    HW113190   6.337   4.073   1.672 -0.3836 -0.9354 -0.1251
 4094SOL    HW213191   6.455   3.978   1.671  0.6742  0.3495 -0.6001
 4095SOL     OW13192   4.671   4.389   1.945 -0.2924 -0.1674  0.0199
 4095SOL    HW113193   4.619   4.325   1.994  1.2988 -1.2493  0.3488
 4095SOL    HW213194   4.606   4.448   1.907 -1.7755 -1.5537  0.2982
 4096SOL     OW13195   5.833   3.422   0.559 -0.2202  0.2200  0.2035
 4096SOL    HW113196   5.840   3.366   0.481 -1.5737 -0.4019  0.4903
 4096SOL    HW213197   5.812   3.509   0.524 -1.1267 -0.1219 -0.1232
 4097SOL     OW13198   4.252   6.375   3.625 -0.3465  0.4679  0.7700
 4097SOL    HW113199   4.214   6.385   3.538 -2.7738  0.0827  1.7071
 4097SOL    HW213200   4.259   6.464   3.658  0.4263  0.6033  0.2767
 4098SOL     OW13201   0.177   7.123   3.398 -0.3662 -0.4548  0.1513
 4098SOL    HW113202   0.255   7.111   3.453 -0.9343 -0.6439  0.9326
 4098SOL    HW213203   0.212   7.132   3.310  0.4876 -1.5897  0.3426
 4099SOL     OW13204   0.380   4.943   2.036  0.3733  0.4251 -0.4447
 4099SOL    HW113205   0.325   4.953   1.958  0.0137  0.0917 -0.2339
 4099SOL    HW213206   0.334   4.994   2.103 -1.4977 -2.4638  0.6620
 4100SOL     OW13207   2.299   4.797   4.281 -0.7623 -0.3856 -0.1224
 4100SOL    HW113208   2.341   4.778   4.197 -0.5672 -0.2709 -0.0536
 4100SOL    HW213209   2.337   4.881   4.308 -0.5702 -0.5845  0.2387
 4101SOL     OW13210   1.072   6.826   0.425 -0.2581 -0.4267  0.6647
 4101SOL    HW113211   1.047   6.739   0.457 -0.0052  0.0240  2.1802
 4101SOL    HW213212   1.071   6.882   0.503 -1.0940  1.1091 -0.3815
 4102SOL     OW13213   4.513   3.069   7.129  0.2530  0.1830  0.7047
 4102SOL    HW113214   4.493   3.152   7.085 -0.4826 -0.1366  0.4157
 4102SOL    HW213215   4.456   3.070   7.206 -0.4511 -0.4673  0.2033
 4103SOL     OW13216   1.021   7.339   4.016  0.2784 -0.1234 -0.2923
 4103SOL    HW113217   0.931   7.312   4.031  0.5978 -1.4133 -0.5159
 4103SOL    HW213218   1.015   7.430   3.986 -0.9025 -0.0546  0.1121
 4104SOL     OW13219   1.338   2.602   2.475 -0.1468  0.3635 -0.2840
 4104SOL    HW113220   1.403   2.620   2.407  1.6917 -2.2153  0.6396
 4104SOL    HW213221   1.344   2.507   2.489 -1.3977  0.6135  2.5103
 4105SOL     OW13222   6.121   7.190   3.209 -0.4389 -0.0550 -0.1237
 4105SOL    HW113223   6.056   7.211   3.143 -0.3423 -0.4084 -0.3328
 4105SOL    HW213224   6.174   7.269   3.217  2.9717 -1.5389 -4.3523
 4106SOL     OW13225   2.300   4.579   2.015  0.2111  0.2450 -0.4692
 4106SOL    HW113226   2.215   4.600   1.976  0.0250  1.0334  0.3222
 4106SOL    HW213227   2.280   4.520   2.088  0.2121  1.2260  0.3516
 4107SOL     OW13228   0.907   4.968   2.556  0.4956 -0.6720  0.7191
 4107SOL    HW113229   0.908   4.985   2.462 -0.3507 -1.6191  0.5199
 4107SOL    HW213230   0.956   5.041   2.594  1.6989 -0.7982 -0.5285
 4108SOL     OW13231   5.495   7.072   4.704  0.0711  0.4326  0.7310
 4108SOL    HW113232   5.417   7.118   4.674  0.3738  1.0929  0.9273
 4108SOL    HW213233   5.462   7.003   4.761 -0.3163  1.5432  1.9026
 4109SOL     OW13234   2.292   0.888   7.427  0.2464  0.3021 -0.0607
 4109SOL    HW113235   2.203   0.866   7.454  0.6194 -1.6168 -0.2755
 4109SOL    HW213236   2.324   0.947   7.496 -1.7380  2.5312 -0.8862
 4110SOL     OW13237   6.450   3.300   3.765 -0.3858 -0.3944 -0.1146
 4110SOL    HW113238   6.405   3.335   3.842 -0.3908 -0.6499 -0.0016
 4110SOL    HW213239   6.413   3.213   3.753 -1.2426  0.0744 -1.1087
 4111SOL     OW13240   1.790   2.810   4.880  0.0522 -0.3965 -0.6193
 4111SOL    HW113241   1.723   2.743   4.868 -0.8013  0.5160 -1.1162
 4111SOL    HW213242   1.819   2.831   4.791 -0.2235  0.4164 -0.5235
 4112SOL     OW13243   5.935   7.400   3.731  0.4461 -0.1205 -0.4024
 4112SOL    HW113244   5.988   7.321   3.724  0.1031 -0.4008  0.1084
 4112SOL    HW213245   5.998   7.470   3.745  0.6604 -0.4895  0.5037
 4113SOL     OW13246   4.695   6.692   6.327 -0.1280  0.2289  0.0515
 4113SOL    HW113247   4.691   6.607   6.283  1.3924  0.9194 -1.5127
 4113SOL    HW213248   4.634   6.747   6.279  0.9326  0.7564 -0.7421
 4114SOL     OW13249   4.225   6.602   2.138 -0.4606 -0.0143  0.0636
 4114SOL    HW113250   4.194   6.653   2.064 -0.0100 -0.4627 -0.4426
 4114SOL    HW213251   4.172   6.523   2.138 -0.2287 -0.1718  0.0105
 4115SOL     OW13252   5.582   0.364   3.806  0.0307  0.4347  0.1657
 4115SOL    HW113253   5.493   0.401   3.800 -0.1441  0.3315  1.7030
 4115SOL    HW213254   5.635   0.421   3.751 -1.2093 -0.3315 -1.9612
 4116SOL     OW13255   0.488   1.487   1.689  0.1715  0.1044 -0.0303
 4116SOL    HW113256   0.519   1.542   1.760 -0.8133  0.6184  0.0083
 4116SOL    HW213257   0.474   1.547   1.616 -2.4278  0.2046  0.4813
 4117SOL     OW13258   5.607   2.702   4.487 -0.0083  0.0175 -0.0093
 4117SOL    HW113259   5.663   2.633   4.523  0.4691  0.3859 -0.0271
 4117SOL    HW213260   5.658   2.737   4.413 -1.5328 -1.6382 -1.9615
 4118SOL     OW13261   5.320   0.562   0.340  0.4362 -0.0922  0.0230
 4118SOL    HW113262   5.346   0.477   0.303 -0.3964 -0.7833  0.9662
 4118SOL    HW213263   5.228   0.551   0.364  0.2329  1.1849 -0.0990
 4119SOL     OW13264   5.089   2.518   7.150  0.0479 -0.1439  0.4841
 4119SOL    HW113265   5.079   2.489   7.241  0.2334 -1.2258  0.1683
 4119SOL    HW213266   5.026   2.465   7.102  0.3151  0.0684 -0.0990
 4120SOL     OW13267   1.843   4.808   1.849  0.2341  0.3186  0.1361
 4120SOL    HW113268   1.818   4.731   1.798 -1.2023  1.3727 -0.8213
 4120SOL    HW213269   1.760   4.850   1.873  0.9305  0.7225  2.0090
 4121SOL     OW13270   6.971   6.382   3.416 -0.0499  0.1077  0.0125
 4121SOL    HW113271   6.882   6.415   3.414 -0.3058 -0.5734 -0.5864
 4121SOL    HW213272   6.984   6.352   3.506  0.1766  1.7347  0.5522
 4122SOL     OW13273   2.170   7.708   4.477 -0.7955  0.1103  0.3120
 4122SOL    HW113274   2.218   7.788   4.499 -0.9947  0.0807  0.8784
 4122SOL    HW213275   2.161   7.711   4.382  0.2988  0.1304  0.2014
 4123SOL     OW13276   3.292   6.226   2.519  0.0036 -0.2588  0.2556
 4123SOL    HW113277   3.304   6.143   2.565 -0.7533  0.2195  1.3634
 4123SOL    HW213278   3.287   6.202   2.426  0.4230 -1.3676  0.5002
 4124SOL     OW13279   1.879   5.917   4.613  0.0468  0.3504  0.1646
 4124SOL    HW113280   1.912   5.905   4.702  0.5750  0.9024  0.0495
 4124SOL    HW213281   1.913   6.002   4.586 -0.7092  0.5143 -0.3040
 4125SOL     OW13282   6.452   1.188   4.651  0.2752  0.6240  0.0244
 4125SOL    HW113283   6.382   1.127   4.630  0.7462 -0.3654  1.1895
 4125SOL    HW213284   6.513   1.182   4.577 -0.5354  1.0170 -0.6903
 4126SOL     OW13285   4.824   5.168   5.382  0.0489 -0.1777  0.7400
 4126SOL    HW113286   4.842   5.092   5.326 -0.8332 -0.4406  0.7899
 4126SOL    HW213287   4.744   5.144   5.429 -0.7513  1.1359  0.1045
 4127SOL     OW13288   3.495   4.313   2.830  0.3905 -0.2170 -0.7249
 4127SOL    HW113289   3.520   4.403   2.848  1.2210 -0.8794  1.8642
 4127SOL    HW213290   3.431   4.291   2.898  3.1968 -2.7424  1.3657
 4128SOL     OW13291   7.596   2.051   2.389  0.0596 -0.2520 -0.6068
 4128SOL    HW113292   7.571   1.960   2.405 -1.9019  0.3542  0.0689
 4128SOL    HW213293   7.679   2.045   2.341  0.0358 -2.3722 -0.4824
 4129SOL     OW13294   1.479   3.628   0.331 -0.0627 -0.4085  0.4256
 4129SOL    HW113295   1.526   3.636   0.248  1.2078  1.6388  1.2820
 4129SOL    HW213296   1.409   3.693   0.327  0.5931  0.3863  1.2897
 4130SOL     OW13297   5.493   1.441   3.745 -0.1008  0.4036 -0.0102
 4130SOL    HW113298   5.486   1.371   3.681  0.9606  0.0025  0.2877
 4130SOL    HW213299   5.466   1.400   3.828 -1.0083  0.7870 -0.1129
 4131SOL     OW13300   4.996   0.379   6.540  0.0364 -0.3108  0.0394
 4131SOL    HW113301   5.020   0.442   6.607  0.1408  1.1673 -1.3332
 4131SOL    HW213302   4.905   0.399   6.518 -0.2159 -1.2197  0.1924
 4132SOL     OW13303   4.359   3.346   4.558 -0.4217  0.4786 -0.1461
 4132SOL    HW113304   4.414   3.415   4.595  0.6143 -0.1766 -0.4416
 4132SOL    HW213305   4.388   3.338   4.467  1.2824 -2.0815  0.5217
 4133SOL     OW13306   0.431   0.214   2.181 -0.3580 -0.4398  0.2424
 4133SOL    HW113307   0.352   0.176   2.142  0.0881 -1.0532 -0.0815
 4133SOL    HW213308   0.497   0.145   2.175  0.5617  0.4617 -0.6050
 4134SOL     OW13309   0.077   4.242   0.773 -0.1084 -0.4162  0.9418
 4134SOL    HW113310   0.024   4.162   0.771  0.6446 -0.9225  1.1180
 4134SOL    HW213311   0.059   4.281   0.858  0.0566 -0.7644  1.1368
 4135SOL     OW13312   2.804   2.058   3.274 -0.2611  0.0220 -0.0085
 4135SOL    HW113313   2.869   2.099   3.332  0.4317 -1.0009 -0.0287
 4135SOL    HW213314   2.823   2.094   3.188 -0.2239  0.3087  0.1176
 4136SOL     OW13315   6.648   3.218   2.775 -0.0755  0.0067  0.1943
 4136SOL    HW113316   6.608   3.301   2.752  1.4266  0.9414  0.8148
 4136SOL    HW213317   6.734   3.241   2.810  0.5989 -1.8410 -0.1075
 4137SOL     OW13318   6.254   6.887   1.466 -0.0166 -0.8521  0.2426
 4137SOL    HW113319   6.299   6.968   1.445 -0.6930  0.3422  2.9561
 4137SOL    HW213320   6.171   6.893   1.419 -0.3064  0.3623  0.8573
 4138SOL     OW13321   1.426   6.425   2.512  0.3013  0.6121  0.1221
 4138SOL    HW113322   1.367   6.497   2.489  0.7727  1.0384  0.2402
 4138SOL    HW213323   1.370   6.347   2.514 -0.2440  1.0050  0.1665
 4139SOL     OW13324   0.428   6.960   7.518  0.3029 -0.1634  0.3716
 4139SOL    HW113325   0.414   6.962   7.423  0.0837 -0.0643  0.4037
 4139SOL    HW213326   0.376   6.885   7.548  1.0717 -0.7305  0.3094
 4140SOL     OW13327   6.233   4.445   0.789 -0.0646  0.0636  0.5493
 4140SOL    HW113328   6.216   4.473   0.699 -1.2152 -1.3780  0.2862
 4140SOL    HW213329   6.254   4.526   0.836 -1.9221  1.1972 -0.4640
 4141SOL     OW13330   3.275   6.621   0.621 -0.0984 -0.0316 -0.8354
 4141SOL    HW113331   3.257   6.560   0.692 -2.8571  0.8228 -0.6671
 4141SOL    HW213332   3.354   6.668   0.648 -0.4921 -0.4352  1.1587
 4142SOL     OW13333   0.110   6.369   0.770  0.1573 -0.6768  0.2293
 4142SOL    HW113334   0.055   6.444   0.792 -0.2220 -0.9986  0.3964
 4142SOL    HW213335   0.196   6.407   0.753 -0.8841  0.3421 -3.8420
 4143SOL     OW13336   2.297   5.416   7.298  0.3118 -0.0890  0.1782
 4143SOL    HW113337   2.220   5.364   7.275 -0.1029  1.8696 -3.7047
 4143SOL    HW213338   2.262   5.487   7.352  0.1337 -1.2699  1.6856
 4144SOL     OW13339   7.035   0.324   6.005  0.1854  0.2275  0.3023
 4144SOL    HW113340   6.943   0.336   5.980 -1.4932 -1.8414  4.4876
 4144SOL    HW213341   7.053   0.232   5.985  1.9971  0.9440 -1.8156
 4145SOL     OW13342   4.941   6.015   2.859 -0.5951  0.1863  0.3801
 4145SOL    HW113343   4.940   6.071   2.782  0.2498 -1.7392 -1.1132
 4145SOL    HW213344   4.851   5.982   2.866 -0.4194 -0.5288 -0.5167
 4146SOL     OW13345   3.500   2.917   1.234 -0.4046  0.4567 -0.3447
 4146SOL    HW113346   3.588   2.947   1.255 -0.6735  0.2527  1.2011
 4146SOL    HW213347   3.447   2.942   1.309 -1.2186 -1.3156 -0.2606
 4147SOL     OW13348   6.739   1.377   6.795 -0.3303 -0.6033  0.0300
 4147SOL    HW113349   6.761   1.293   6.754 -1.5091 -0.7747 -0.2998
 4147SOL    HW213350   6.660   1.405   6.749 -1.2953 -0.4513  1.7237
 4148SOL     OW13351   0.978   5.524   2.991  0.9190 -0.3640  0.5105
 4148SOL    HW113352   1.071   5.530   2.972  0.8262  0.3394  0.2665
 4148SOL    HW213353   0.939   5.495   2.908  0.6938  1.2623  0.0155
 4149SOL     OW13354   6.366   2.227   1.662  0.8159 -0.0550 -0.3668
 4149SOL    HW113355   6.364   2.228   1.567 -0.4844 -1.7451 -0.4029
 4149SOL    HW213356   6.364   2.134   1.686 -0.0501  0.3406  1.2997
 4150SOL     OW13357   3.177   7.093   4.562  0.0121 -0.1469  0.1964
 4150SOL    HW113358   3.172   7.082   4.467  0.6438  0.8348  0.0318
 4150SOL    HW213359   3.254   7.043   4.588  0.3436  0.2869  0.0626
 4151SOL     OW13360   5.071   1.040   3.464  0.2769 -0.3610  0.0105
 4151SOL    HW113361   4.999   1.094   3.430  1.7906  0.9798 -1.1978
 4151SOL    HW213362   5.078   0.968   3.402  2.3010  1.4864 -2.1025
 4152SOL     OW13363   2.165   2.757   3.954  0.2255  0.0673  0.2448
 4152SOL    HW113364   2.128   2.841   3.983 -0.8442 -0.7924  1.4815
 4152SOL    HW213365   2.145   2.696   4.025  0.9516 -1.2577 -0.6456
 4153SOL     OW13366   5.779   0.399   1.850 -0.7872  0.2989  0.6673
 4153SOL    HW113367   5.813   0.347   1.923 -2.0469 -0.6841  0.6075
 4153SOL    HW213368   5.825   0.366   1.773 -2.0641 -1.3126  0.5257
 4154SOL     OW13369   5.455   7.681   4.080  0.2818  0.1788 -0.4478
 4154SOL    HW113370   5.501   7.708   4.159  0.1344 -0.6677 -0.0624
 4154SOL    HW213371   5.504   7.721   4.008  0.9461  0.2106  0.0212
 4155SOL     OW13372   7.057   5.065   2.283  0.7395  0.5872  0.0853
 4155SOL    HW113373   7.065   5.044   2.376  0.9186 -1.1397 -0.2836
 4155SOL    HW213374   6.964   5.085   2.271  0.3910 -0.7386  0.3717
 4156SOL     OW13375   5.386   2.488   6.823 -0.5384 -0.3051 -0.1425
 4156SOL    HW113376   5.418   2.555   6.883 -1.9688  0.7779 -0.5359
 4156SOL    HW213377   5.320   2.533   6.770 -2.6167 -2.3561  0.5465
 4157SOL     OW13378   2.702   1.394   5.761  0.2137 -0.6379  0.8743
 4157SOL    HW113379   2.647   1.458   5.805  0.3498 -0.4995  0.8422
 4157SOL    HW213380   2.639   1.338   5.714  0.0787 -0.6971  1.1211
 4158SOL     OW13381   0.265   6.483   1.253  0.0458 -0.3333 -0.2640
 4158SOL    HW113382   0.291   6.510   1.341 -0.1725  1.0368 -0.6004
 4158SOL    HW213383   0.174   6.509   1.246 -2.1319 -5.9884  1.2893
 4159SOL     OW13384   5.923   0.900   2.673  0.2333  0.5424  0.4370
 4159SOL    HW113385   5.994   0.926   2.614  0.6211  0.8611  1.0418
 4159SOL    HW213386   5.860   0.972   2.668 -0.2548  0.0752 -0.4131
 4160SOL     OW13387   7.366   7.029   6.546 -0.1815  0.0946 -0.0666
 4160SOL    HW113388   7.294   7.046   6.607  0.6458  0.8117  0.7215
 4160SOL    HW213389   7.417   7.110   6.545  0.6093 -0.3952 -0.6406
 4161SOL     OW13390   3.928   0.014   2.672 -0.5195  0.2651  0.4948
 4161SOL    HW113391   3.958   0.069   2.600 -1.7578 -0.1625 -0.3918
 4161SOL    HW213392   3.944  -0.076   2.642 -0.2436  0.1016  1.1228
 4162SOL     OW13393   4.400   0.740   0.313  0.2191 -0.4827  0.3151
 4162SOL    HW113394   4.477   0.795   0.301  1.2313 -1.8102  0.4380
 4162SOL    HW213395   4.428   0.673   0.376 -1.2049 -0.6862  0.7608
 4163SOL     OW13396   7.447   1.251   7.704  0.1900 -0.2732 -0.2233
 4163SOL    HW113397   7.439   1.221   7.795 -0.4880 -0.3179 -0.2890
 4163SOL    HW213398   7.360   1.235   7.667  0.4795 -0.2914 -0.8921
 4164SOL     OW13399   1.283   3.311   3.769 -0.1149 -0.2820  0.3605
 4164SOL    HW113400   1.365   3.342   3.733 -0.3896 -0.3450 -0.3253
 4164SOL    HW213401   1.293   3.215   3.773 -0.9708 -0.5230 -1.8489
 4165SOL     OW13402   1.017   5.848   5.012 -0.0702 -0.1442 -0.3927
 4165SOL    HW113403   0.936   5.877   4.970 -0.3632  1.3312  1.1155
 4165SOL    HW213404   1.086   5.876   4.952 -0.5985 -0.5423 -1.2115
 4166SOL     OW13405   6.344   5.947   1.565  0.1682 -0.8112 -0.1520
 4166SOL    HW113406   6.300   5.996   1.496  0.1683 -1.3422 -0.5354
 4166SOL    HW213407   6.416   5.903   1.521  1.8514  0.9686  0.6529
 4167SOL     OW13408   0.298   1.454   0.204 -0.0130  0.0697 -0.4410
 4167SOL    HW113409   0.234   1.443   0.134 -0.8480 -2.7142  0.6275
 4167SOL    HW213410   0.245   1.475   0.281  0.6160  0.1632 -0.0258
 4168SOL     OW13411   2.303   5.288   4.769  0.0090  0.2226 -0.9169
 4168SOL    HW113412   2.265   5.208   4.733 -2.7495  0.1066  1.8528
 4168SOL    HW213413   2.364   5.259   4.836 -1.3237  0.3673  0.4004
 4169SOL     OW13414   0.680   1.418   2.295 -0.1500  0.4582  0.2699
 4169SOL    HW113415   0.620   1.385   2.228  0.8354  0.7275 -0.7721
 4169SOL    HW213416   0.743   1.348   2.308  0.6801  1.0633 -0.3719
 4170SOL     OW13417   6.905   5.992   7.627 -0.3353  0.0804 -0.9013
 4170SOL    HW113418   6.875   6.074   7.586  1.5943  0.7021 -1.1761
 4170SOL    HW213419   6.898   6.009   7.721 -0.7841  0.2191 -0.9563
 4171SOL     OW13420   5.453   1.020   7.717  0.0839 -0.3761  0.1922
 4171SOL    HW113421   5.424   1.095   7.665 -1.6449 -1.8680 -1.1206
 4171SOL    HW213422   5.457   1.053   7.807 -4.0981  0.5151  0.2642
 4172SOL     OW13423   3.147   3.941   4.505  0.3000 -0.1019  0.0376
 4172SOL    HW113424   3.225   3.967   4.554 -0.3500  1.2611  0.4061
 4172SOL    HW213425   3.102   3.880   4.564 -0.3513  1.3336  1.1036
 4173SOL     OW13426   1.718   0.878   1.301  0.1680  0.3795 -0.1062
 4173SOL    HW113427   1.675   0.944   1.356  2.3461  2.4745 -0.7143
 4173SOL    HW213428   1.647   0.835   1.254 -1.4575  1.2047  1.4805
 4174SOL     OW13429   3.487   5.108   0.369  0.1398  0.2087 -0.1355
 4174SOL    HW113430   3.454   5.102   0.458 -0.7159 -1.2544 -0.5251
 4174SOL    HW213431   3.507   5.017   0.344 -0.5379  0.4683 -1.7618
 4175SOL     OW13432   3.243   2.598   4.824  0.2537 -0.0376 -0.6667
 4175SOL    HW113433   3.189   2.542   4.880  0.0294 -1.7027 -2.4357
 4175SOL    HW213434   3.180   2.645   4.770  0.4922  0.7424 -0.2706
 4176SOL     OW13435   6.676   2.060   0.294 -0.5471  0.4268  0.1109
 4176SOL    HW113436   6.696   2.081   0.385  0.4292 -0.0569  0.0168
 4176SOL    HW213437   6.639   1.971   0.297  2.0910 -0.7652 -0.2127
 4177SOL     OW13438   5.026   0.475   5.775 -0.3043 -0.3982 -0.8598
 4177SOL    HW113439   5.096   0.426   5.733 -1.3689 -0.9719 -2.0120
 4177SOL    HW213440   5.003   0.544   5.713 -1.2484 -0.6651 -0.8253
 4178SOL     OW13441   1.631   3.582   5.412 -0.1908  0.3553 -0.0417
 4178SOL    HW113442   1.615   3.653   5.473  0.7655  0.3035  0.2813
 4178SOL    HW213443   1.696   3.617   5.350  1.0928 -0.5562  0.7421
 4179SOL     OW13444   5.569   0.788   1.927 -0.5202 -0.1710 -0.0010
 4179SOL    HW113445   5.537   0.845   1.856 -0.0557  1.5242  1.0857
 4179SOL    HW213446   5.657   0.763   1.900 -0.5491  0.0123 -0.2739
 4180SOL     OW13447   2.112   6.951   4.358  0.1159  0.1162 -0.1918
 4180SOL    HW113448   2.079   7.004   4.430 -1.5309 -0.7177 -0.2791
 4180SOL    HW213449   2.197   6.918   4.389 -0.7271 -0.5387  1.5533
 4181SOL     OW13450   6.913   0.005   6.998  0.3386  0.0741 -0.6297
 4181SOL    HW113451   6.846   0.045   7.054 -0.0973 -1.2636 -0.1353
 4181SOL    HW213452   6.945  -0.070   7.050 -0.2045 -1.3295 -2.2160
 4182SOL     OW13453   6.281   3.400   5.708 -0.1597  0.0015  0.4861
 4182SOL    HW113454   6.207   3.366   5.759 -1.7118  1.3188 -0.7621
 4182SOL    HW213455   6.331   3.452   5.771 -1.2194  0.4159  1.0127
 4183SOL     OW13456   3.658   1.359   2.483 -0.6655 -0.4604  0.1855
 4183SOL    HW113457   3.600   1.360   2.559 -0.1388 -0.0779  0.5915
 4183SOL    HW213458   3.648   1.446   2.445 -0.5255 -0.4674  0.1313
 4184SOL     OW13459   6.202   4.674   5.562  0.5908  0.6932  0.3810
 4184SOL    HW113460   6.113   4.640   5.550 -0.3444  2.1533  2.3534
 4184SOL    HW213461   6.202   4.757   5.514  0.5899  1.0801  1.0307
 4185SOL     OW13462   1.439   4.562   3.259  0.5400 -0.1235 -0.4115
 4185SOL    HW113463   1.524   4.605   3.251  1.1447 -0.2387  3.5043
 4185SOL    HW213464   1.379   4.631   3.289  0.3265 -0.8545  0.9686
 4186SOL     OW13465   1.698   3.567   4.015 -0.2515 -0.1651 -0.0370
 4186SOL    HW113466   1.616   3.518   4.027  0.2777 -1.0601  0.0305
 4186SOL    HW213467   1.752   3.541   4.089  0.3043 -0.0257 -0.3897
 4187SOL     OW13468   2.504   2.644   5.492 -0.0711 -0.1173 -0.0254
 4187SOL    HW113469   2.518   2.550   5.490  1.8104  0.1385 -1.6177
 4187SOL    HW213470   2.498   2.666   5.585  0.4117 -1.6617  0.3915
 4188SOL     OW13471   2.173   1.393   2.822 -0.2683 -0.2212 -0.2590
 4188SOL    HW113472   2.210   1.436   2.899 -0.2468 -1.5180  0.4980
 4188SOL    HW213473   2.142   1.464   2.767 -1.5204  0.7153  1.5519
 4189SOL     OW13474   6.541   3.790   4.982  0.2317  0.2058 -0.6702
 4189SOL    HW113475   6.483   3.720   4.952  0.8321  0.2382 -1.9609
 4189SOL    HW213476   6.612   3.744   5.027  0.4438 -0.0088 -1.2087
 4190SOL     OW13477   5.469   3.103   4.882  0.6073 -0.3059 -0.3583
 4190SOL    HW113478   5.505   3.036   4.823 -0.6437 -0.9329 -0.4461
 4190SOL    HW213479   5.434   3.170   4.824 -0.6464 -0.9347 -0.3653
 4191SOL     OW13480   5.530   5.919   6.254  0.3982 -0.2219 -0.4472
 4191SOL    HW113481   5.504   5.981   6.186  0.6720  0.0032 -0.3484
 4191SOL    HW213482   5.581   5.972   6.316  0.8369 -0.5955 -0.4855
 4192SOL     OW13483   7.586   0.852   4.020 -0.4575  0.0852  0.1394
 4192SOL    HW113484   7.531   0.809   4.085  1.8853 -0.5464  1.8452
 4192SOL    HW213485   7.635   0.782   3.978 -0.2815  0.6890 -0.7083
 4193SOL     OW13486   1.714   0.728   5.628 -0.2333  0.0419 -0.6944
 4193SOL    HW113487   1.721   0.822   5.645 -2.3704  0.4079 -1.5781
 4193SOL    HW213488   1.771   0.713   5.552  2.5074 -0.0213  1.2236
 4194SOL     OW13489   3.986   0.424   2.380 -0.0973 -0.8220 -0.5821
 4194SOL    HW113490   3.927   0.424   2.306 -0.4728 -0.3041 -0.2890
 4194SOL    HW213491   4.019   0.514   2.385 -0.4623 -0.7144  0.1663
 4195SOL     OW13492   3.367   3.636   3.955 -0.1991  0.1002  0.2967
 4195SOL    HW113493   3.309   3.570   3.915 -0.9140  0.1333  1.2634
 4195SOL    HW213494   3.338   3.642   4.046 -0.5898  2.2314  0.0795
 4196SOL     OW13495   3.915   3.897   6.588  0.2824  0.6555  0.5748
 4196SOL    HW113496   3.902   3.990   6.607  0.5715  0.2994  2.7745
 4196SOL    HW213497   3.861   3.851   6.652  2.5201 -0.6823  1.6451
 4197SOL     OW13498   3.709   7.362   3.447 -0.1807 -0.1942  0.1379
 4197SOL    HW113499   3.617   7.337   3.455 -0.3897  0.8362  1.3214
 4197SOL    HW213500   3.714   7.450   3.486  1.4308 -0.5231  0.7747
 4198SOL     OW13501   5.478   1.782   0.193 -0.8615  0.2844 -0.0395
 4198SOL    HW113502   5.421   1.769   0.268 -0.4833  1.5238  0.4844
 4198SOL    HW213503   5.565   1.798   0.230 -0.1794 -1.3978 -0.8185
 4199SOL     OW13504   3.362   1.550   3.374 -0.3124  0.0750 -0.5656
 4199SOL    HW113505   3.325   1.599   3.301 -1.6871  0.3894  0.3095
 4199SOL    HW213506   3.405   1.617   3.428 -0.1404 -0.0197 -0.5847
 4200SOL     OW13507   6.675   2.358   7.567  0.4684  0.1575 -0.3796
 4200SOL    HW113508   6.765   2.335   7.544  0.7345  0.3111  0.5067
 4200SOL    HW213509   6.656   2.306   7.645 -0.4595 -0.4078 -0.9532
 4201SOL     OW13510   1.066   7.166   6.679 -0.3513 -0.1743  0.2270
 4201SOL    HW113511   0.982   7.213   6.674  0.0295  0.4827 -0.1022
 4201SOL    HW213512   1.054   7.103   6.749 -1.5930 -1.0133 -0.6922
 4202SOL     OW13513   4.199   3.412   4.075 -0.1859  0.0409  0.5069
 4202SOL    HW113514   4.253   3.383   4.001  0.3242 -0.9191  1.2235
 4202SOL    HW213515   4.119   3.361   4.067 -1.0255  1.4428 -0.5377
 4203SOL     OW13516   5.752   0.901   3.005  0.0241 -0.2839  0.1697
 4203SOL    HW113517   5.765   0.887   3.098  1.3051 -1.5354 -0.1514
 4203SOL    HW213518   5.677   0.959   2.999 -1.5796 -2.0527  1.9136
 4204SOL     OW13519   6.473   0.679   1.052 -0.1093  0.4005 -0.1813
 4204SOL    HW113520   6.422   0.694   0.972  0.5506  0.7019 -0.5582
 4204SOL    HW213521   6.523   0.760   1.063  1.3559 -0.4098 -0.6330
 4205SOL     OW13522   4.640   2.903   6.327 -0.0654 -0.4379 -0.9299
 4205SOL    HW113523   4.675   2.913   6.416 -1.3499 -0.8990 -0.3488
 4205SOL    HW213524   4.674   2.818   6.299  0.5433 -0.1819 -0.9771
 4206SOL     OW13525   6.777   5.439   2.481 -0.5161 -0.5795  0.1430
 4206SOL    HW113526   6.825   5.423   2.562  0.0889 -1.9196 -0.4483
 4206SOL    HW213527   6.720   5.514   2.501 -0.2673 -0.7832  1.7445
 4207SOL     OW13528   6.092   6.744   6.408 -0.1757  0.4917  0.1266
 4207SOL    HW113529   6.005   6.784   6.415 -0.9186 -1.1653  0.9019
 4207SOL    HW213530   6.099   6.719   6.316 -0.9024 -0.1567  0.2391
 4208SOL     OW13531   3.567   6.443   3.866  0.4012 -0.4782 -0.1844
 4208SOL    HW113532   3.502   6.501   3.825  0.0996  0.2304  1.2400
 4208SOL    HW213533   3.614   6.500   3.927 -0.2024 -1.7936  1.5877
 4209SOL     OW13534   3.579   5.657   1.573 -0.5400 -0.6433 -0.2680
 4209SOL    HW113535   3.657   5.617   1.610 -1.0005  0.2565  1.7779
 4209SOL    HW213536   3.611   5.699   1.492  0.7926 -1.4507 -0.1944
 4210SOL     OW13537   0.947   1.993   7.719 -0.1091 -0.3265 -0.1447
 4210SOL    HW113538   1.034   1.996   7.758 -0.4440  0.3676  0.5842
 4210SOL    HW213539   0.962   1.973   7.627  0.7699 -0.9520  0.1264
 4211SOL     OW13540   0.638   2.365   5.047 -0.3175 -0.1723 -0.0653
 4211SOL    HW113541   0.581   2.417   4.989 -1.8890 -1.4777  0.2334
 4211SOL    HW213542   0.726   2.384   5.016 -0.6619  3.5134  0.7071
 4212SOL     OW13543   2.012   0.350   4.450 -0.0721 -0.4250  0.1580
 4212SOL    HW113544   2.074   0.302   4.395  0.6182  0.6681 -0.0631
 4212SOL    HW213545   1.948   0.387   4.389  0.9394  1.1501 -0.0138
 4213SOL     OW13546   6.796   7.535   1.449 -0.0795 -0.2634  0.1112
 4213SOL    HW113547   6.746   7.572   1.522  0.0417 -2.0581  1.1681
 4213SOL    HW213548   6.766   7.445   1.442  0.5702 -0.3936 -1.4903
 4214SOL     OW13549   2.586   6.896   6.168 -0.0313  0.0112 -0.0300
 4214SOL    HW113550   2.620   6.968   6.115 -0.0555 -0.5706 -0.8450
 4214SOL    HW213551   2.503   6.930   6.203  0.2699  0.6075  0.1260
 4215SOL     OW13552   6.381   3.016   5.389  0.1638 -0.7339 -0.2639
 4215SOL    HW113553   6.429   3.022   5.471  1.2016 -1.4709 -0.8004
 4215SOL    HW213554   6.290   3.003   5.415  0.6310 -2.0983  0.7803
 4216SOL     OW13555   7.534   1.020   7.195 -0.4105  0.4437 -0.2401
 4216SOL    HW113556   7.628   1.017   7.179 -0.4694 -1.3583 -0.4677
 4216SOL    HW213557   7.523   1.086   7.263  0.6421  3.0392 -2.4326
 4217SOL     OW13558   5.112   3.386   4.372 -0.1210  0.2022  0.1652
 4217SOL    HW113559   5.097   3.437   4.292  0.5264 -0.3359 -0.3093
 4217SOL    HW213560   5.033   3.400   4.424 -0.3160  1.0040 -0.3273
 4218SOL     OW13561   3.857   6.761   4.273  0.0101 -0.1688 -0.5946
 4218SOL    HW113562   3.898   6.683   4.236 -1.6082 -0.5447 -1.7160
 4218SOL    HW213563   3.928   6.825   4.281  0.9902 -1.1201 -1.4715
 4219SOL     OW13564   3.710   5.222   7.112  0.1050 -0.6708  0.2319
 4219SOL    HW113565   3.741   5.141   7.071 -0.4203 -0.4820 -0.5512
 4219SOL    HW213566   3.624   5.238   7.074 -1.6118 -1.8317  3.2502
 4220SOL     OW13567   2.595   4.059   3.650 -0.2140 -0.0501  0.4214
 4220SOL    HW113568   2.679   4.106   3.645 -0.3347  0.0452 -1.4342
 4220SOL    HW213569   2.614   3.982   3.703  0.4182  1.1689  2.0603
 4221SOL     OW13570   1.682   0.589   7.011  0.0410  0.3087 -0.0150
 4221SOL    HW113571   1.755   0.546   6.967  0.2340  1.5594 -0.9819
 4221SOL    HW213572   1.717   0.675   7.037 -0.8692  0.6311  0.1766
 4222SOL     OW13573   6.693   4.403   4.122 -0.1361  0.0796 -0.4509
 4222SOL    HW113574   6.683   4.309   4.139 -4.2517  0.3842 -0.1429
 4222SOL    HW213575   6.745   4.407   4.041 -1.4800 -2.6171 -1.5936
 4223SOL     OW13576   0.435   4.195   3.788 -0.3772 -0.5163 -0.4433
 4223SOL    HW113577   0.441   4.102   3.767  0.6809 -0.7769  0.9226
 4223SOL    HW213578   0.444   4.200   3.883 -1.5146  0.9068 -0.3590
 4224SOL     OW13579   6.891   5.654   3.226 -0.0695  0.0157 -0.6113
 4224SOL    HW113580   6.975   5.691   3.253  0.6233 -1.4088 -0.7197
 4224SOL    HW213581   6.908   5.561   3.214 -1.6382 -0.2841 -0.7902
 4225SOL     OW13582   3.682   5.763   5.821 -0.2386  0.3169 -0.3255
 4225SOL    HW113583   3.708   5.671   5.810  0.3196  0.4828 -0.4537
 4225SOL    HW213584   3.620   5.779   5.750 -0.1072  0.1236 -0.4867
 4226SOL     OW13585   3.589   2.818   5.618 -0.3999 -0.4018  0.3654
 4226SOL    HW113586   3.670   2.846   5.575 -0.6681  0.7549  0.5752
 4226SOL    HW213587   3.533   2.895   5.614 -3.1812 -2.3069 -3.6231
 4227SOL     OW13588   7.332   4.841   1.643  0.7780  0.3941 -0.0290
 4227SOL    HW113589   7.283   4.785   1.583 -0.0406  0.9903  0.0635
 4227SOL    HW213590   7.300   4.930   1.624  1.3704  0.7190  0.4688
 4228SOL     OW13591   5.849   0.162   2.666 -0.0919  0.3795 -0.3166
 4228SOL    HW113592   5.844   0.225   2.738  0.8229  1.3670 -1.0761
 4228SOL    HW213593   5.890   0.211   2.595 -1.2509 -0.4880 -1.6181
 4229SOL     OW13594   1.839   1.607   2.405 -0.4523 -0.1113 -0.6965
 4229SOL    HW113595   1.800   1.628   2.490  1.1817 -0.1266  0.1097
 4229SOL    HW213596   1.812   1.517   2.388  1.9200 -1.4023  1.5542
 4230SOL     OW13597   0.546   0.671   0.247 -0.2585  0.3974  0.4125
 4230SOL    HW113598   0.558   0.642   0.157 -2.7159 -1.8634  0.6778
 4230SOL    HW213599   0.627   0.647   0.291  0.1171 -0.5226 -0.7294
 4231SOL     OW13600   5.801   7.719   1.383 -0.2522 -0.1522 -0.0073
 4231SOL    HW113601   5.755   7.793   1.342 -1.1820 -1.4370 -1.3875
 4231SOL    HW213602   5.805   7.653   1.314  1.8377 -0.8819  0.7521
 4232SOL     OW13603   2.370   4.824   5.125  0.5001  0.5012 -0.1510
 4232SOL    HW113604   2.383   4.729   5.132 -1.2015  0.0499 -1.9035
 4232SOL    HW213605   2.369   4.855   5.215 -0.0349 -1.3511  0.5361
 4233SOL     OW13606   0.870   3.338   5.604  0.9448 -0.2013  0.4809
 4233SOL    HW113607   0.859   3.301   5.691 -1.8712 -1.9522 -0.4971
 4233SOL    HW213608   0.943   3.289   5.566  2.2263  0.6039  1.7523
 4234SOL     OW13609   0.092   3.650   7.310  0.2864  0.5968 -0.0965
 4234SOL    HW113610   0.131   3.736   7.295 -0.1323  0.6010 -1.2271
 4234SOL    HW213611   0.071   3.618   7.222 -0.4172 -0.2602  0.3775
 4235SOL     OW13612   2.540   6.888   3.721  0.1184 -0.5233  0.1785
 4235SOL    HW113613   2.508   6.881   3.811 -0.7451  0.6513 -0.0095
 4235SOL    HW213614   2.627   6.927   3.729  1.0376 -2.5146  0.6125
 4236SOL     OW13615   5.044   3.327   2.752 -0.1569 -0.1109  0.3942
 4236SOL    HW113616   4.997   3.268   2.811  1.5343 -0.6723  1.2476
 4236SOL    HW213617   4.980   3.394   2.730 -1.4974 -1.0982  1.1114
 4237SOL     OW13618   2.435   5.787   2.349 -0.1666  0.1957 -0.4494
 4237SOL    HW113619   2.506   5.722   2.349 -0.6325 -0.5154  2.6483
 4237SOL    HW213620   2.479   5.869   2.372 -0.2091 -0.1561  1.0152
 4238SOL     OW13621   1.149   3.751   0.013 -0.0343 -0.0654 -0.1219
 4238SOL    HW113622   1.058   3.731  -0.011  0.7857 -1.3360 -2.5134
 4238SOL    HW213623   1.178   3.813  -0.054  0.2471  2.2195  1.9699
 4239SOL     OW13624   6.689   2.218   1.862  0.6698 -0.3310  0.2107
 4239SOL    HW113625   6.705   2.311   1.874  1.8624 -0.6426  1.1328
 4239SOL    HW213626   6.727   2.197   1.776 -1.3156  0.3870 -0.9128
 4240SOL     OW13627   4.996   3.014   4.718 -0.4192 -0.0232 -0.4149
 4240SOL    HW113628   5.013   3.108   4.730 -1.6122  0.0648  0.9855
 4240SOL    HW213629   4.993   2.979   4.807 -1.1731 -1.1603 -0.8597
 4241SOL     OW13630   2.257   3.047   6.966 -0.0672  0.1047 -0.5264
 4241SOL    HW113631   2.206   2.986   6.912 -0.7334  0.4947 -0.3512
 4241SOL    HW213632   2.276   2.997   7.045 -0.8212  0.1862 -0.2789
 4242SOL     OW13633   5.872   3.101   6.679  0.4313  0.2872  0.4970
 4242SOL    HW113634   5.892   3.091   6.586 -0.4823  0.8538  0.2271
 4242SOL    HW213635   5.884   3.194   6.696 -0.2000  0.3294  0.7433
 4243SOL     OW13636   7.634   6.430   2.377 -0.3163 -0.1735 -0.2637
 4243SOL    HW113637   7.658   6.499   2.316 -0.8143  0.4174  0.1868
 4243SOL    HW213638   7.654   6.467   2.464 -0.6364 -0.5681 -0.0183
 4244SOL     OW13639   6.269   2.300   0.827 -0.5519 -0.3219  0.0429
 4244SOL    HW113640   6.305   2.229   0.880 -1.3039 -1.5851 -1.0667
 4244SOL    HW213641   6.343   2.329   0.773 -0.3997 -0.7395  0.0209
 4245SOL     OW13642   6.530   7.688   4.414  0.5990 -0.2548  0.1006
 4245SOL    HW113643   6.484   7.690   4.330  0.6621 -0.5381  0.0576
 4245SOL    HW213644   6.484   7.621   4.465  0.4508  0.0405  0.3552
 4246SOL     OW13645   3.712   2.408   7.135  0.7165  0.1278 -0.2354
 4246SOL    HW113646   3.775   2.358   7.083  0.1071 -1.2836  0.3315
 4246SOL    HW213647   3.687   2.348   7.206 -0.5366  1.0099  0.0947
 4247SOL     OW13648   6.830   6.754   5.863  0.0779 -0.3477  0.6371
 4247SOL    HW113649   6.924   6.773   5.867  0.0875 -0.3962  0.6403
 4247SOL    HW213650   6.798   6.774   5.951  0.1819 -0.8427  0.7935
 4248SOL     OW13651   3.618   3.751   3.827 -0.0003  0.3612 -0.1805
 4248SOL    HW113652   3.555   3.688   3.862  0.4679 -0.8393 -1.4239
 4248SOL    HW213653   3.642   3.804   3.902 -1.2767 -0.1903  0.6642
 4249SOL     OW13654   0.697   2.374   1.426  0.6476 -0.6947  0.5636
 4249SOL    HW113655   0.674   2.373   1.333  1.9712  0.5083  0.1846
 4249SOL    HW213656   0.624   2.419   1.469  0.4020 -0.5428 -0.0077
 4250SOL     OW13657   4.438   2.040   1.647 -0.3861  0.1045  0.3427
 4250SOL    HW113658   4.457   2.134   1.649 -1.1681  0.3035 -0.7708
 4250SOL    HW213659   4.506   2.003   1.590 -0.7737  0.1816 -0.1781
 4251SOL     OW13660   5.797   3.641   4.651 -0.0214 -0.7036 -0.6241
 4251SOL    HW113661   5.861   3.573   4.674  0.2230 -0.0559  0.7119
 4251SOL    HW213662   5.839   3.689   4.579  1.6488  0.5410  1.0786
 4252SOL     OW13663   1.465   4.471   2.950  0.3614  0.3872  0.3969
 4252SOL    HW113664   1.524   4.402   2.919  0.9054  0.8124  0.4665
 4252SOL    HW213665   1.519   4.550   2.952 -0.4806  1.0049 -0.5076
 4253SOL     OW13666   3.382   1.984   0.201  0.2135 -0.0200 -0.6139
 4253SOL    HW113667   3.406   1.905   0.152  1.0966  1.4397 -2.7015
 4253SOL    HW213668   3.466   2.024   0.223 -0.1585 -0.5656  2.1412
 4254SOL     OW13669   5.056   4.191   4.762  0.0783 -0.2838  0.2927
 4254SOL    HW113670   5.118   4.202   4.835 -0.6864  0.9457  0.7818
 4254SOL    HW213671   4.977   4.238   4.790 -1.6949 -3.0857  0.3603
 4255SOL     OW13672   4.460   3.740   0.977 -0.4312  0.3829  0.4652
 4255SOL    HW113673   4.443   3.676   1.046  0.1169 -0.3700 -0.0751
 4255SOL    HW213674   4.475   3.687   0.898  0.5109  1.1500  0.1104
 4256SOL     OW13675   6.855   0.694   6.497  0.5110 -0.1249 -0.0827
 4256SOL    HW113676   6.777   0.713   6.549 -0.3669 -0.1424 -1.3334
 4256SOL    HW213677   6.928   0.729   6.548 -0.3383  0.1305  0.9905
 4257SOL     OW13678   7.537   0.608   5.440 -0.7081  0.0546  0.2869
 4257SOL    HW113679   7.478   0.651   5.503 -2.6412  0.2635 -1.5462
 4257SOL    HW213680   7.508   0.517   5.439 -0.4301 -0.0297  0.0039
 4258SOL     OW13681   2.580   2.383   5.488  0.1616  0.1044  0.3091
 4258SOL    HW113682   2.547   2.307   5.441 -0.5039  1.2052 -1.0967
 4258SOL    HW213683   2.629   2.347   5.562 -0.0397 -1.6681 -0.3807
 4259SOL     OW13684   3.790   6.374   5.086  0.1692  0.7786  0.9890
 4259SOL    HW113685   3.848   6.433   5.037 -0.8885  1.7199  0.8267
 4259SOL    HW213686   3.711   6.370   5.033 -0.3356  0.4038  1.7611
 4260SOL     OW13687   1.536   5.634   5.292  0.4869 -0.1244 -0.1941
 4260SOL    HW113688   1.529   5.585   5.373  0.7447 -0.9334 -0.6567
 4260SOL    HW213689   1.588   5.579   5.234 -0.3696  0.0655 -1.1882
 4261SOL     OW13690   5.173   2.441   1.699  0.2357 -0.1979  0.1073
 4261SOL    HW113691   5.264   2.448   1.670  0.0236  1.6019 -0.1896
 4261SOL    HW213692   5.129   2.517   1.662 -0.7208  0.6064  2.7011
 4262SOL     OW13693   6.589   1.592   0.831  0.1266 -0.1439  0.8699
 4262SOL    HW113694   6.677   1.556   0.822  0.7399  1.5773 -0.6355
 4262SOL    HW213695   6.551   1.586   0.743  0.3657  2.9305  0.4380
 4263SOL     OW13696   7.733   0.982   3.374  0.0558 -0.3392 -0.1021
 4263SOL    HW113697   7.644   0.968   3.342 -0.5386 -0.2555  1.4034
 4263SOL    HW213698   7.735   0.939   3.460  1.1573  0.5090  0.3277
 4264SOL     OW13699   6.962   0.611   6.274 -0.4247 -0.2112 -0.4857
 4264SOL    HW113700   7.007   0.530   6.297 -1.4526 -0.6484  0.0411
 4264SOL    HW213701   6.926   0.643   6.357 -0.7262  0.3545 -0.8260
 4265SOL     OW13702   3.940   2.812   3.530 -0.5871 -0.2216  0.6169
 4265SOL    HW113703   3.973   2.766   3.453 -0.5272 -2.0734  1.6773
 4265SOL    HW213704   3.962   2.754   3.603 -1.4581  1.0405  1.9342
 4266SOL     OW13705   3.527   1.813   2.559  0.0135  0.8391  0.6289
 4266SOL    HW113706   3.579   1.893   2.557  0.5897  0.4549 -0.9111
 4266SOL    HW213707   3.444   1.838   2.518 -0.5264  1.0919  1.8232
 4267SOL     OW13708   5.486   3.601   2.304  0.4934 -0.2750  0.1270
 4267SOL    HW113709   5.539   3.528   2.334 -0.0894 -0.8250 -0.1550
 4267SOL    HW213710   5.474   3.585   2.210  1.4032  0.8492 -0.1998
 4268SOL     OW13711   2.210   3.787   5.041 -0.1276  0.2920  0.4436
 4268SOL    HW113712   2.230   3.762   5.131 -0.8444 -0.7366  0.3382
 4268SOL    HW213713   2.279   3.746   4.989  0.8571  1.7071  0.5906
 4269SOL     OW13714   3.412   6.619   5.537  0.1119  0.2709 -0.0627
 4269SOL    HW113715   3.469   6.690   5.508  0.0102  0.8093  1.0335
 4269SOL    HW213716   3.470   6.555   5.577 -0.1246  1.3059  2.0214
 4270SOL     OW13717   1.547   1.467   0.954 -0.3928 -0.2368  0.0990
 4270SOL    HW113718   1.493   1.427   0.886  0.3719  0.1431 -0.7394
 4270SOL    HW213719   1.530   1.561   0.947  0.3479 -0.1203 -0.1443
 4271SOL     OW13720   1.035   6.388   0.792 -0.0914  0.5308  0.0157
 4271SOL    HW113721   1.090   6.465   0.776  0.4018  0.5943  1.8360
 4271SOL    HW213722   1.071   6.320   0.734  2.4389  0.3468  1.6471
 4272SOL     OW13723   4.662   1.461   5.062 -0.1448  0.2832 -0.2719
 4272SOL    HW113724   4.708   1.446   5.144  0.8992  0.0322 -0.8845
 4272SOL    HW213725   4.668   1.556   5.048 -0.5211  0.3565  0.0460
 4273SOL     OW13726   4.152   0.834   3.261  0.1236 -0.1446 -1.0218
 4273SOL    HW113727   4.104   0.761   3.301  1.3388 -0.2140  0.4024
 4273SOL    HW213728   4.214   0.792   3.201  0.7006 -0.2812 -0.3357
 4274SOL     OW13729   3.389   3.163   3.093 -0.0961  0.3596 -0.5770
 4274SOL    HW113730   3.460   3.224   3.110 -0.0070 -0.0331  0.5124
 4274SOL    HW213731   3.433   3.078   3.082 -0.3832  0.1148  0.1035
 4275SOL     OW13732   0.236   4.613   0.157  0.0314 -0.1283 -0.2816
 4275SOL    HW113733   0.297   4.592   0.086 -0.1542 -0.6286 -0.2966
 4275SOL    HW213734   0.258   4.702   0.182  0.4061 -0.1134 -0.6592
 4276SOL     OW13735   1.757   2.442   4.578  0.9437 -0.0927 -0.5064
 4276SOL    HW113736   1.725   2.423   4.666 -1.1596 -0.1939 -1.2384
 4276SOL    HW213737   1.820   2.513   4.590  0.4994  0.0619  1.0638
 4277SOL     OW13738   2.257   3.293   2.993 -0.4126  0.2794  0.0341
 4277SOL    HW113739   2.237   3.200   2.999 -2.3479  0.6534  0.1023
 4277SOL    HW213740   2.284   3.306   2.902 -2.0874 -0.0521 -0.5465
 4278SOL     OW13741   4.602   0.889   1.481 -0.2070  0.1908  0.0710
 4278SOL    HW113742   4.666   0.926   1.421  0.2658  0.6814  0.8670
 4278SOL    HW213743   4.534   0.956   1.487  1.0983  1.4287  2.2442
 4279SOL     OW13744   3.828   2.343   0.398  0.1271  0.2207  0.0105
 4279SOL    HW113745   3.800   2.410   0.334 -1.5252 -0.0390  0.4159
 4279SOL    HW213746   3.898   2.295   0.353  0.4785  1.4153 -0.7686
 4280SOL     OW13747   5.246   0.421   5.271 -0.5900 -0.2650  0.5881
 4280SOL    HW113748   5.214   0.432   5.181 -0.5897 -1.0132  0.4902
 4280SOL    HW213749   5.279   0.331   5.274  0.2611  0.0516  1.0754
 4281SOL     OW13750   5.569   2.530   3.164 -0.0468 -0.0607  0.2050
 4281SOL    HW113751   5.583   2.500   3.254 -1.1489 -0.7425  0.1753
 4281SOL    HW213752   5.531   2.454   3.119  0.5619  0.2498 -0.8570
 4282SOL     OW13753   6.839   6.151   4.002  0.5177  0.3794  0.1767
 4282SOL    HW113754   6.816   6.244   4.003  1.5638  0.6493  1.0907
 4282SOL    HW213755   6.759   6.107   4.029  0.6437  1.2036  2.0594
 4283SOL     OW13756   6.896   0.725   3.906  0.1108  0.0398  0.7503
 4283SOL    HW113757   6.888   0.812   3.868 -0.8793 -0.3874 -0.0845
 4283SOL    HW213758   6.844   0.669   3.849  0.1015 -0.9685  1.7028
 4284SOL     OW13759   2.110   0.899   0.536  0.2365  0.0743  0.5796
 4284SOL    HW113760   2.058   0.920   0.614  1.0509  0.4271  1.0405
 4284SOL    HW213761   2.197   0.933   0.556  0.1514  1.3599 -1.0082
 4285SOL     OW13762   3.714   4.678   4.233 -0.5761  0.0099  0.1331
 4285SOL    HW113763   3.722   4.624   4.311  0.1496  1.2507  0.9302
 4285SOL    HW213764   3.671   4.758   4.263  1.8186  1.5056 -0.2048
 4286SOL     OW13765   2.940   0.286   4.603  0.7198  0.0435 -0.9565
 4286SOL    HW113766   2.893   0.369   4.609 -1.1584 -1.0057 -0.4070
 4286SOL    HW213767   3.015   0.297   4.663 -0.4683  0.7311  0.4765
 4287SOL     OW13768   7.500   4.430   3.571 -0.4594 -0.2871  0.4087
 4287SOL    HW113769   7.452   4.458   3.493  1.9416  0.6998 -0.8273
 4287SOL    HW213770   7.514   4.511   3.620 -2.1659 -0.9287  2.1073
 4288SOL     OW13771   3.575   1.691   3.073 -0.2871 -0.0995 -0.3047
 4288SOL    HW113772   3.586   1.596   3.082  1.9788 -0.1804 -2.7809
 4288SOL    HW213773   3.637   1.729   3.135  0.3930 -0.2946 -0.8556
 4289SOL     OW13774   1.277   4.817   5.259  0.1388 -0.3071  0.0878
 4289SOL    HW113775   1.346   4.881   5.241 -1.1351  1.1802  0.2305
 4289SOL    HW213776   1.252   4.783   5.173  1.5446 -1.4389  0.0987
 4290SOL     OW13777   0.543   3.447   6.912 -0.2769 -0.1198 -0.1090
 4290SOL    HW113778   0.540   3.528   6.861 -1.3380  0.0550  0.1950
 4290SOL    HW213779   0.526   3.476   7.002  0.5884 -0.5415  0.2032
 4291SOL     OW13780   0.242   3.428   0.817 -0.8072  0.3091 -0.4060
 4291SOL    HW113781   0.234   3.509   0.868 -0.6645  1.7053 -2.4923
 4291SOL    HW213782   0.323   3.440   0.767 -0.5332 -1.3580 -0.4044
 4292SOL     OW13783   4.393   0.631   5.437  0.0696  0.7029  0.2705
 4292SOL    HW113784   4.445   0.709   5.420  1.6522 -0.3774 -0.0108
 4292SOL    HW213785   4.449   0.558   5.410 -0.3206 -0.6969  2.9551
 4293SOL     OW13786   4.459   5.353   3.613 -0.4835 -0.3621 -0.6201
 4293SOL    HW113787   4.433   5.263   3.634  1.1813 -0.6984  0.2189
 4293SOL    HW213788   4.505   5.383   3.691 -0.6016  1.0511 -1.0756
 4294SOL     OW13789   4.066   2.207   0.294  0.4359  0.8496 -0.0600
 4294SOL    HW113790   4.122   2.276   0.260  0.9238  1.3879  1.7210
 4294SOL    HW213791   4.095   2.128   0.249  1.5087  1.4105 -0.3892
 4295SOL     OW13792   2.709   7.212   5.304  0.4915  0.0704 -0.5329
 4295SOL    HW113793   2.634   7.255   5.345 -0.3141 -1.1623 -0.6394
 4295SOL    HW213794   2.785   7.249   5.348 -0.2064  0.9658 -0.0437
 4296SOL     OW13795   6.393   3.994   6.177  0.0978  0.0127  0.5559
 4296SOL    HW113796   6.320   4.055   6.172  0.6697  0.7718  1.2843
 4296SOL    HW213797   6.470   4.049   6.192  0.7483 -0.8151  0.3469
 4297SOL     OW13798   4.139   6.139   2.192  0.1062  0.5165  0.1976
 4297SOL    HW113799   4.140   6.106   2.102 -0.3006  0.8962  0.0483
 4297SOL    HW213800   4.230   6.162   2.211  0.8403 -2.5997  1.0432
 4298SOL     OW13801   6.938   2.987   1.095 -0.2684 -0.6325 -0.0711
 4298SOL    HW113802   6.944   3.015   1.003 -0.3869 -0.5081 -0.0405
 4298SOL    HW213803   7.002   3.041   1.140 -1.1083  0.2098  0.1380
 4299SOL     OW13804   0.396   5.853   5.509  0.4859 -0.6202 -0.0456
 4299SOL    HW113805   0.307   5.883   5.527  0.4639  0.8619 -2.1753
 4299SOL    HW213806   0.441   5.855   5.594 -1.9484 -3.3739  1.5014
 4300SOL     OW13807   4.575   4.542   2.389  0.3201 -0.4397 -0.4991
 4300SOL    HW113808   4.560   4.604   2.317  0.9130  1.1868  0.7255
 4300SOL    HW213809   4.670   4.537   2.397  0.2808 -1.4642 -0.5019
 4301SOL     OW13810   0.198   1.222   4.299  0.1258 -0.8158 -0.4165
 4301SOL    HW113811   0.170   1.306   4.334  2.2522 -0.9038  1.7865
 4301SOL    HW213812   0.124   1.163   4.318  0.5837 -0.5350  2.9388
 4302SOL     OW13813   0.626   5.029   3.961 -0.3291  0.0958  0.4112
 4302SOL    HW113814   0.639   4.943   4.001 -0.5140  0.6636  1.7339
 4302SOL    HW213815   0.544   5.061   3.997  0.0468  1.0900  0.4303
 4303SOL     OW13816   2.185   6.429   3.661 -0.8387 -0.3421  0.1374
 4303SOL    HW113817   2.181   6.343   3.619  2.4084 -1.6253  2.0888
 4303SOL    HW213818   2.268   6.466   3.631 -0.3631  0.4152  2.2018
 4304SOL     OW13819   1.448   4.208   1.272  0.0957 -0.1306  0.5587
 4304SOL    HW113820   1.535   4.192   1.308  0.7681 -0.7901 -1.2431
 4304SOL    HW213821   1.394   4.138   1.309  1.4822 -2.7351 -1.9663
 4305SOL     OW13822   3.540   3.632   0.862 -0.2762  0.2661  0.4284
 4305SOL    HW113823   3.511   3.650   0.772 -0.1216  0.4033  0.4037
 4305SOL    HW213824   3.469   3.663   0.917  0.3769  1.8485  0.4274
 4306SOL     OW13825   2.765   1.575   7.066 -0.0025  0.7469  0.4508
 4306SOL    HW113826   2.767   1.481   7.048 -0.7560  0.9708 -0.9589
 4306SOL    HW213827   2.857   1.602   7.063  0.2954 -0.0617  1.6545
 4307SOL     OW13828   0.587   2.703   3.702  0.0280  0.0634  0.4931
 4307SOL    HW113829   0.605   2.639   3.770 -2.1260 -0.6188  0.4871
 4307SOL    HW213830   0.613   2.787   3.740 -0.3750 -0.4054  1.8609
 4308SOL     OW13831   0.949   1.023   5.641  0.2223  0.2472  0.2239
 4308SOL    HW113832   0.878   0.974   5.599 -0.7669  2.4791 -0.8770
 4308SOL    HW213833   0.907   1.075   5.709  1.3530 -0.9030  1.8761
 4309SOL     OW13834   3.448   5.361   0.601 -0.6556  0.0446 -0.1335
 4309SOL    HW113835   3.365   5.338   0.558 -0.2356  0.4755 -1.1785
 4309SOL    HW213836   3.421   5.398   0.685 -1.4940 -0.5427 -0.1326
 4310SOL     OW13837   2.228   7.505   0.374 -0.1208 -0.0851 -0.0014
 4310SOL    HW113838   2.152   7.497   0.432  0.3653 -1.7485  0.4672
 4310SOL    HW213839   2.260   7.415   0.365  1.0725  0.4306 -1.1733
 4311SOL     OW13840   7.000   7.087   0.651 -0.4002 -0.1694  0.3508
 4311SOL    HW113841   6.916   7.109   0.612 -0.0448  1.4556  0.4313
 4311SOL    HW213842   7.059   7.157   0.623  0.7775 -0.9305  0.8177
 4312SOL     OW13843   4.497   3.801   0.438  0.6901 -0.2756 -0.0976
 4312SOL    HW113844   4.552   3.802   0.360  1.0015 -0.7692  0.1025
 4312SOL    HW213845   4.558   3.784   0.510  0.2554 -1.0429  0.1051
 4313SOL     OW13846   0.477   3.633   5.154  0.1497  0.5887  0.4341
 4313SOL    HW113847   0.536   3.601   5.085  0.2694  1.7800 -0.0368
 4313SOL    HW213848   0.468   3.559   5.214  1.2647  0.0313 -0.0559
 4314SOL     OW13849   0.767   6.780   2.728  0.1802  0.3927  0.4728
 4314SOL    HW113850   0.801   6.868   2.711  1.3228 -0.1293 -0.1234
 4314SOL    HW213851   0.673   6.787   2.717  0.2964  1.4738  0.0680
 4315SOL     OW13852   0.772   7.627   4.494 -0.1970  0.0485 -0.2851
 4315SOL    HW113853   0.861   7.658   4.510 -0.3956  0.1772  0.6462
 4315SOL    HW213854   0.745   7.588   4.577 -0.9021 -0.2589 -0.6474
 4316SOL     OW13855   5.014   0.703   0.064  0.3580  0.6379  0.9556
 4316SOL    HW113856   5.099   0.670   0.034 -0.0989  0.8100 -0.5710
 4316SOL    HW213857   5.014   0.683   0.158  1.3470 -0.9918  0.6594
 4317SOL     OW13858   0.704   1.703   1.171  0.0243  0.2486 -0.3710
 4317SOL    HW113859   0.752   1.774   1.214 -0.3093  0.8456 -0.9534
 4317SOL    HW213860   0.712   1.629   1.231 -1.5460  1.4128  1.4030
 4318SOL     OW13861   4.461   5.918   4.015 -0.2050  0.5035 -0.1488
 4318SOL    HW113862   4.488   5.877   4.097 -2.1011  0.2837  0.4075
 4318SOL    HW213863   4.541   5.921   3.963  0.8158 -0.3296  1.2884
 4319SOL     OW13864   4.215   6.064   1.380 -0.0202 -0.0251 -0.2677
 4319SOL    HW113865   4.289   6.047   1.321 -0.1226 -1.8901  0.0798
 4319SOL    HW213866   4.254   6.109   1.454  0.2376  1.6675 -1.3769
 4320SOL     OW13867   6.597   7.012   4.516  0.3266  0.0957 -0.3729
 4320SOL    HW113868   6.596   6.954   4.592 -2.6410 -2.1556 -1.9537
 4320SOL    HW213869   6.557   7.093   4.548  0.4079 -0.3012  0.7882
 4321SOL     OW13870   5.528   6.326   6.215  0.3671  0.1028 -0.2395
 4321SOL    HW113871   5.537   6.335   6.310  1.6330  0.1713 -0.3507
 4321SOL    HW213872   5.578   6.399   6.179  1.1935 -0.7913 -0.9685
 4322SOL     OW13873   0.696   5.267   1.684 -0.0916  0.1125  0.2364
 4322SOL    HW113874   0.604   5.241   1.681 -0.2121  0.5433  0.2406
 4322SOL    HW213875   0.698   5.342   1.743  0.3944 -0.4310  0.9236
 4323SOL     OW13876   5.180   4.137   1.761  0.5271  0.3619  0.0674
 4323SOL    HW113877   5.106   4.137   1.822  1.4872 -1.2931  1.3216
 4323SOL    HW213878   5.193   4.229   1.738 -1.5792  0.7432  0.2051
 4324SOL     OW13879   7.548   4.090   7.131  0.4717  0.1427 -0.5590
 4324SOL    HW113880   7.595   4.164   7.169  2.2105  0.0405 -2.3224
 4324SOL    HW213881   7.478   4.130   7.080 -0.6736  0.3624  1.1151
 4325SOL     OW13882   0.275   2.217   2.083  0.2532  0.1711  0.0529
 4325SOL    HW113883   0.180   2.227   2.072  0.3247  2.2950  0.9222
 4325SOL    HW213884   0.288   2.122   2.089 -1.8633 -0.1601  0.3105
 4326SOL     OW13885   3.318   5.330   1.690 -0.8395 -0.3743  0.7067
 4326SOL    HW113886   3.300   5.410   1.642 -2.1751  0.7366  2.9016
 4326SOL    HW213887   3.414   5.323   1.689 -0.7954 -0.3851 -1.9252
 4327SOL     OW13888   1.335   3.241   6.179  0.7889 -0.4041  0.3927
 4327SOL    HW113889   1.323   3.198   6.094 -1.2403  0.1938  0.3223
 4327SOL    HW213890   1.428   3.264   6.181  1.0111 -0.9289 -1.4213
 4328SOL     OW13891   5.911   0.921   1.182  0.1716 -0.0283 -0.3717
 4328SOL    HW113892   5.952   0.884   1.104  0.8482  1.1710 -0.6136
 4328SOL    HW213893   5.854   0.851   1.215  1.2406 -1.2030 -0.9067
 4329SOL     OW13894   5.763   4.272   4.378 -0.3568 -0.4793  0.0449
 4329SOL    HW113895   5.702   4.232   4.440  1.4873 -1.5056  1.3183
 4329SOL    HW213896   5.708   4.319   4.316 -2.5130 -2.7023  0.1396
 4330SOL     OW13897   4.130   3.789   3.175  0.2614 -0.6496 -0.1777
 4330SOL    HW113898   4.189   3.864   3.183  1.2452 -1.5570  1.7840
 4330SOL    HW213899   4.155   3.731   3.247 -3.1186 -1.0371  0.8341
 4331SOL     OW13900   0.334   4.667   6.092 -0.3865  0.0765 -0.7311
 4331SOL    HW113901   0.350   4.708   6.177 -1.7874  0.4410 -0.6231
 4331SOL    HW213902   0.422   4.645   6.060  0.3728  2.1201 -0.2805
 4332SOL     OW13903   4.286   3.438   2.694 -0.4187 -0.4328 -0.3420
 4332SOL    HW113904   4.311   3.359   2.646  0.8375  0.8180 -1.8100
 4332SOL    HW213905   4.234   3.489   2.632 -3.4449 -1.1560  1.3862
 4333SOL     OW13906   7.069   1.206   0.050 -0.2638  0.4923 -0.9274
 4333SOL    HW113907   7.032   1.141  -0.010  0.8589  1.0639 -2.2774
 4333SOL    HW213908   6.998   1.268   0.064 -1.0088 -0.4306 -0.4508
 4334SOL     OW13909   3.000   1.959   6.982 -0.0531  0.5590  0.1326
 4334SOL    HW113910   2.935   1.892   6.960  0.8947  0.1414 -1.6665
 4334SOL    HW213911   3.080   1.929   6.938  0.8890  1.9353  0.8362
 4335SOL     OW13912   1.681   0.375   6.346  0.4436 -0.4484  0.0677
 4335SOL    HW113913   1.746   0.439   6.316  1.9657 -1.7207  0.5099
 4335SOL    HW213914   1.597   0.420   6.336  1.1674  0.5172 -2.5400
 4336SOL     OW13915   4.299   7.352   7.385  0.6785  0.2201  0.5371
 4336SOL    HW113916   4.245   7.366   7.463  0.5524 -3.0723  1.1596
 4336SOL    HW213917   4.238   7.354   7.312  0.1629 -0.4798  0.9386
 4337SOL     OW13918   1.675   3.522   3.434  0.1910  0.0603 -0.0672
 4337SOL    HW113919   1.726   3.441   3.433  0.2460  0.0361  1.4262
 4337SOL    HW213920   1.738   3.589   3.463  0.0644  0.5764 -0.9732
 4338SOL     OW13921   1.896   1.503   3.673  0.3768  0.4718  0.3486
 4338SOL    HW113922   1.842   1.438   3.628 -1.1271 -0.1175  2.7858
 4338SOL    HW213923   1.865   1.587   3.641 -0.1670  0.0586 -0.2248
 4339SOL     OW13924   4.327   5.660   1.772 -0.8574  0.0873  0.2353
 4339SOL    HW113925   4.259   5.709   1.817 -2.5730 -1.7145 -0.2639
 4339SOL    HW213926   4.361   5.600   1.839  0.9756  1.6067  0.7464
 4340SOL     OW13927   0.045   4.856   5.489 -0.6649  0.1455 -0.0413
 4340SOL    HW113928   0.008   4.944   5.492 -1.3505 -0.1605  0.9248
 4340SOL    HW213929  -0.011   4.804   5.547  0.7174 -0.5364  0.7375
 4341SOL     OW13930   3.030   4.873   2.371  0.2095 -0.6743  0.4378
 4341SOL    HW113931   2.999   4.800   2.317  0.5986 -1.8850  1.8077
 4341SOL    HW213932   3.056   4.833   2.453  2.1429  0.7694  0.5885
 4342SOL     OW13933   4.390   3.803   6.076 -0.1160  0.4696  0.0417
 4342SOL    HW113934   4.410   3.841   6.161  0.4490  2.8451 -1.0789
 4342SOL    HW213935   4.295   3.808   6.069 -0.2675 -0.6964  0.9030
 4343SOL     OW13936   5.871   1.426   2.354  0.4744  0.4323 -0.2216
 4343SOL    HW113937   5.778   1.445   2.343  0.2813 -0.3377  0.0151
 4343SOL    HW213938   5.874   1.357   2.420  1.0839 -0.9602 -1.6487
 4344SOL     OW13939   5.121   3.976   7.538  0.5967  0.2684 -0.2922
 4344SOL    HW113940   5.035   3.992   7.576  0.4933  0.2173 -0.5031
 4344SOL    HW213941   5.133   3.881   7.544  0.4494  0.2263 -0.6665
 4345SOL     OW13942   7.586   1.236   6.310  0.2170  0.2608  0.2324
 4345SOL    HW113943   7.603   1.206   6.400 -0.0671 -1.3475 -0.2317
 4345SOL    HW213944   7.548   1.161   6.266 -0.0660  1.1720 -1.1354
 4346SOL     OW13945   1.799   2.020   5.248  0.1805  0.3981 -0.4310
 4346SOL    HW113946   1.798   1.997   5.155 -1.8640  2.5554 -1.0678
 4346SOL    HW213947   1.813   1.937   5.293 -0.0315 -0.9211 -2.6247
 4347SOL     OW13948   0.068   0.967   7.050  0.3572  0.3697  0.4931
 4347SOL    HW113949   0.078   0.873   7.065  0.6214  0.2980 -0.1222
 4347SOL    HW213950   0.151   0.995   7.012  0.0788  0.7450  0.1513
 4348SOL     OW13951   6.014   1.139   3.592 -0.2675 -0.3422  0.1788
 4348SOL    HW113952   5.924   1.109   3.583 -0.4643  0.5653 -1.2819
 4348SOL    HW213953   6.051   1.134   3.503  0.2345  1.8659  0.1990
 4349SOL     OW13954   3.865   1.190   2.464  0.4460  0.3839 -1.4542
 4349SOL    HW113955   3.785   1.243   2.462  0.9373  1.1576 -1.3519
 4349SOL    HW213956   3.913   1.218   2.386  0.9415  0.4597 -1.1248
 4350SOL     OW13957   0.358   3.698   0.131 -0.1957 -0.1877 -0.4723
 4350SOL    HW113958   0.357   3.755   0.209 -2.1810 -0.2741 -0.3870
 4350SOL    HW213959   0.331   3.612   0.164 -0.7479 -0.3000 -1.1888
 4351SOL     OW13960   3.147   4.207   4.007 -0.3066  0.1032 -0.3677
 4351SOL    HW113961   3.149   4.114   3.981 -0.5533 -0.1256  0.4119
 4351SOL    HW213962   3.055   4.229   4.013 -0.2726  0.0095  0.7662
 4352SOL     OW13963   0.063   4.669   2.611 -0.0213 -0.5789  0.0066
 4352SOL    HW113964   0.138   4.660   2.670 -1.4011  0.1976  1.9800
 4352SOL    HW213965  -0.007   4.618   2.652 -0.8958 -0.4321 -1.2340
 4353SOL     OW13966   2.255   2.693   7.596 -0.0768 -0.0629 -0.4542
 4353SOL    HW113967   2.237   2.600   7.587  1.5322 -0.3572 -1.0385
 4353SOL    HW213968   2.345   2.703   7.564 -0.2365  1.6970 -0.4570
 4354SOL     OW13969   3.447   2.694   7.478  0.6868 -0.1182  0.1981
 4354SOL    HW113970   3.537   2.665   7.489  1.1596  0.6388 -1.3312
 4354SOL    HW213971   3.448   2.745   7.396 -1.0246  0.2974  0.3915
 4355SOL     OW13972   5.497   3.226   1.258 -0.7152  0.1295 -0.1612
 4355SOL    HW113973   5.472   3.289   1.191  2.2545  0.5082 -1.0601
 4355SOL    HW213974   5.563   3.271   1.311  0.3279 -1.6764  0.1545
 4356SOL     OW13975   0.175   0.220   0.602 -0.0493 -0.1856 -0.4663
 4356SOL    HW113976   0.123   0.257   0.673 -0.2228 -0.7981 -0.2678
 4356SOL    HW213977   0.112   0.208   0.530 -0.6587 -2.6773  0.3805
 4357SOL     OW13978   2.104   4.998   3.984  0.1307 -0.5097  0.4934
 4357SOL    HW113979   2.064   4.911   3.989  0.3850 -0.5646  1.9389
 4357SOL    HW213980   2.144   5.011   4.070  2.1255  0.0789 -0.4706
 4358SOL     OW13981   5.287   2.834   4.862  0.6410 -0.0354 -0.4076
 4358SOL    HW113982   5.242   2.764   4.815 -0.7330 -0.4225  1.3475
 4358SOL    HW213983   5.374   2.798   4.880  0.2741 -0.9363 -0.3610
 4359SOL     OW13984   7.674   2.227   6.782 -0.7079  0.3554 -0.0528
 4359SOL    HW113985   7.706   2.299   6.836 -1.0966  2.2829 -2.2117
 4359SOL    HW213986   7.738   2.157   6.795  0.5349  1.6136  1.0045
 4360SOL     OW13987   2.701   5.251   5.909 -0.2315 -0.2575  0.5865
 4360SOL    HW113988   2.762   5.315   5.873 -0.5084 -0.2044  0.2099
 4360SOL    HW213989   2.691   5.185   5.841 -1.0304  0.0277  0.4204
 4361SOL     OW13990   7.297   4.329   5.777  0.2022 -0.1569 -0.0118
 4361SOL    HW113991   7.275   4.421   5.788 -0.6193 -0.3524  0.0364
 4361SOL    HW213992   7.237   4.297   5.710  0.0732 -0.7980  0.3937
 4362SOL     OW13993   6.716   4.126   7.163  0.2028  0.7463 -0.4587
 4362SOL    HW113994   6.642   4.145   7.221  0.1187 -1.6750  0.3340
 4362SOL    HW213995   6.792   4.120   7.221  0.6008  0.8715 -0.9557
 4363SOL     OW13996   3.939   0.295   6.524  0.1631 -0.0549  0.7648
 4363SOL    HW113997   3.889   0.365   6.484 -0.6839 -0.2336  1.5002
 4363SOL    HW213998   3.937   0.313   6.618  2.2111  0.4155  0.7682
 4364SOL     OW13999   3.381   1.381   2.585  0.0852 -0.4442 -0.3343
 4364SOL    HW114000   3.396   1.433   2.665 -2.4727 -0.3917  0.1933
 4364SOL    HW214001   3.324   1.310   2.614 -0.7030 -0.5559 -2.0805
 4365SOL     OW14002   3.717   7.278   7.084 -0.6631  0.2636  0.4162
 4365SOL    HW114003   3.655   7.213   7.050 -0.6923 -0.2015  1.3312
 4365SOL    HW214004   3.774   7.229   7.143 -0.0344  0.8791  0.3347
 4366SOL     OW14005   4.143   4.754   4.856 -0.2850  0.5326  0.3966
 4366SOL    HW114006   4.073   4.800   4.809  0.0151  0.1237 -0.4804
 4366SOL    HW214007   4.217   4.755   4.795  0.6698  1.4546  1.5322
 4367SOL     OW14008   4.283   3.852   2.558  0.2755  0.2551  0.2358
 4367SOL    HW114009   4.223   3.796   2.607 -0.3246 -0.6464 -1.4396
 4367SOL    HW214010   4.230   3.927   2.532 -0.2306 -0.6025 -1.3540
 4368SOL     OW14011   1.461   6.418   0.154 -0.1381 -0.2176 -0.0411
 4368SOL    HW114012   1.505   6.471   0.088 -1.3353  0.5766 -0.2441
 4368SOL    HW214013   1.517   6.424   0.231  0.7683 -0.3324 -0.6866
 4369SOL     OW14014   0.277   0.539   3.700  0.3993  0.1018  0.5357
 4369SOL    HW114015   0.289   0.619   3.648 -0.5718 -1.2614 -1.9453
 4369SOL    HW214016   0.340   0.477   3.664 -1.2466 -1.3205 -0.0586
 4370SOL     OW14017   3.142   0.459   6.984 -0.2241 -0.4407 -0.4086
 4370SOL    HW114018   3.076   0.393   7.007  0.0927 -0.7030 -0.2313
 4370SOL    HW214019   3.198   0.415   6.920  1.1915 -1.0732  1.1743
 4371SOL     OW14020   1.147   1.657   4.341  0.7312 -0.3662  0.1022
 4371SOL    HW114021   1.103   1.663   4.256 -1.8935 -1.1255  1.3085
 4371SOL    HW214022   1.198   1.576   4.336 -0.8186 -1.3691 -0.2002
 4372SOL     OW14023   4.076   2.657   6.084  0.0152  0.0717  0.0942
 4372SOL    HW114024   4.051   2.571   6.118  1.1292  0.0161  0.8357
 4372SOL    HW214025   4.002   2.714   6.103 -0.3421 -0.5148  0.4748
 4373SOL     OW14026   0.496   0.127   5.121  0.3677  0.5312 -0.0077
 4373SOL    HW114027   0.522   0.037   5.097 -0.9438 -0.5236  2.1948
 4373SOL    HW214028   0.579   0.174   5.130  1.1731 -0.8636  0.1737
 4374SOL     OW14029   4.903   2.429   0.406  0.2641 -0.2338 -0.5824
 4374SOL    HW114030   4.968   2.466   0.466  1.5873 -0.4538 -1.8207
 4374SOL    HW214031   4.844   2.503   0.387  0.9243  0.3350 -0.4629
 4375SOL     OW14032   0.974   0.866   7.137 -0.3639  0.5498 -0.3778
 4375SOL    HW114033   0.939   0.868   7.048  1.7038 -0.2163 -1.2702
 4375SOL    HW214034   1.001   0.775   7.150  0.6827  0.9595  0.4677
 4376SOL     OW14035   2.957   5.415   6.838 -0.0193  0.4357 -0.0960
 4376SOL    HW114036   2.989   5.326   6.849 -3.8271 -0.9178  1.6033
 4376SOL    HW214037   2.921   5.417   6.749  2.5285  1.2907 -1.1964
 4377SOL     OW14038   0.592   3.811   1.071  0.5496 -0.0701 -0.2606
 4377SOL    HW114039   0.675   3.817   1.024 -0.5012 -1.0605 -2.3932
 4377SOL    HW214040   0.588   3.721   1.102 -0.8095 -0.8433 -2.4704
 4378SOL     OW14041   6.784   5.787   6.103  0.0086 -0.3104 -0.1014
 4378SOL    HW114042   6.854   5.830   6.153  0.6928  0.2183 -1.4349
 4378SOL    HW214043   6.808   5.804   6.011 -0.2752 -2.6711 -0.6626
 4379SOL     OW14044   7.341   4.551   7.371  0.1130  0.6893 -0.3422
 4379SOL    HW114045   7.294   4.627   7.337 -0.3582  0.7110  0.3338
 4379SOL    HW214046   7.273   4.498   7.413  0.5604  0.2851 -0.1192
 4380SOL     OW14047   3.166   0.691   5.238 -0.1217 -0.2739  0.8380
 4380SOL    HW114048   3.149   0.661   5.327  2.2393  1.0091  1.8230
 4380SOL    HW214049   3.231   0.629   5.204 -0.4673 -0.3271  0.2561
 4381SOL     OW14050   4.121   0.495   4.847 -0.7010  0.0282 -0.4800
 4381SOL    HW114051   4.032   0.498   4.812 -0.7348 -1.3687 -0.5925
 4381SOL    HW214052   4.129   0.407   4.884  0.6818  0.0601 -0.6386
 4382SOL     OW14053   3.594   2.655   1.411  0.3302 -0.5487 -0.2503
 4382SOL    HW114054   3.630   2.735   1.372  1.5520 -1.2358 -0.5946
 4382SOL    HW214055   3.661   2.588   1.395 -0.5772 -1.6028  0.2009
 4383SOL     OW14056   7.416   2.210   6.773  0.3172  0.2057 -0.1851
 4383SOL    HW114057   7.386   2.285   6.824  0.1397 -0.4766  0.7583
 4383SOL    HW214058   7.512   2.216   6.776  0.3400 -0.4154  1.1907
 4384SOL     OW14059   6.596   6.272   0.201  0.6558  0.4436  0.9545
 4384SOL    HW114060   6.613   6.347   0.145 -0.5851 -0.1288 -0.2227
 4384SOL    HW214061   6.622   6.196   0.149  0.7575 -0.0335  1.6771
 4385SOL     OW14062   1.072   0.624   7.126  0.0221  0.2935 -0.1535
 4385SOL    HW114063   1.151   0.638   7.074 -0.8263 -0.7508 -1.8245
 4385SOL    HW214064   1.063   0.529   7.133 -0.7219  0.4012  0.6081
 4386SOL     OW14065   2.272   6.595   6.719 -0.0188  0.4013 -0.1334
 4386SOL    HW114066   2.187   6.638   6.723 -0.5241 -0.7012  2.5162
 4386SOL    HW214067   2.331   6.655   6.765  0.1489  0.1177  0.0201
 4387SOL     OW14068   5.156   4.303   0.350  1.0700 -0.0544  0.2738
 4387SOL    HW114069   5.249   4.322   0.361  0.4375  3.1450  1.1588
 4387SOL    HW214070   5.119   4.313   0.438 -0.3228  0.1863 -0.3083
 4388SOL     OW14071   5.402   7.577   0.358  0.4718  0.0499 -0.0348
 4388SOL    HW114072   5.323   7.620   0.327 -0.3113 -1.4898 -0.2457
 4388SOL    HW214073   5.396   7.582   0.454  1.3466  2.0388 -0.0336
 4389SOL     OW14074   7.179   1.724   5.305 -0.3088  0.6904  0.0984
 4389SOL    HW114075   7.258   1.762   5.267 -0.6370  1.3708  0.0927
 4389SOL    HW214076   7.130   1.689   5.230 -0.0782  0.3772  0.0903
 4390SOL     OW14077   3.580   5.495   5.058  0.1147  0.0369  0.7063
 4390SOL    HW114078   3.653   5.433   5.050 -0.9881 -1.6829  2.7811
 4390SOL    HW214079   3.560   5.521   4.968  2.2244 -0.6660 -0.0353
 4391SOL     OW14080   1.008   7.319   2.654 -0.4908  0.2070 -0.3453
 4391SOL    HW114081   1.074   7.385   2.634  0.3007 -0.6707 -0.7673
 4391SOL    HW214082   0.954   7.358   2.723  3.6532 -0.8246  4.0848
 4392SOL     OW14083   5.172   2.700   1.524  0.5450 -0.5608 -0.4037
 4392SOL    HW114084   5.264   2.709   1.502  0.7182 -1.5189 -0.1396
 4392SOL    HW214085   5.136   2.788   1.515  1.6276 -0.0419  0.1705
 4393SOL     OW14086   6.662   7.327   4.365 -0.1189 -0.1585  0.1453
 4393SOL    HW114087   6.698   7.358   4.449 -0.0323 -0.6996  0.3133
 4393SOL    HW214088   6.671   7.402   4.306 -1.1426  0.5822  0.9009
 4394SOL     OW14089   0.771   2.521   2.601  0.1252 -0.3166 -0.1655
 4394SOL    HW114090   0.837   2.552   2.538  0.9201  0.9109  1.2201
 4394SOL    HW214091   0.744   2.599   2.648  0.9722 -1.4229  2.3374
 4395SOL     OW14092   5.179   7.702   3.185  0.2136  0.5227  0.8727
 4395SOL    HW114093   5.101   7.660   3.147  1.2908 -1.4301  0.6720
 4395SOL    HW214094   5.150   7.732   3.271 -0.2471 -2.2606  1.8081
 4396SOL     OW14095   7.110   6.699   2.316 -0.5518 -1.0385 -0.2489
 4396SOL    HW114096   7.191   6.723   2.272 -1.2465  1.5895 -0.2546
 4396SOL    HW214097   7.132   6.699   2.409 -1.1704  3.2428  0.0880
 4397SOL     OW14098   7.701   2.891   0.225 -0.4918  0.0606  0.5038
 4397SOL    HW114099   7.717   2.962   0.164  0.8203  1.1162  1.9837
 4397SOL    HW214100   7.644   2.929   0.292  1.3155  0.2342  2.0451
 4398SOL     OW14101   3.287   5.364   6.649 -0.5629 -0.2383  0.1359
 4398SOL    HW114102   3.294   5.350   6.743 -0.5057  0.5778  0.2596
 4398SOL    HW214103   3.328   5.449   6.634 -0.8060 -0.2396 -0.5875
 4399SOL     OW14104   5.424   4.122   5.919 -0.1409 -0.3401 -0.4805
 4399SOL    HW114105   5.362   4.166   5.861 -0.0301 -0.3718 -0.6256
 4399SOL    HW214106   5.438   4.037   5.878 -0.5218 -0.5977 -0.0853
 4400SOL     OW14107   3.913   3.025   5.842  0.0070 -0.5952 -0.1140
 4400SOL    HW114108   3.919   3.083   5.765 -1.2522 -0.4270 -0.1100
 4400SOL    HW214109   3.833   3.053   5.886  0.5078 -0.9571  1.0571
 4401SOL     OW14110   4.508   4.818   2.012 -0.7229 -0.0832  0.0612
 4401SOL    HW114111   4.600   4.844   2.012 -0.8573  0.3974  0.8337
 4401SOL    HW214112   4.507   4.733   1.967  0.4723 -1.3873  2.3547
 4402SOL     OW14113   1.417   4.542   0.938 -0.6391 -0.0210  0.0133
 4402SOL    HW114114   1.409   4.450   0.962 -0.5041 -0.0847 -0.1859
 4402SOL    HW214115   1.450   4.541   0.849 -1.2221  0.2099 -0.2162
 4403SOL     OW14116   5.846   5.163   0.117  0.2463  0.4109  0.1534
 4403SOL    HW114117   5.806   5.241   0.077  0.3299  1.2557  1.6253
 4403SOL    HW214118   5.929   5.153   0.071  0.7388  1.8728  0.6476
 4404SOL     OW14119   4.043   2.723   5.247 -0.6007  0.0426  0.2579
 4404SOL    HW114120   4.110   2.731   5.179 -1.6952  1.6493 -0.6934
 4404SOL    HW214121   4.045   2.807   5.292 -0.5401 -0.6719  1.6441
 4405SOL     OW14122   5.849   5.168   2.439 -0.2939 -0.2460 -0.1654
 4405SOL    HW114123   5.813   5.227   2.505 -0.1961  0.1150 -0.4292
 4405SOL    HW214124   5.782   5.100   2.429 -0.3180 -0.2921  0.2861
 4406SOL     OW14125   5.660   4.736   4.257  0.1960  0.2305  0.0208
 4406SOL    HW114126   5.699   4.811   4.212 -2.1105  1.1159 -0.6183
 4406SOL    HW214127   5.693   4.660   4.208  0.6512  0.9600 -0.8493
 4407SOL     OW14128   4.086   5.027   3.076 -0.0011 -0.5828  0.1222
 4407SOL    HW114129   4.065   4.941   3.040  1.0695 -0.7235 -0.1870
 4407SOL    HW214130   4.131   5.073   3.005  0.6827 -0.2809  0.7413
 4408SOL     OW14131   6.830   6.862   4.126 -0.9098  0.2827  0.0731
 4408SOL    HW114132   6.785   6.793   4.175 -0.6934  0.0980  0.0108
 4408SOL    HW214133   6.793   6.943   4.161  0.8468  0.2802  2.2047
 4409SOL     OW14134   2.051   4.435   0.006 -0.0030 -0.3093  0.3204
 4409SOL    HW114135   2.117   4.442  -0.064 -0.1744  0.6171  0.2392
 4409SOL    HW214136   2.093   4.475   0.082  0.1148 -1.1556  0.7099
 4410SOL     OW14137   5.102   6.195   2.213  0.2969  0.3237  0.1553
 4410SOL    HW114138   5.181   6.145   2.193 -0.6562 -0.8895 -0.8163
 4410SOL    HW214139   5.085   6.245   2.134  0.5738  1.2838  0.6906
 4411SOL     OW14140   6.712   4.695   7.192  0.7517 -0.5891  0.5234
 4411SOL    HW114141   6.698   4.672   7.284  0.7752 -0.2599  0.6108
 4411SOL    HW214142   6.772   4.770   7.195  0.1523 -0.0954  0.2748
 4412SOL     OW14143   2.290   6.069   2.474 -0.1785  0.1095 -0.4999
 4412SOL    HW114144   2.385   6.074   2.468  0.3073 -0.1699  3.7324
 4412SOL    HW214145   2.273   5.982   2.511 -1.9848  0.5706 -0.1560
 4413SOL     OW14146   1.163   4.748   0.094  0.0596  0.4951  0.1047
 4413SOL    HW114147   1.075   4.720   0.118  0.2539  0.8352  1.2742
 4413SOL    HW214148   1.216   4.669   0.104 -0.3024 -0.0466 -1.8528
 4414SOL     OW14149   2.687   3.023   0.075  0.0438 -0.6348  0.0054
 4414SOL    HW114150   2.703   2.928   0.072  0.3634 -0.5721 -0.4624
 4414SOL    HW214151   2.716   3.050   0.162 -1.8600 -1.2697  0.8987
 4415SOL     OW14152   5.891   6.267   6.606 -0.0549 -0.0248  0.3019
 4415SOL    HW114153   5.867   6.199   6.543 -0.9036  0.1522  0.4162
 4415SOL    HW214154   5.978   6.241   6.637  1.5842  1.2791 -2.8158
 4416SOL     OW14155   5.076   2.073   2.047  0.5601  0.1695 -0.7066
 4416SOL    HW114156   5.119   2.116   2.120 -1.4865  0.9663  0.1034
 4416SOL    HW214157   5.066   2.142   1.981  1.2208 -0.2231 -1.2391
 4417SOL     OW14158   5.192   6.334   6.863 -0.0856 -0.1858  0.1265
 4417SOL    HW114159   5.173   6.428   6.856 -1.2421 -0.4984 -1.4801
 4417SOL    HW214160   5.126   6.302   6.924  0.2772  0.0251  0.6376
 4418SOL     OW14161   7.080   2.562   0.207 -0.2154 -0.1461 -0.0671
 4418SOL    HW114162   7.065   2.651   0.236  0.3044  0.5549 -1.7809
 4418SOL    HW214163   6.993   2.528   0.187 -0.3426  0.4259 -0.5445
 4419SOL     OW14164   3.300   1.115   3.859 -0.1480 -0.1970  0.1346
 4419SOL    HW114165   3.332   1.174   3.928 -0.7991  0.9306 -0.4926
 4419SOL    HW214166   3.311   1.165   3.778 -2.1044 -0.3368 -0.2698
 4420SOL     OW14167   1.097   3.578   2.515 -0.6201  0.5895  0.2275
 4420SOL    HW114168   1.145   3.595   2.596 -1.3576  1.2913  0.5270
 4420SOL    HW214169   1.013   3.543   2.544  0.2859 -2.3620 -0.3239
 4421SOL     OW14170   7.129   3.135   0.701 -0.2446  0.6707 -0.1942
 4421SOL    HW114171   7.037   3.139   0.727 -0.7318  0.9142 -1.8460
 4421SOL    HW214172   7.177   3.163   0.779 -1.3374 -2.1585  1.6461
 4422SOL     OW14173   0.715   5.819   0.711  0.4985 -0.3278 -0.3954
 4422SOL    HW114174   0.722   5.781   0.799  1.3499  0.0914 -0.2750
 4422SOL    HW214175   0.646   5.768   0.669  0.4874 -0.9234  0.3179
 4423SOL     OW14176   4.213   3.020   5.824  0.3174 -0.2900  0.2401
 4423SOL    HW114177   4.210   2.930   5.856 -2.1307 -0.8404 -1.2750
 4423SOL    HW214178   4.132   3.060   5.858 -0.1908  0.3669 -1.6178
 4424SOL     OW14179   0.775   4.554   0.702 -0.0263  0.0513 -0.0414
 4424SOL    HW114180   0.840   4.502   0.750 -1.8459 -0.9625  1.4679
 4424SOL    HW214181   0.719   4.489   0.659 -1.3796  0.7965  0.5371
 4425SOL     OW14182   6.447   3.706   5.413  0.3911  0.1042  0.2881
 4425SOL    HW114183   6.369   3.672   5.458  0.8630  0.2082  1.1956
 4425SOL    HW214184   6.520   3.659   5.453  0.7643 -0.4698 -1.0066
 4426SOL     OW14185   0.084   5.412   5.278  0.2769 -0.2108 -0.2488
 4426SOL    HW114186   0.178   5.402   5.292  0.3031  1.3301  0.9942
 4426SOL    HW214187   0.077   5.482   5.212 -0.0155 -1.4880 -1.6444
 4427SOL     OW14188   0.685   6.850   0.156 -0.1574  0.0801 -0.0262
 4427SOL    HW114189   0.694   6.885   0.068 -0.1207  0.0151 -0.0478
 4427SOL    HW214190   0.759   6.886   0.205 -0.3357  0.3473  0.0529
 4428SOL     OW14191   1.753   3.284   6.009 -0.0805 -0.1277 -0.4514
 4428SOL    HW114192   1.721   3.272   6.098  1.5833  0.1703  0.2243
 4428SOL    HW214193   1.744   3.378   5.992 -1.3060 -0.3208 -0.9946
 4429SOL     OW14194   4.937   4.260   6.157  1.0430 -0.2848  0.3650
 4429SOL    HW114195   4.913   4.285   6.246  1.0178  0.9667  0.0281
 4429SOL    HW214196   5.033   4.252   6.160  1.1177  0.4634  0.3595
 4430SOL     OW14197   5.658   6.811   2.403 -0.2175 -0.2875  0.3981
 4430SOL    HW114198   5.637   6.798   2.310  0.4068 -1.4093  0.3900
 4430SOL    HW214199   5.651   6.723   2.442 -1.0477  0.2664  1.5517
 4431SOL     OW14200   3.879   4.281   0.213 -0.4523 -0.4932 -0.2278
 4431SOL    HW114201   3.787   4.275   0.238 -0.7502 -2.1334 -1.5142
 4431SOL    HW214202   3.893   4.207   0.153  1.2908  0.6413 -1.3458
 4432SOL     OW14203   3.031   3.075   3.635 -0.0198  0.5725  0.5475
 4432SOL    HW114204   3.088   3.042   3.566 -0.1928  1.3444  0.0246
 4432SOL    HW214205   2.970   3.133   3.590  0.9858  2.5004  1.5610
 4433SOL     OW14206   1.466   3.188   2.994  0.0469  0.5270  0.0379
 4433SOL    HW114207   1.402   3.256   2.976 -0.9218 -0.5760 -0.8721
 4433SOL    HW214208   1.414   3.112   3.022  0.9972 -0.1553  0.0202
 4434SOL     OW14209   4.047   3.587   6.998  0.1568 -0.0413 -0.0146
 4434SOL    HW114210   4.064   3.613   6.908 -2.3329  2.6398  0.1399
 4434SOL    HW214211   3.994   3.658   7.035 -0.4001 -1.8234  3.0435
 4435SOL     OW14212   5.628   6.792   5.757 -0.1383  0.2547 -0.3784
 4435SOL    HW114213   5.721   6.795   5.734 -0.7065 -1.1205 -3.3759
 4435SOL    HW214214   5.584   6.826   5.679 -2.1897  0.5539  0.8432
 4436SOL     OW14215   6.547   5.521   7.294 -0.0302  0.4448  0.9929
 4436SOL    HW114216   6.597   5.489   7.369  0.4140  0.6757  0.7978
 4436SOL    HW214217   6.548   5.616   7.304  1.0860  0.5660  0.0418
 4437SOL     OW14218   0.332   4.745   7.489 -0.1166 -0.4072 -0.0835
 4437SOL    HW114219   0.287   4.763   7.407  1.0661 -1.6780 -1.0725
 4437SOL    HW214220   0.418   4.787   7.480  0.9807 -2.5706 -0.6162
 4438SOL     OW14221   6.058   2.629   4.827 -0.0106  0.2037 -0.3639
 4438SOL    HW114222   6.092   2.562   4.887 -1.0275 -0.4329 -0.4711
 4438SOL    HW214223   6.135   2.675   4.795  0.5509  0.8438  1.7526
 4439SOL     OW14224   0.733   6.606   3.691  0.3653  0.1845 -0.2072
 4439SOL    HW114225   0.712   6.519   3.657  1.6222 -0.5270  0.7492
 4439SOL    HW214226   0.660   6.627   3.749  0.6220 -0.8157  0.5309
 4440SOL     OW14227   7.732   3.418   1.899  0.2850  0.3856 -0.0005
 4440SOL    HW114228   7.677   3.493   1.922  1.1710  1.3943 -1.0040
 4440SOL    HW214229   7.818   3.441   1.933  0.1102 -1.2265  1.6538
 4441SOL     OW14230   3.126   6.763   0.415  0.4915 -0.2427  0.0073
 4441SOL    HW114231   3.175   6.845   0.423  1.6540 -0.8250 -0.8969
 4441SOL    HW214232   3.173   6.702   0.472 -1.4041  0.1245  2.0951
 4442SOL     OW14233   3.701   5.495   5.802  0.2857 -0.1680 -0.4737
 4442SOL    HW114234   3.612   5.467   5.782  0.3812 -0.2552 -0.7703
 4442SOL    HW214235   3.749   5.488   5.720  0.0240  2.0004 -0.8812
 4443SOL     OW14236   6.104   0.959   4.224 -0.4092  0.3140 -0.1549
 4443SOL    HW114237   6.127   0.920   4.308  0.2852  1.7190  0.3241
 4443SOL    HW214238   6.182   1.008   4.198 -0.7966  0.3075 -1.3797
 4444SOL     OW14239   3.742   5.602   7.299 -0.2247 -0.0644 -0.4104
 4444SOL    HW114240   3.797   5.561   7.232  0.3997  3.0581 -2.0095
 4444SOL    HW214241   3.724   5.532   7.361 -0.1291 -2.9721 -3.3594
 4445SOL     OW14242   2.808   1.615   2.188 -0.3246  0.0537  0.5846
 4445SOL    HW114243   2.790   1.645   2.098  1.8952 -0.8755 -0.2380
 4445SOL    HW214244   2.793   1.521   2.185  0.6752 -0.1184  0.9401
 4446SOL     OW14245   0.534   5.407   7.061  0.0668  0.4786 -0.0413
 4446SOL    HW114246   0.523   5.501   7.048  0.1900  0.5509  0.3604
 4446SOL    HW214247   0.599   5.380   6.996 -1.4672  0.2849 -1.5704
 4447SOL     OW14248   0.991   1.501   0.507 -0.9463 -0.5224  0.0997
 4447SOL    HW114249   0.974   1.421   0.557 -1.2232 -0.9160 -0.6057
 4447SOL    HW214250   1.085   1.514   0.515 -1.2656  0.9591  2.9885
 4448SOL     OW14251   5.080   1.985   3.239 -0.0647  0.5461 -0.0011
 4448SOL    HW114252   5.097   2.067   3.286  0.6878 -0.1489  0.9862
 4448SOL    HW214253   4.986   1.970   3.251 -0.4104  1.7492 -1.0262
 4449SOL     OW14254   5.597   7.355   3.182  0.1332 -0.3475  0.3631
 4449SOL    HW114255   5.609   7.342   3.088  0.8955 -2.4636  0.6961
 4449SOL    HW214256   5.551   7.439   3.189 -1.0092 -0.6964 -1.9454
 4450SOL     OW14257   3.558   0.816   7.253  0.1309 -0.2201  0.1891
 4450SOL    HW114258   3.625   0.749   7.240 -0.4277 -0.8692  0.5473
 4450SOL    HW214259   3.493   0.797   7.184 -0.0599 -0.0864  0.3327
 4451SOL     OW14260   0.928   7.277   7.204 -0.5845  0.5026  0.0992
 4451SOL    HW114261   0.849   7.331   7.203 -2.0653 -1.4434 -3.2734
 4451SOL    HW214262   0.895   7.187   7.209  1.4429 -0.3316 -0.7107
 4452SOL     OW14263   2.429   3.224   3.510  0.4261  0.0607  0.2769
 4452SOL    HW114264   2.444   3.310   3.550 -0.9128  0.6688 -0.4874
 4452SOL    HW214265   2.455   3.235   3.419 -0.1569 -0.2174  0.0717
 4453SOL     OW14266   1.127   0.452   3.875 -0.5800 -0.1978  0.2298
 4453SOL    HW114267   1.188   0.494   3.936 -0.2041  1.4629 -1.2092
 4453SOL    HW214268   1.069   0.522   3.847 -0.9845 -0.9921 -1.0260
 4454SOL     OW14269   5.147   7.514   2.826 -0.8075  0.6621 -0.5965
 4454SOL    HW114270   5.190   7.558   2.752  1.3157 -1.8331 -0.9721
 4454SOL    HW214271   5.111   7.434   2.788 -0.7949 -0.0399  0.8458
 4455SOL     OW14272   7.169   0.002   5.141  0.3821 -0.0365 -0.1024
 4455SOL    HW114273   7.111  -0.058   5.188  0.2887  0.3031  0.2243
 4455SOL    HW214274   7.232  -0.055   5.096  0.7674 -0.3587  0.8252
 4456SOL     OW14275   2.282   5.068   6.522  0.2115 -0.4278  0.1234
 4456SOL    HW114276   2.260   5.117   6.444 -0.9964 -0.5028  0.3969
 4456SOL    HW214277   2.363   5.108   6.555 -0.7115  1.3437  0.3164
 4457SOL     OW14278   1.910   7.432   6.338 -0.1388  0.1121 -0.5020
 4457SOL    HW114279   1.930   7.461   6.427  0.6160  1.2946 -1.0214
 4457SOL    HW214280   1.875   7.344   6.348  2.5319 -0.9186  0.7585
 4458SOL     OW14281   3.404   2.711   3.546 -0.0815 -0.1002 -0.0843
 4458SOL    HW114282   3.319   2.727   3.505 -0.2622  1.2672  0.7847
 4458SOL    HW214283   3.415   2.782   3.609  1.3279 -0.7373  0.4368
 4459SOL     OW14284   1.733   7.330   2.231  0.3370  0.2979  0.3972
 4459SOL    HW114285   1.647   7.308   2.268  0.9036 -0.1051  1.5064
 4459SOL    HW214286   1.769   7.395   2.292  1.3148 -0.4220  0.6054
 4460SOL     OW14287   2.636   5.495   1.744  1.0560 -0.0442  0.1145
 4460SOL    HW114288   2.633   5.585   1.775 -1.4739 -0.1112  0.2532
 4460SOL    HW214289   2.653   5.442   1.822  1.4567  0.2163  0.2071
 4461SOL     OW14290   4.682   0.875   6.915 -0.4291  0.3683  0.8409
 4461SOL    HW114291   4.777   0.884   6.905 -0.3644 -0.4607  0.6578
 4461SOL    HW214292   4.662   0.788   6.881 -1.3095  0.6702  0.5432
 4462SOL     OW14293   3.764   7.595   4.671 -0.0300 -0.6211 -0.0112
 4462SOL    HW114294   3.810   7.511   4.681 -1.0574 -1.0662  1.3196
 4462SOL    HW214295   3.823   7.659   4.711 -0.4361 -1.1605  1.5178
 4463SOL     OW14296   2.691   2.829   2.066  0.3821  0.4033 -0.7922
 4463SOL    HW114297   2.740   2.798   1.989 -1.5442  0.6517 -2.2045
 4463SOL    HW214298   2.737   2.907   2.094  0.6449  0.8104 -2.2735
 4464SOL     OW14299   5.401   7.731   7.703 -0.0964 -0.2367  0.1430
 4464SOL    HW114300   5.448   7.672   7.644 -0.3360  0.6931 -1.0083
 4464SOL    HW214301   5.471   7.772   7.755  0.1307 -0.9172  0.3930
 4465SOL     OW14302   2.264   3.025   2.231 -0.2413 -0.0522  0.4286
 4465SOL    HW114303   2.275   2.936   2.198  1.2667  0.6719 -1.2213
 4465SOL    HW214304   2.352   3.052   2.257 -1.0413  0.1751  3.2827
 4466SOL     OW14305   6.746   3.143   3.103 -0.2543  0.3225  0.1726
 4466SOL    HW114306   6.792   3.106   3.027 -0.8894  1.9164 -1.0439
 4466SOL    HW214307   6.750   3.238   3.089 -1.7482  0.5807  1.3208
 4467SOL     OW14308   6.243   4.440   2.119 -0.1233  0.2232  0.2554
 4467SOL    HW114309   6.287   4.476   2.042 -0.9591  1.7888  0.4697
 4467SOL    HW214310   6.297   4.469   2.193  0.3480 -0.7632  0.3027
 4468SOL     OW14311   5.426   2.962   1.744  0.1217 -0.1258  0.1581
 4468SOL    HW114312   5.496   2.935   1.803 -0.2491 -2.0926 -0.2426
 4468SOL    HW214313   5.346   2.936   1.789 -0.2454  0.0031 -0.4215
 4469SOL     OW14314   3.956   2.410   7.392  0.3315  0.8294  0.0792
 4469SOL    HW114315   3.936   2.357   7.315  1.5985 -0.1429  0.3712
 4469SOL    HW214316   3.939   2.500   7.365 -1.0106  0.3622 -0.7276
 4470SOL     OW14317   3.306   0.914   2.785 -0.5885 -0.1516  0.0775
 4470SOL    HW114318   3.382   0.855   2.788  0.2515  0.8023 -1.3513
 4470SOL    HW214319   3.331   0.989   2.839 -0.3654  0.3053 -0.6445
 4471SOL     OW14320   5.303   2.051   3.104  0.0457  0.1159 -0.3887
 4471SOL    HW114321   5.228   2.035   3.161 -0.2660 -0.9960 -1.0586
 4471SOL    HW214322   5.370   1.990   3.134 -0.3120 -0.8801 -1.5032
 4472SOL     OW14323   3.808   5.589   2.590 -0.3836  1.0296  0.5486
 4472SOL    HW114324   3.904   5.588   2.594 -0.2975  2.2129 -0.5427
 4472SOL    HW214325   3.781   5.520   2.650  1.2739 -2.7772 -2.6242
 4473SOL     OW14326   3.195   3.401   6.229  0.7422  0.2411  0.0178
 4473SOL    HW114327   3.275   3.352   6.211  0.0976 -0.3716 -1.3976
 4473SOL    HW214328   3.170   3.375   6.318  1.3500 -0.6703 -0.0639
 4474SOL     OW14329   7.508   6.706   2.823 -0.3208 -0.4816  0.0299
 4474SOL    HW114330   7.586   6.653   2.840  0.1539  0.4296  0.7714
 4474SOL    HW214331   7.459   6.702   2.906  0.4638  1.4419  0.6351
 4475SOL     OW14332   6.669   5.436   6.398 -0.6519 -0.1016  0.2221
 4475SOL    HW114333   6.640   5.518   6.358 -1.6495 -0.7636 -0.4415
 4475SOL    HW214334   6.703   5.384   6.325 -1.2134 -0.7795  0.4296
 4476SOL     OW14335   3.775   4.713   0.444 -0.4999 -0.7282 -0.0146
 4476SOL    HW114336   3.811   4.647   0.384 -0.9505 -0.4132 -0.6394
 4476SOL    HW214337   3.849   4.736   0.501 -0.3899 -1.9125  0.3500
 4477SOL     OW14338   2.912   2.026   4.723 -0.5005 -0.4773 -0.5088
 4477SOL    HW114339   2.897   1.948   4.776 -0.2896  0.7115  1.3615
 4477SOL    HW214340   3.007   2.039   4.726 -0.5850  0.1243 -0.4190
 4478SOL     OW14341   6.781   5.231   0.970 -0.3774  0.4030 -0.7364
 4478SOL    HW114342   6.686   5.218   0.967 -0.4883  0.7032  0.9121
 4478SOL    HW214343   6.818   5.143   0.963 -0.8593  0.0447  0.8269
 4479SOL     OW14344   7.137   1.948   3.589 -0.7249 -0.7539 -0.2703
 4479SOL    HW114345   7.132   2.007   3.665  1.3505 -1.0665  0.1693
 4479SOL    HW214346   7.137   2.007   3.514 -0.8456 -0.3286  0.0539
 4480SOL     OW14347   3.438   4.214   6.310 -0.0935 -0.1061  0.1718
 4480SOL    HW114348   3.353   4.259   6.308  0.3020  0.6533 -2.2384
 4480SOL    HW214349   3.416   4.121   6.320 -1.2542  0.0142 -1.0870
 4481SOL     OW14350   0.223   5.266   1.462 -0.2946  0.2761 -0.1579
 4481SOL    HW114351   0.128   5.283   1.463 -0.3293  0.0673  0.1284
 4481SOL    HW214352   0.251   5.282   1.552 -0.3639 -1.3720  0.1858
 4482SOL     OW14353   7.341   7.400   2.832  0.4282  0.6931 -0.1590
 4482SOL    HW114354   7.431   7.370   2.815  0.3722 -0.0958  0.8086
 4482SOL    HW214355   7.290   7.319   2.836  0.1737  0.9096  2.0194
 4483SOL     OW14356   7.475   2.086   2.856 -0.2775 -0.0357 -0.2619
 4483SOL    HW114357   7.552   2.044   2.817 -1.7735  0.4808 -4.2733
 4483SOL    HW214358   7.409   2.016   2.859 -0.4956  0.1971  0.3915
 4484SOL     OW14359   4.209   6.885   6.794  0.2520  0.2678  0.3397
 4484SOL    HW114360   4.173   6.953   6.737  0.2243 -0.0851 -0.0687
 4484SOL    HW214361   4.291   6.859   6.752  1.5742  1.7945  1.7989
 4485SOL     OW14362   5.627   6.804   0.758 -0.5005 -0.1238  1.0756
 4485SOL    HW114363   5.662   6.880   0.711  0.5055 -0.6891  0.8835
 4485SOL    HW214364   5.562   6.767   0.698  0.9253 -0.9678 -0.0020
 4486SOL     OW14365   4.671   0.013   3.618 -0.2471 -0.3700  0.2050
 4486SOL    HW114366   4.628   0.062   3.687  0.5332 -0.3976  0.7249
 4486SOL    HW214367   4.745  -0.029   3.661  1.0183  0.6420 -0.8972
 4487SOL     OW14368   4.274   6.418   3.326 -0.3871 -0.0587  0.0457
 4487SOL    HW114369   4.241   6.461   3.246  0.4039 -1.1959 -0.9252
 4487SOL    HW214370   4.292   6.328   3.299 -0.4409 -0.5685  1.6199
 4488SOL     OW14371   4.057   1.170   4.995 -0.1024  0.0462  0.0765
 4488SOL    HW114372   3.976   1.220   5.000  0.9207  1.6937  1.0470
 4488SOL    HW214373   4.105   1.194   5.075  2.2719  0.8092 -1.4869
 4489SOL     OW14374   5.105   0.305   6.026  0.1722  0.6272 -0.6267
 4489SOL    HW114375   5.016   0.272   6.013 -0.0081  1.0891 -0.5898
 4489SOL    HW214376   5.106   0.338   6.116  0.5169  0.2068 -0.4748
 4490SOL     OW14377   7.588   6.353   5.474 -0.1571  0.3573  0.0817
 4490SOL    HW114378   7.683   6.364   5.472 -0.1327  0.1027 -1.2860
 4490SOL    HW214379   7.566   6.344   5.567  1.3138 -0.9143  0.3352
 4491SOL     OW14380   0.142   7.526   0.487 -0.3720 -0.2456  0.0983
 4491SOL    HW114381   0.131   7.527   0.392  2.8184  1.7509 -0.3949
 4491SOL    HW214382   0.148   7.433   0.510 -2.0287 -0.7835 -1.4880
 4492SOL     OW14383   3.649   0.642   1.965 -0.0914 -0.0251  0.2671
 4492SOL    HW114384   3.715   0.707   1.989  0.2451 -0.1555 -0.2762
 4492SOL    HW214385   3.569   0.694   1.954  0.2707  0.3786 -0.5890
 4493SOL     OW14386   3.649   2.608   4.651 -0.3246 -0.3745  0.3633
 4493SOL    HW114387   3.617   2.691   4.687  0.4544 -0.2343  0.7594
 4493SOL    HW214388   3.576   2.547   4.665 -1.1201  0.3583 -0.4355
 4494SOL     OW14389   3.900   4.961   3.976 -0.3097 -0.2647  0.8050
 4494SOL    HW114390   3.985   5.003   3.964 -0.0605 -1.1374 -0.5547
 4494SOL    HW214391   3.908   4.916   4.060  0.0949  0.7330  1.3283
 4495SOL     OW14392   3.452   5.907   3.726  0.3604 -0.3913 -0.1457
 4495SOL    HW114393   3.381   5.910   3.662 -0.0590 -1.5616  0.2370
 4495SOL    HW214394   3.411   5.933   3.808  0.8475  0.8909 -0.2877
 4496SOL     OW14395   2.834   6.477   1.920  0.5364  0.2529  0.0829
 4496SOL    HW114396   2.897   6.406   1.925  0.2306  0.0287  0.9620
 4496SOL    HW214397   2.831   6.513   2.009  1.8079  2.3646 -0.6314
 4497SOL     OW14398   3.827   5.011   5.019 -0.6503  0.8064 -0.0091
 4497SOL    HW114399   3.761   4.980   4.956  0.2256 -2.8170  0.6161
 4497SOL    HW214400   3.806   4.964   5.100  2.3215 -0.1271  0.3391
 4498SOL     OW14401   3.147   7.287   6.387 -0.1678  0.4192  0.2397
 4498SOL    HW114402   3.154   7.359   6.450  0.8061  0.2113  0.3888
 4498SOL    HW214403   3.188   7.322   6.307  0.9512 -0.1900  0.5249
 4499SOL     OW14404   2.744   1.852   7.174 -0.0757 -0.4128 -0.2769
 4499SOL    HW114405   2.739   1.770   7.125 -0.6531  0.5797 -1.9762
 4499SOL    HW214406   2.796   1.831   7.251 -1.4004 -2.7244  0.0889
 4500SOL     OW14407   0.604   2.773   5.694 -0.5834  0.3874 -0.1943
 4500SOL    HW114408   0.653   2.691   5.689 -1.5773 -0.1626 -1.6601
 4500SOL    HW214409   0.531   2.761   5.633 -0.3976  2.6035 -0.9341
 4501SOL     OW14410   0.755   5.043   6.934  0.2683  0.3171 -0.5835
 4501SOL    HW114411   0.710   5.126   6.950  0.1219  0.1293  0.0336
 4501SOL    HW214412   0.835   5.048   6.987 -0.4487 -0.5107  0.6419
 4502SOL     OW14413   4.540   0.748   2.267 -0.5996  0.0331 -0.2921
 4502SOL    HW114414   4.508   0.788   2.348 -0.2081  0.5721 -0.3990
 4502SOL    HW214415   4.635   0.754   2.273 -0.5851  1.1952 -1.3281
 4503SOL     OW14416   4.718   6.397   6.518  0.3373  0.0561 -0.7170
 4503SOL    HW114417   4.749   6.484   6.494 -0.6285  0.6888  0.2351
 4503SOL    HW214418   4.625   6.398   6.495  0.8859 -1.7916 -3.5199
 4504SOL     OW14419   3.954   3.945   7.407  0.4955  0.4679  0.1040
 4504SOL    HW114420   3.944   4.038   7.388 -0.5544  0.6282  1.2737
 4504SOL    HW214421   4.012   3.912   7.339 -1.3853  1.3833 -2.0435
 4505SOL     OW14422   5.840   3.764   7.482  0.5785 -0.0770  0.6379
 4505SOL    HW114423   5.747   3.766   7.459  0.6264 -0.1868  0.4340
 4505SOL    HW214424   5.858   3.671   7.495  1.1090 -0.2583 -1.1463
 4506SOL     OW14425   0.338   6.958   6.484 -0.3465 -0.3463 -0.0531
 4506SOL    HW114426   0.329   6.918   6.398  2.3045 -1.9815  0.3446
 4506SOL    HW214427   0.292   6.898   6.543 -0.8911  0.0096 -0.1007
 4507SOL     OW14428   4.975   5.004   3.212 -0.0481  0.1882  0.0962
 4507SOL    HW114429   4.936   5.036   3.294  0.6120  0.0834  0.4573
 4507SOL    HW214430   4.936   4.918   3.199  0.3058 -0.0558  0.6289
 4508SOL     OW14431   7.137   2.448   4.422 -0.2520  0.1035  0.0550
 4508SOL    HW114432   7.063   2.389   4.437  0.1662 -0.8783 -1.5601
 4508SOL    HW214433   7.119   2.488   4.337  0.8586  0.1652 -0.1637
 4509SOL     OW14434   2.077   2.972   5.515  0.3979 -0.2114 -0.6912
 4509SOL    HW114435   1.996   2.928   5.491  0.3402 -0.3467 -0.2600
 4509SOL    HW214436   2.140   2.902   5.528  0.4710 -0.1314 -0.6130
 4510SOL     OW14437   7.608   4.198   4.420  0.1354 -0.3250  0.0212
 4510SOL    HW114438   7.642   4.222   4.506  0.0990 -2.9769  0.8473
 4510SOL    HW214439   7.549   4.125   4.436  0.3411 -1.0937 -2.2862
 4511SOL     OW14440   4.548   7.538   3.521  0.4905 -0.0626  0.9493
 4511SOL    HW114441   4.599   7.616   3.542 -3.0368  2.5514  0.7421
 4511SOL    HW214442   4.546   7.488   3.603  1.4152  0.9498  1.6218
 4512SOL     OW14443   7.474   7.625   2.121 -0.3447 -0.3189 -0.7118
 4512SOL    HW114444   7.508   7.550   2.171  1.0186  0.7722  0.0686
 4512SOL    HW214445   7.463   7.694   2.186  0.3137  0.7793 -1.7328
 4513SOL     OW14446   1.023   6.330   6.837 -0.1722  0.0647  0.1344
 4513SOL    HW114447   0.928   6.334   6.849 -0.1992 -0.0779 -0.0337
 4513SOL    HW214448   1.045   6.411   6.793 -0.5358 -0.9489 -2.0248
 4514SOL     OW14449   4.661   0.939   1.756  0.1857  0.2825 -0.4471
 4514SOL    HW114450   4.598   0.972   1.692 -1.1347  1.0185  1.1568
 4514SOL    HW214451   4.621   0.858   1.789  0.6605  0.1085 -0.2915
 4515SOL     OW14452   6.945   6.801   3.376  0.1663  0.5211 -0.8794
 4515SOL    HW114453   6.999   6.839   3.307  0.2851  1.4642 -0.2853
 4515SOL    HW214454   6.868   6.767   3.331  0.8561 -0.0669 -1.6334
 4516SOL     OW14455   5.701   3.000   5.868  0.0174  0.1334  0.1068
 4516SOL    HW114456   5.685   2.918   5.821  0.9997  0.5956 -1.0784
 4516SOL    HW214457   5.662   2.986   5.954 -0.9196 -1.1216 -0.4913
 4517SOL     OW14458   3.985   1.306   2.265  0.2629 -0.1851 -0.0317
 4517SOL    HW114459   3.968   1.337   2.176  1.2564  0.8286  0.1062
 4517SOL    HW214460   4.069   1.345   2.289  0.1726 -0.7003  1.2375
 4518SOL     OW14461   3.164   0.838   2.577 -0.0278  0.1868  0.0519
 4518SOL    HW114462   3.199   0.853   2.665  1.5023  0.2958 -0.5510
 4518SOL    HW214463   3.200   0.908   2.524 -0.5541 -0.1536 -0.7793
 4519SOL     OW14464   2.640   5.848   0.770 -0.0249 -0.0452  0.0087
 4519SOL    HW114465   2.652   5.773   0.712  1.1694  1.6861 -2.1282
 4519SOL    HW214466   2.568   5.898   0.732 -0.5216  0.1544  1.1542
 4520SOL     OW14467   3.822   0.357   2.154 -0.1563  0.7865  1.0084
 4520SOL    HW114468   3.787   0.276   2.117 -0.6062  0.4885  2.0671
 4520SOL    HW214469   3.871   0.396   2.082 -1.4271  0.4811 -0.0614
 4521SOL     OW14470   0.913   3.154   6.809 -0.1502 -0.8793 -0.2847
 4521SOL    HW114471   1.007   3.162   6.794  0.3582 -0.5804  2.4614
 4521SOL    HW214472   0.888   3.075   6.761  1.2452 -0.3916 -1.9325
 4522SOL     OW14473   2.437   7.415   3.823  0.3199  0.6463 -0.0716
 4522SOL    HW114474   2.473   7.379   3.741 -0.0133  0.5560 -0.1794
 4522SOL    HW214475   2.514   7.431   3.878  0.5162  0.3110 -0.2440
 4523SOL     OW14476   2.094   6.489   3.136 -0.0358  0.7215 -0.1665
 4523SOL    HW114477   2.064   6.426   3.202  1.5575 -1.2218 -1.1840
 4523SOL    HW214478   2.106   6.436   3.057  2.9414  1.9526 -0.6392
 4524SOL     OW14479   2.961   5.584   3.948  0.7847 -0.0240 -0.3420
 4524SOL    HW114480   3.037   5.553   3.997 -0.6154 -0.0122  2.0000
 4524SOL    HW214481   2.891   5.522   3.970 -0.5427  1.3931 -0.3276
 4525SOL     OW14482   5.345   6.198   3.339 -0.6754  0.0906 -0.5586
 4525SOL    HW114483   5.345   6.294   3.347  0.7013 -0.0189  3.8132
 4525SOL    HW214484   5.260   6.171   3.374 -0.8880 -0.2983 -1.3671
 4526SOL     OW14485   2.076   1.265   0.358  0.3279 -0.3402 -0.3539
 4526SOL    HW114486   2.089   1.349   0.314  1.2822  0.8583  2.0420
 4526SOL    HW214487   2.160   1.220   0.349  1.3041  0.8407  1.9326
 4527SOL     OW14488   1.654   6.743   3.110 -0.3297 -0.0805  0.6862
 4527SOL    HW114489   1.613   6.817   3.065  0.0766 -0.3707 -0.1872
 4527SOL    HW214490   1.731   6.722   3.056  0.2369 -0.3739  1.5767
 4528SOL     OW14491   2.153   7.690   7.397 -0.2405 -0.4022 -0.0756
 4528SOL    HW114492   2.227   7.645   7.355 -0.7423 -0.0791 -1.3629
 4528SOL    HW214493   2.105   7.621   7.442  0.4440 -0.7256  0.1748
 4529SOL     OW14494   0.571   3.706   4.694  0.3143  0.1808 -0.5688
 4529SOL    HW114495   0.492   3.748   4.728  0.4514 -0.2735  0.3246
 4529SOL    HW214496   0.628   3.779   4.668  0.0096  0.5244 -0.2791
 4530SOL     OW14497   5.121   0.828   6.030 -0.0316  0.0117 -0.3190
 4530SOL    HW114498   5.045   0.780   5.997 -0.5964  1.3384 -1.0039
 4530SOL    HW214499   5.194   0.795   5.978 -0.6484  0.8969 -1.7820
 4531SOL     OW14500   6.204   2.778   0.135  0.6784 -0.3646  0.6315
 4531SOL    HW114501   6.283   2.754   0.086  0.5587 -0.0084  0.2595
 4531SOL    HW214502   6.182   2.866   0.104 -0.8405 -1.1060 -0.5089
 4532SOL     OW14503   4.272   2.779   3.485  0.3124 -0.5136  1.1881
 4532SOL    HW114504   4.225   2.760   3.567 -0.7415 -1.0374  0.4848
 4532SOL    HW214505   4.277   2.694   3.440 -0.8431  0.1080 -0.1631
 4533SOL     OW14506   0.319   1.214   7.510 -0.2308  0.1728 -0.1090
 4533SOL    HW114507   0.226   1.232   7.494 -0.4781 -0.9444 -0.0634
 4533SOL    HW214508   0.355   1.196   7.423 -0.5044 -1.2251  0.0289
 4534SOL     OW14509   2.452   6.869   4.406  0.0973 -0.2623 -0.0151
 4534SOL    HW114510   2.456   6.952   4.358  1.0078  0.3186  1.0026
 4534SOL    HW214511   2.526   6.819   4.372 -0.9775 -1.0434 -1.2660
 4535SOL     OW14512   0.388   4.128   5.373 -1.0730 -0.6591 -0.3274
 4535SOL    HW114513   0.432   4.177   5.442 -1.5627  0.3432 -0.7066
 4535SOL    HW214514   0.414   4.037   5.388 -0.1589 -0.2959  0.4019
 4536SOL     OW14515   1.139   4.295   0.190 -0.3484  0.4033  0.1852
 4536SOL    HW114516   1.179   4.376   0.159  0.2185 -0.6503 -1.9769
 4536SOL    HW214517   1.047   4.318   0.206  0.0425  1.7058  0.6653
 4537SOL     OW14518   4.030   2.775   2.856  0.1533 -0.0711  0.1269
 4537SOL    HW114519   3.997   2.799   2.769  1.3095  0.4749 -0.1909
 4537SOL    HW214520   3.966   2.812   2.917  0.7291  1.9715 -0.4315
 4538SOL     OW14521   4.014   0.555   2.033  0.4320  0.2210 -0.0647
 4538SOL    HW114522   4.012   0.553   1.937  1.9887 -0.5887 -0.1139
 4538SOL    HW214523   3.946   0.617   2.057 -0.0214  0.4061 -1.6978
 4539SOL     OW14524   6.619   5.916   2.161 -0.1413 -0.1277  0.2483
 4539SOL    HW114525   6.524   5.922   2.171 -0.0443 -0.1458  1.3053
 4539SOL    HW214526   6.638   5.969   2.083 -0.9256  0.6298  0.5457
 4540SOL     OW14527   1.688   5.704   3.211 -0.4485 -0.0979  0.3452
 4540SOL    HW114528   1.657   5.644   3.143 -0.2870  0.3322 -0.1201
 4540SOL    HW214529   1.683   5.791   3.170  0.2659  0.0997  0.6594
 4541SOL     OW14530   4.463   3.543   6.028 -0.0406  0.4828  0.4731
 4541SOL    HW114531   4.557   3.532   6.015 -0.1939 -1.5505  0.7966
 4541SOL    HW214532   4.451   3.638   6.041  1.9380  0.7697  0.4440
 4542SOL     OW14533   0.691   0.016   0.131 -0.3474  0.2196  0.6610
 4542SOL    HW114534   0.667   0.106   0.153  0.4569 -0.1037  3.2213
 4542SOL    HW214535   0.608  -0.032   0.128 -0.5846  0.4726  2.3765
 4543SOL     OW14536   0.582   4.942   6.242  0.1364 -0.7015 -0.1261
 4543SOL    HW114537   0.549   5.024   6.279 -1.1537 -1.2898  0.0727
 4543SOL    HW214538   0.519   4.875   6.270  1.0916 -1.7499 -0.3963
 4544SOL     OW14539   5.519   6.025   3.203  0.1687 -0.2070  0.4165
 4544SOL    HW114540   5.475   5.954   3.250  0.6719 -0.5971  0.3016
 4544SOL    HW214541   5.456   6.098   3.205  0.1385 -0.2434  1.6119
 4545SOL     OW14542   7.675   5.301   1.443 -0.0973  0.2099  0.1532
 4545SOL    HW114543   7.665   5.281   1.350  1.7358 -0.6091  0.0965
 4545SOL    HW214544   7.650   5.221   1.489  2.0774 -0.5239  0.1715
 4546SOL     OW14545   0.173   4.288   5.745  0.1057  0.5323  0.2281
 4546SOL    HW114546   0.169   4.322   5.834  1.9307  1.2286  0.1003
 4546SOL    HW214547   0.141   4.360   5.690 -1.2777  0.0059  0.3128
 4547SOL     OW14548   4.947   5.488   7.631 -0.0627  0.2504  0.1149
 4547SOL    HW114549   4.928   5.401   7.595  0.2426 -0.6337  2.0079
 4547SOL    HW214550   4.863   5.535   7.625 -0.2666 -0.2105 -0.7670
 4548SOL     OW14551   0.227   3.893   2.490  0.0133  0.8849 -0.0565
 4548SOL    HW114552   0.259   3.961   2.431 -0.9066  0.0504 -1.5488
 4548SOL    HW214553   0.269   3.812   2.459 -2.1642  0.0562 -0.9953
 4549SOL     OW14554   3.674   5.260   0.490 -0.3894 -0.0874 -0.5598
 4549SOL    HW114555   3.638   5.195   0.429 -0.0436 -0.5302 -0.2926
 4549SOL    HW214556   3.603   5.274   0.553 -0.5204 -0.0950 -0.7034
 4550SOL     OW14557   1.528   5.629   7.190 -0.3878  0.1724  0.0470
 4550SOL    HW114558   1.537   5.647   7.283 -1.9220 -1.0555  0.4600
 4550SOL    HW214559   1.612   5.656   7.152 -0.2435  1.9753  1.5504
 4551SOL     OW14560   7.177   6.797   6.160  0.5071  0.2425  0.1492
 4551SOL    HW114561   7.260   6.822   6.201  0.5854  0.1961  0.0181
 4551SOL    HW214562   7.114   6.862   6.192  0.7699  0.7872 -0.4179
 4552SOL     OW14563   2.148   4.076   6.238 -0.8744  0.5376 -0.2246
 4552SOL    HW114564   2.103   4.159   6.254 -0.5074  0.8326 -0.7056
 4552SOL    HW214565   2.150   4.068   6.143  0.7352  0.8937 -0.2477
 4553SOL     OW14566   3.069   5.506   3.154  0.2532  0.2298  0.7292
 4553SOL    HW114567   3.159   5.526   3.128  0.1649  1.5784  1.3886
 4553SOL    HW214568   3.072   5.414   3.183  1.1755 -0.0678 -0.2414
 4554SOL     OW14569   7.052   2.776   6.855 -0.1050 -0.0904 -0.6431
 4554SOL    HW114570   7.004   2.781   6.773 -2.4261  1.2357  0.6940
 4554SOL    HW214571   7.106   2.855   6.856 -0.8949  0.4486 -0.4202
 4555SOL     OW14572   0.549   0.226   6.719  0.0936 -0.0286  0.0205
 4555SOL    HW114573   0.598   0.276   6.654  1.4536 -1.1631  0.1306
 4555SOL    HW214574   0.532   0.142   6.677 -0.7839 -0.0540  0.4090
 4556SOL     OW14575   3.336   1.120   6.317  0.0254 -0.2805 -0.0097
 4556SOL    HW114576   3.397   1.065   6.365  2.3418  1.6610 -0.5249
 4556SOL    HW214577   3.251   1.103   6.358  0.9755 -2.6345  1.1605
 4557SOL     OW14578   3.659   6.353   4.813  0.5129  0.0374  0.2612
 4557SOL    HW114579   3.716   6.384   4.743 -0.1774 -0.4039 -0.5139
 4557SOL    HW214580   3.572   6.351   4.774 -0.2499  1.7333  1.7357
 4558SOL     OW14581   4.250   4.454   3.374  0.1576  0.0283  0.6884
 4558SOL    HW114582   4.250   4.490   3.462  0.8156  0.5226  0.4971
 4558SOL    HW214583   4.341   4.458   3.346 -0.3303  2.2368 -0.9472
 4559SOL     OW14584   2.383   2.890   5.767 -0.2595 -0.1651 -0.4033
 4559SOL    HW114585   2.309   2.869   5.824  0.2193 -1.7625 -0.3199
 4559SOL    HW214586   2.378   2.985   5.755 -1.4412 -0.0471  0.7970
 4560SOL     OW14587   0.059   3.900   2.208  0.3300  0.3708  0.0212
 4560SOL    HW114588  -0.022   3.850   2.200  1.5412 -1.7073 -0.0374
 4560SOL    HW214589   0.085   3.890   2.299  0.8975  0.3774 -0.1360
 4561SOL     OW14590   3.410   3.789   7.073  0.1615  0.3161 -0.2093
 4561SOL    HW114591   3.466   3.758   7.002  1.5409  2.7287 -0.2737
 4561SOL    HW214592   3.434   3.735   7.148  1.2708  0.1143 -0.7021
 4562SOL     OW14593   4.623   0.196   6.184 -0.0498  0.5804 -0.0547
 4562SOL    HW114594   4.618   0.291   6.178  1.0538  0.6377 -0.1440
 4562SOL    HW214595   4.565   0.174   6.257 -1.5961  1.1667 -1.0602
 4563SOL     OW14596   0.360   7.654   6.209  0.3864 -0.0359 -0.2079
 4563SOL    HW114597   0.304   7.587   6.169  1.1559 -0.9339  0.1893
 4563SOL    HW214598   0.440   7.607   6.233  0.9240  1.0235  0.1194
 4564SOL     OW14599   2.647   7.103   0.739 -0.2528 -0.4770  0.0454
 4564SOL    HW114600   2.716   7.089   0.803 -0.6575 -0.2459  0.5433
 4564SOL    HW214601   2.569   7.064   0.778 -0.4155 -0.7029 -0.4910
 4565SOL     OW14602   6.791   6.519   0.451 -0.1286  0.3387 -0.4632
 4565SOL    HW114603   6.805   6.530   0.357  1.9828 -2.1857 -0.5579
 4565SOL    HW214604   6.879   6.502   0.487 -0.8970  1.0168  1.9766
 4566SOL     OW14605   1.784   0.757   7.511  0.3067 -0.4499 -0.3918
 4566SOL    HW114606   1.762   0.725   7.424  2.2835  3.1468 -2.4713
 4566SOL    HW214607   1.725   0.832   7.524  0.5162 -0.5140  1.0769
 4567SOL     OW14608   3.202   5.027   7.139  0.4275  0.0692 -0.2391
 4567SOL    HW114609   3.230   5.101   7.085  1.4118  0.2253  0.4472
 4567SOL    HW214610   3.208   4.951   7.082  0.9959  0.3010 -0.4995
 4568SOL     OW14611   6.001   6.343   6.003 -0.7492  0.1579 -0.0678
 4568SOL    HW114612   5.940   6.368   5.934 -0.0379  1.2423 -0.3264
 4568SOL    HW214613   5.980   6.401   6.076  0.4123  1.0458 -0.4058
 4569SOL     OW14614   3.565   5.316   0.199  0.1398 -0.1606  0.1529
 4569SOL    HW114615   3.544   5.237   0.249  1.8823 -1.0540 -0.4150
 4569SOL    HW214616   3.581   5.383   0.266 -0.7899 -0.4190  0.6595
 4570SOL     OW14617   3.143   2.075   5.484  0.3531 -0.9149  0.0896
 4570SOL    HW114618   3.114   2.118   5.565 -0.1278 -1.8319  0.4251
 4570SOL    HW214619   3.226   2.117   5.463  0.4120 -0.5529  0.9809
 4571SOL     OW14620   4.150   3.949   2.162  0.7213  0.1246 -0.4869
 4571SOL    HW114621   4.199   3.947   2.079 -1.8421 -1.8604 -2.1074
 4571SOL    HW214622   4.208   3.905   2.224  1.3897 -1.4227 -2.1191
 4572SOL     OW14623   2.575   3.425   3.615 -0.7017  0.1841 -0.2580
 4572SOL    HW114624   2.616   3.511   3.603 -1.2702  0.7734  1.6280
 4572SOL    HW214625   2.647   3.367   3.638 -0.4511  0.4066 -0.4801
 4573SOL     OW14626   4.966   5.399   5.814 -0.3008  0.4508 -0.7362
 4573SOL    HW114627   4.966   5.311   5.776  0.4231 -0.8588  2.0505
 4573SOL    HW214628   4.874   5.416   5.837 -0.1284 -0.7319  1.0202
 4574SOL     OW14629   0.145   0.508   4.283 -0.4797  0.6939  0.2460
 4574SOL    HW114630   0.218   0.449   4.301 -0.0002  1.3403  0.4555
 4574SOL    HW214631   0.068   0.459   4.311 -0.0972  0.1448  0.3660
 4575SOL     OW14632   2.133   7.066   0.383 -0.3070  0.1611  0.7517
 4575SOL    HW114633   2.217   7.110   0.374 -0.8685  1.1557  0.1298
 4575SOL    HW214634   2.119   7.061   0.478  1.5578 -2.3031  0.9921
 4576SOL     OW14635   2.459   5.996   6.561  0.0077 -0.7991  0.1331
 4576SOL    HW114636   2.550   6.002   6.533 -0.0990 -0.9901 -0.2559
 4576SOL    HW214637   2.426   6.085   6.557  0.5556 -0.5039  1.5722
 4577SOL     OW14638   1.308   0.884   3.739  0.2258 -0.3587 -0.0176
 4577SOL    HW114639   1.293   0.950   3.671  0.5726  1.7286  1.7905
 4577SOL    HW214640   1.225   0.838   3.747 -0.8418  1.5179  0.2759
 4578SOL     OW14641   1.429   6.752   7.718 -0.3673 -0.1619  0.0972
 4578SOL    HW114642   1.345   6.707   7.728 -0.4451  0.4832  4.1122
 4578SOL    HW214643   1.494   6.684   7.735 -0.0881 -0.2627 -1.2425
 4579SOL     OW14644   2.675   5.217   0.436 -0.3166 -0.2113  0.0250
 4579SOL    HW114645   2.602   5.251   0.383  0.0822  0.3551 -0.1716
 4579SOL    HW214646   2.697   5.290   0.494 -1.5380 -1.2220  1.8486
 4580SOL     OW14647   3.132   6.085   4.722 -0.3026  0.0464 -0.0854
 4580SOL    HW114648   3.063   6.138   4.681  1.5186  1.4987 -1.4845
 4580SOL    HW214649   3.150   6.016   4.658 -1.8978 -1.7083  1.2505
 4581SOL     OW14650   5.229   0.091   2.545 -0.0451  0.5744 -0.2252
 4581SOL    HW114651   5.299   0.041   2.502  0.6853  0.1735  1.3292
 4581SOL    HW214652   5.258   0.183   2.538  0.0941  0.5093 -0.5309
 4582SOL     OW14653   3.260   2.058   3.241 -0.0974 -0.0831  0.3323
 4582SOL    HW114654   3.324   2.111   3.193 -0.5856 -0.4360 -0.7533
 4582SOL    HW214655   3.257   2.097   3.328  0.5544  0.8132 -0.0258
 4583SOL     OW14656   3.403   3.736   4.420  0.4798 -0.8711  0.6448
 4583SOL    HW114657   3.438   3.825   4.431  1.0917 -1.0294  0.0310
 4583SOL    HW214658   3.475   3.686   4.382 -0.0628 -1.4809  0.3944
 4584SOL     OW14659   7.268   0.595   0.327  1.0069  0.0143  0.1142
 4584SOL    HW114660   7.327   0.666   0.353 -0.2259  1.1719 -0.1505
 4584SOL    HW214661   7.247   0.614   0.235 -1.6544  1.0753  0.8309
 4585SOL     OW14662   3.659   2.034   2.525 -0.1116  0.1044 -0.1243
 4585SOL    HW114663   3.737   2.066   2.571 -0.9009 -0.1997  1.5175
 4585SOL    HW214664   3.684   2.035   2.433  1.6689  0.4614  0.3081
 4586SOL     OW14665   5.010   4.199   2.086 -0.3308  0.3878  0.4382
 4586SOL    HW114666   5.103   4.203   2.065 -0.0309  1.1067  1.8356
 4586SOL    HW214667   5.006   4.151   2.168 -1.1041  1.2115  0.8965
 4587SOL     OW14668   1.899   1.743   2.112 -0.0752  0.2924 -0.4664
 4587SOL    HW114669   1.922   1.705   2.197 -1.0497  1.5261  0.3983
 4587SOL    HW214670   1.981   1.779   2.079  0.5015 -0.9741 -0.4934
 4588SOL     OW14671   1.789   5.714   7.123  0.9683 -0.1237  0.9821
 4588SOL    HW114672   1.864   5.663   7.154  0.5081 -0.5175  1.4612
 4588SOL    HW214673   1.798   5.799   7.166  2.2285  0.5364 -0.5050
 4589SOL     OW14674   4.433   1.808   0.289  0.8391 -0.1946 -0.3480
 4589SOL    HW114675   4.497   1.821   0.219  0.6780 -1.8559 -0.8538
 4589SOL    HW214676   4.372   1.744   0.253 -1.5968  1.8559 -0.1887
 4590SOL     OW14677   4.277   1.676   1.042 -0.0024  0.5409  0.0250
 4590SOL    HW114678   4.367   1.681   1.074  0.5504 -1.0409 -1.1161
 4590SOL    HW214679   4.224   1.669   1.121  0.7230  2.7361  0.7667
 4591SOL     OW14680   7.489   2.127   0.934  0.0171  0.3733 -0.0658
 4591SOL    HW114681   7.544   2.205   0.936 -0.0074  0.4104 -0.6861
 4591SOL    HW214682   7.428   2.139   1.007  0.4077  0.6382  0.2218
 4592SOL     OW14683   2.767   7.286   0.977  0.4426  0.3839 -0.2022
 4592SOL    HW114684   2.855   7.321   0.989  1.6058 -1.9224 -1.3007
 4592SOL    HW214685   2.780   7.192   0.962 -2.3246 -0.2888  0.9429
 4593SOL     OW14686   3.342   1.350   6.168  0.0216  0.0302 -0.4549
 4593SOL    HW114687   3.250   1.361   6.145 -0.2842  0.6761  0.9558
 4593SOL    HW214688   3.343   1.272   6.224 -0.3152  2.0819  2.6190
 4594SOL     OW14689   5.960   1.311   1.862  0.0399  0.1922 -0.1139
 4594SOL    HW114690   6.030   1.315   1.797  0.4022  3.0818  0.3239
 4594SOL    HW214691   5.881   1.290   1.812  0.8470 -1.1468 -0.8906
 4595SOL     OW14692   5.914   4.797   5.189  0.3385 -0.0558 -0.1657
 4595SOL    HW114693   5.875   4.710   5.197  1.8181 -0.6365  1.4257
 4595SOL    HW214694   5.905   4.819   5.097 -0.7832 -1.5405 -0.4578
 4596SOL     OW14695   0.879   1.736   2.884  0.1628 -0.1722  0.2601
 4596SOL    HW114696   0.973   1.749   2.892  0.5759 -0.5185 -2.7372
 4596SOL    HW214697   0.852   1.797   2.814 -1.2085 -2.2181 -1.1297
 4597SOL     OW14698   0.345   0.852   0.318 -0.2678 -0.2101 -0.7400
 4597SOL    HW114699   0.411   0.784   0.330 -1.3868 -1.2845 -0.5498
 4597SOL    HW214700   0.263   0.805   0.308 -1.1251  1.1255 -0.2568
 4598SOL     OW14701   7.561   1.369   3.747  0.4802 -0.0880  0.5365
 4598SOL    HW114702   7.551   1.464   3.739 -0.0410 -0.2411 -0.7501
 4598SOL    HW214703   7.471   1.337   3.756  0.5800 -0.5397 -0.0559
 4599SOL     OW14704   0.217   1.379   4.858 -0.5883 -0.2149 -0.0222
 4599SOL    HW114705   0.253   1.372   4.769 -1.0089  0.4012 -0.2547
 4599SOL    HW214706   0.192   1.289   4.881  2.6013 -1.0011  0.8473
 4600SOL     OW14707   7.167   2.195   1.480 -0.1070 -0.3373  0.3835
 4600SOL    HW114708   7.205   2.155   1.558  1.4642  1.2337  0.4929
 4600SOL    HW214709   7.195   2.286   1.483 -2.8714  0.6531 -0.2537
 4601SOL     OW14710   3.792   2.525   0.208  0.1073  0.2092  1.0817
 4601SOL    HW114711   3.786   2.479   0.124  1.2689  0.7067  0.7084
 4601SOL    HW214712   3.757   2.612   0.190  0.3431  0.3113  1.1128
 4602SOL     OW14713   1.426   0.721   0.850  0.0112  0.1862 -0.1992
 4602SOL    HW114714   1.392   0.632   0.860 -1.1224  0.4566 -1.3315
 4602SOL    HW214715   1.501   0.725   0.908 -1.1811 -0.8394  1.5115
 4603SOL     OW14716   7.664   0.580   6.887 -0.5727 -0.5043 -0.0687
 4603SOL    HW114717   7.709   0.601   6.805 -1.0416 -0.0792 -0.2188
 4603SOL    HW214718   7.577   0.619   6.878 -0.3851  0.1945  0.9324
 4604SOL     OW14719   5.387   6.906   5.637  0.9141 -0.0542 -0.6073
 4604SOL    HW114720   5.341   6.827   5.607 -2.9415  2.5998 -2.5462
 4604SOL    HW214721   5.324   6.951   5.693  1.6475  3.0968 -2.0896
 4605SOL     OW14722   3.583   0.403   7.715 -0.7541 -0.2337  0.0334
 4605SOL    HW114723   3.489   0.416   7.725 -0.8697 -0.5002 -0.6517
 4605SOL    HW214724   3.596   0.393   7.620 -0.3028 -2.2009  0.2518
 4606SOL     OW14725   1.642   2.511   2.811  0.1053 -0.4966  0.0618
 4606SOL    HW114726   1.613   2.531   2.722 -0.0813 -1.1026 -0.0190
 4606SOL    HW214727   1.561   2.504   2.862 -0.1249 -4.2139 -0.5857
 4607SOL     OW14728   4.297   4.414   5.344 -0.1240  0.3235  0.3042
 4607SOL    HW114729   4.343   4.445   5.423  1.5642 -0.1451 -0.4368
 4607SOL    HW214730   4.243   4.487   5.318 -1.0160  0.3655  2.0973
 4608SOL     OW14731   1.159   1.138   2.839 -0.3308  0.1294 -0.8005
 4608SOL    HW114732   1.222   1.204   2.870 -0.5389  0.3563 -0.8588
 4608SOL    HW214733   1.155   1.153   2.744 -0.9875  0.5669 -0.7100
 4609SOL     OW14734   0.796   7.653   6.568  0.3815  0.2210  0.3912
 4609SOL    HW114735   0.861   7.723   6.574  1.2358 -0.5142 -0.0816
 4609SOL    HW214736   0.809   7.601   6.647 -2.3810  2.3029  2.4391
 4610SOL     OW14737   0.098   5.604   5.670  0.0233 -1.0667 -0.1833
 4610SOL    HW114738   0.130   5.538   5.608  0.9605 -0.4385 -0.3980
 4610SOL    HW214739   0.003   5.601   5.661  0.1445  0.4772 -3.2498
 4611SOL     OW14740   3.156   4.393   1.831  0.2350  0.3518  0.1785
 4611SOL    HW114741   3.102   4.471   1.843 -0.8636 -0.2246 -0.8393
 4611SOL    HW214742   3.190   4.400   1.742  1.1150  0.2579  0.4974
 4612SOL     OW14743   5.084   6.354   4.033 -0.0327 -0.4362  0.8019
 4612SOL    HW114744   5.087   6.376   3.940  0.8651  0.9846  1.1355
 4612SOL    HW214745   5.106   6.261   4.036  1.1934 -0.2240 -0.3363
 4613SOL     OW14746   1.431   5.948   0.030 -0.4423 -0.1786  0.0029
 4613SOL    HW114747   1.405   5.869  -0.018  1.0403  0.2003 -1.5000
 4613SOL    HW214748   1.364   6.013   0.007 -2.1912 -1.1666  1.9628
 4614SOL     OW14749   7.177   6.695   0.328  0.0003 -0.1602 -0.1773
 4614SOL    HW114750   7.170   6.790   0.327  0.4962 -0.1231 -1.2390
 4614SOL    HW214751   7.218   6.674   0.412  0.7106  0.6264 -0.3220
 4615SOL     OW14752   3.788   0.417   1.188 -0.2000 -0.1355  0.2603
 4615SOL    HW114753   3.770   0.504   1.223  0.8440 -0.5295  1.8667
 4615SOL    HW214754   3.702   0.374   1.185 -0.6018  0.6581  0.2292
 4616SOL     OW14755   1.284   7.012   7.274  0.0458 -0.2152  0.0445
 4616SOL    HW114756   1.371   6.999   7.236  0.6025 -2.0183  1.7445
 4616SOL    HW214757   1.224   6.971   7.212  0.6563 -0.9117 -0.0950
 4617SOL     OW14758   5.297   6.450   5.574 -1.1344 -0.1268  0.3581
 4617SOL    HW114759   5.321   6.361   5.548  0.0121  0.1325  0.5006
 4617SOL    HW214760   5.224   6.438   5.634 -0.4856 -1.0292  0.9903
 4618SOL     OW14761   7.082   0.453   4.962 -0.7118  0.1021 -0.2548
 4618SOL    HW114762   7.136   0.530   4.944 -0.2567 -0.1913 -0.1627
 4618SOL    HW214763   7.016   0.484   5.024 -1.3220  0.7322 -1.1929
 4619SOL     OW14764   0.135   7.741   1.075  0.2420 -0.3758  0.4754
 4619SOL    HW114765   0.160   7.681   1.145  2.2235 -0.7341 -0.4804
 4619SOL    HW214766   0.178   7.823   1.097 -0.6965  0.0850  0.6453
 4620SOL     OW14767   2.223   2.978   5.205 -0.4937  0.1860  0.4133
 4620SOL    HW114768   2.144   3.031   5.195 -0.3737  0.3866  0.5200
 4620SOL    HW214769   2.295   3.035   5.177 -0.3063  0.2633  1.0208
 4621SOL     OW14770   0.975   4.800   7.380  0.0186  0.3839 -0.0038
 4621SOL    HW114771   0.996   4.732   7.316  0.2615 -0.2381  0.7133
 4621SOL    HW214772   1.052   4.803   7.437  0.0563  1.3429 -0.0818
 4622SOL     OW14773   4.157   3.639   3.420  0.1612  0.2857  0.4727
 4622SOL    HW114774   4.150   3.730   3.450 -1.4051  1.4877 -2.9534
 4622SOL    HW214775   4.072   3.600   3.443  0.4947 -0.0594  1.1429
 4623SOL     OW14776   3.233   4.259   1.180 -0.3023 -0.6646  0.2497
 4623SOL    HW114777   3.328   4.246   1.185 -0.1364  0.6414  1.0623
 4623SOL    HW214778   3.201   4.231   1.266 -0.7701 -1.7585 -0.2574
 4624SOL     OW14779   6.785   6.870   0.156 -0.0026  0.1318 -0.4845
 4624SOL    HW114780   6.837   6.793   0.180 -0.3712  0.1070  0.2558
 4624SOL    HW214781   6.770   6.860   0.062 -0.1516 -0.7635 -0.3723
 4625SOL     OW14782   7.267   5.433   3.527 -0.5749  0.4382 -0.4877
 4625SOL    HW114783   7.304   5.491   3.460 -0.6430  0.7615 -0.2479
 4625SOL    HW214784   7.226   5.363   3.478 -1.6154  1.2641 -0.8325
 4626SOL     OW14785   0.525   2.918   6.721  0.0259 -0.3207  0.4055
 4626SOL    HW114786   0.512   2.854   6.792  0.6727 -2.0720 -0.9959
 4626SOL    HW214787   0.611   2.956   6.739 -0.8750  1.1630  1.9423
 4627SOL     OW14788   2.613   7.089   3.286 -0.4462 -0.1188 -0.3642
 4627SOL    HW114789   2.558   7.093   3.365 -1.5363 -2.5476 -0.8914
 4627SOL    HW214790   2.552   7.099   3.214  0.1461 -0.4693 -0.9225
 4628SOL     OW14791   3.376   6.746   0.177  0.0117 -0.7129  0.2014
 4628SOL    HW114792   3.463   6.707   0.184  0.0440 -0.6908 -0.0991
 4628SOL    HW214793   3.391   6.831   0.135 -0.3488 -1.4143 -1.4224
 4629SOL     OW14794   7.593   6.709   0.255  0.3134  0.2727  0.2677
 4629SOL    HW114795   7.511   6.672   0.289  0.3416 -0.5946 -0.5694
 4629SOL    HW214796   7.661   6.667   0.308  0.2222  1.2868  1.2293
 4630SOL     OW14797   1.429   1.158   3.745 -0.4211 -0.4007 -0.0825
 4630SOL    HW114798   1.365   1.222   3.776  1.1203  0.0758  2.4204
 4630SOL    HW214799   1.420   1.083   3.804  0.1629 -1.0372 -0.7756
 4631SOL     OW14800   6.999   1.317   1.893  0.0504  0.9580  0.3402
 4631SOL    HW114801   6.993   1.366   1.811 -1.5506  1.9384  0.9799
 4631SOL    HW214802   6.915   1.272   1.900  1.5907 -2.3433 -0.4145
 4632SOL     OW14803   1.640   7.500   6.187 -0.1378  0.0256  0.4184
 4632SOL    HW114804   1.639   7.595   6.187  1.0994  0.1069 -1.5281
 4632SOL    HW214805   1.718   7.476   6.238  0.2292  0.1224 -0.0849
 4633SOL     OW14806   1.718   4.771   5.949 -0.5372 -0.3987 -0.3465
 4633SOL    HW114807   1.803   4.768   5.906 -0.8327  2.0999 -1.3175
 4633SOL    HW214808   1.655   4.756   5.878 -0.9550  1.1567 -0.3464
 4634SOL     OW14809   0.172   0.116   2.101  0.1808  0.5728 -0.2589
 4634SOL    HW114810   0.140   0.077   2.020  0.8279  0.5447 -0.5074
 4634SOL    HW214811   0.095   0.123   2.157  0.0670 -1.2040 -0.1351
 4635SOL     OW14812   0.266   5.589   1.601 -0.6212 -0.4611  0.0817
 4635SOL    HW114813   0.273   5.675   1.561 -0.2178 -0.8207 -0.6427
 4635SOL    HW214814   0.176   5.561   1.583 -0.5862 -0.4208 -0.1573
 4636SOL     OW14815   3.539   7.284   0.871 -0.2277  0.4366  0.0704
 4636SOL    HW114816   3.557   7.310   0.781 -2.4121 -0.3830 -0.6863
 4636SOL    HW214817   3.458   7.330   0.894 -1.4721 -1.7819  0.4206
 4637SOL     OW14818   0.364   3.405   2.459 -0.0149  0.1907  0.4644
 4637SOL    HW114819   0.438   3.376   2.406 -1.1941 -0.2281 -1.0361
 4637SOL    HW214820   0.374   3.500   2.465  0.6726  0.1305  0.3332
 4638SOL     OW14821   2.484   7.309   2.269  0.0423  0.4897  0.1362
 4638SOL    HW114822   2.430   7.387   2.253  0.6276  0.9770  0.5176
 4638SOL    HW214823   2.552   7.338   2.329  0.3867 -0.2724  0.1307
 4639SOL     OW14824   0.059   4.506   6.083  0.2794 -0.5031 -0.0719
 4639SOL    HW114825   0.087   4.565   6.152 -0.6911 -1.2055  0.9648
 4639SOL    HW214826  -0.013   4.552   6.040  0.2258 -0.4805  0.0408
 4640SOL     OW14827   5.479   4.400   3.668  0.7659  0.4803  0.1984
 4640SOL    HW114828   5.430   4.362   3.741  1.1499  1.6904  1.1151
 4640SOL    HW214829   5.519   4.479   3.704  2.9575 -0.1510 -0.6757
 4641SOL     OW14830   2.424   4.792   6.467  0.3148  1.0056 -0.0413
 4641SOL    HW114831   2.337   4.826   6.489 -0.0043 -0.1949  0.6196
 4641SOL    HW214832   2.442   4.827   6.379 -1.7859 -0.4398 -1.1467
 4642SOL     OW14833   6.976   6.935   2.879  0.3221 -0.2776 -0.3427
 4642SOL    HW114834   6.964   6.996   2.806 -1.8477  0.1113  0.2523
 4642SOL    HW214835   7.066   6.906   2.872  0.9139  1.6769 -1.6882
 4643SOL     OW14836   6.278   7.286   0.643 -0.1810 -0.0690  0.5402
 4643SOL    HW114837   6.314   7.310   0.558  1.1049 -3.1388  0.0967
 4643SOL    HW214838   6.290   7.364   0.697 -0.6641  1.8331 -1.9078
 4644SOL     OW14839   0.641   0.328   2.608 -0.0151 -0.4866  0.0348
 4644SOL    HW114840   0.559   0.308   2.562 -0.9211  1.4367  0.6912
 4644SOL    HW214841   0.616   0.393   2.674  1.6281 -1.6002  1.8633
 4645SOL     OW14842   2.457   4.546   3.787  0.1605 -0.0554  0.3275
 4645SOL    HW114843   2.396   4.562   3.860  0.9797 -0.4099  1.1121
 4645SOL    HW214844   2.456   4.451   3.775  1.1011 -0.1452  0.8505
 4646SOL     OW14845   0.227   4.263   1.496 -0.4795  0.3067 -0.5409
 4646SOL    HW114846   0.266   4.178   1.517 -0.7476  0.3034 -0.0331
 4646SOL    HW214847   0.138   4.258   1.531 -0.6488  0.6314 -0.9166
 4647SOL     OW14848   4.569   4.193   3.788  0.4075  0.5082  0.1756
 4647SOL    HW114849   4.558   4.185   3.693 -1.0018  0.0265  0.3633
 4647SOL    HW214850   4.480   4.198   3.822  0.8448 -0.7143  1.5874
 4648SOL     OW14851   7.483   6.006   7.213 -0.4699  0.3674 -0.2379
 4648SOL    HW114852   7.424   5.931   7.202 -0.2476  0.3247 -1.2019
 4648SOL    HW214853   7.489   6.045   7.126  2.4060 -0.7672 -0.6820
 4649SOL     OW14854   7.066   3.139   4.471  0.8599 -0.0329  0.3524
 4649SOL    HW114855   7.105   3.131   4.558  1.2097  2.7029  0.5586
 4649SOL    HW214856   6.974   3.118   4.484  1.1131 -0.7142  1.1385
 4650SOL     OW14857   4.461   5.203   3.309  0.2918 -0.1449 -0.4500
 4650SOL    HW114858   4.504   5.121   3.284 -0.7877 -1.1953  0.9605
 4650SOL    HW214859   4.388   5.176   3.365  1.1863  1.8718  1.8832
 4651SOL     OW14860   5.361   4.879   1.840  0.6815  0.2545 -0.5135
 4651SOL    HW114861   5.292   4.843   1.785  0.5307  0.7510 -0.6583
 4651SOL    HW214862   5.349   4.837   1.925  1.0207 -0.6494 -0.8953
 4652SOL     OW14863   3.741   7.558   6.224 -0.7374 -0.1301  0.0365
 4652SOL    HW114864   3.803   7.602   6.283 -0.1302  0.8541 -1.2929
 4652SOL    HW214865   3.713   7.480   6.273 -0.8871  1.0591  1.9471
 4653SOL     OW14866   0.794   0.302   4.538  0.7209 -0.1322 -0.0591
 4653SOL    HW114867   0.779   0.382   4.588 -0.5812 -0.1254 -0.4214
 4653SOL    HW214868   0.758   0.232   4.592 -2.4464  0.0655 -1.6425
 4654SOL     OW14869   7.655   4.159   2.586  0.4524 -0.0150 -0.1127
 4654SOL    HW114870   7.706   4.232   2.552  1.8747 -1.0942 -0.3644
 4654SOL    HW214871   7.716   4.086   2.591 -0.1448 -0.4454  2.9684
 4655SOL     OW14872   1.117   6.074   4.070 -0.6684  1.1997  0.2082
 4655SOL    HW114873   1.159   6.159   4.057 -1.6029  1.6073 -0.2177
 4655SOL    HW214874   1.024   6.090   4.055 -0.8657  0.1131  0.1627
 4656SOL     OW14875   2.793   2.072   1.114 -0.0037  0.1038 -0.6295
 4656SOL    HW114876   2.830   1.988   1.144  1.1531  0.2774 -1.4804
 4656SOL    HW214877   2.745   2.050   1.035 -2.0986 -0.1693  0.6320
 4657SOL     OW14878   6.772   1.893   6.952  0.2096  0.3881  0.6637
 4657SOL    HW114879   6.681   1.886   6.983 -0.2251  0.3801 -0.5254
 4657SOL    HW214880   6.773   1.975   6.903  0.6186 -0.0099 -0.0090
 4658SOL     OW14881   6.662   0.341   1.401  0.0258  0.1180 -0.4654
 4658SOL    HW114882   6.657   0.291   1.482 -0.1982  0.5256 -0.2207
 4658SOL    HW214883   6.670   0.432   1.430 -0.2759  0.2880 -0.8958
 4659SOL     OW14884   1.551   5.358   5.837  0.1154 -0.1970 -0.1485
 4659SOL    HW114885   1.602   5.317   5.907  1.1866 -1.6676 -1.7168
 4659SOL    HW214886   1.527   5.286   5.779 -0.8698  0.9506 -1.2402
 4660SOL     OW14887   3.894   1.365   6.623 -0.0351 -0.4808 -0.2044
 4660SOL    HW114888   3.884   1.301   6.553 -3.1308  0.5157 -0.8016
 4660SOL    HW214889   3.933   1.441   6.580  0.9555 -0.9183 -0.1142
 4661SOL     OW14890   0.724   1.271   1.109  0.2260  0.2543  0.2136
 4661SOL    HW114891   0.766   1.185   1.103  0.0821  0.1521  0.6446
 4661SOL    HW214892   0.659   1.271   1.039 -0.0404 -0.1407  0.4597
 4662SOL     OW14893   2.948   0.516   6.560  0.3843 -0.4756  0.1317
 4662SOL    HW114894   3.000   0.542   6.636 -0.7314 -0.0466  0.7703
 4662SOL    HW214895   2.961   0.422   6.552 -0.6539 -0.7927  1.7945
 4663SOL     OW14896   2.191   1.072   3.277 -0.1456  0.3557 -0.3234
 4663SOL    HW114897   2.163   0.981   3.291  0.1868  0.0699 -1.4042
 4663SOL    HW214898   2.113   1.116   3.244 -0.3571  0.5167  0.3760
 4664SOL     OW14899   6.095   0.211   3.185  0.8550  0.4439  0.1310
 4664SOL    HW114900   6.008   0.173   3.196  1.0385  0.3775  1.4301
 4664SOL    HW214901   6.082   0.305   3.198  0.8949  0.5083 -0.2551
 4665SOL     OW14902   6.246   1.725   3.698 -0.1577 -0.1633 -0.3299
 4665SOL    HW114903   6.233   1.820   3.695 -1.6065 -0.2380  1.5469
 4665SOL    HW214904   6.314   1.711   3.764  0.8021 -0.4228 -1.3332
 4666SOL     OW14905   3.038   2.486   7.128 -0.4609  0.2686 -0.3868
 4666SOL    HW114906   3.049   2.402   7.083 -2.7447 -0.9348  1.1130
 4666SOL    HW214907   2.943   2.502   7.124 -0.4686  1.1628  2.1101
 4667SOL     OW14908   0.094   4.526   2.238 -0.1290 -0.3139 -0.3667
 4667SOL    HW114909   0.062   4.480   2.161  2.3401 -1.1713 -0.9736
 4667SOL    HW214910   0.093   4.618   2.214 -2.2301 -0.2707 -0.2616
 4668SOL     OW14911   2.229   0.413   1.239 -0.8909 -0.2109  0.1202
 4668SOL    HW114912   2.302   0.432   1.181 -1.8456  2.3579 -0.4096
 4668SOL    HW214913   2.266   0.358   1.308  1.4832  0.8324 -0.2264
 4669SOL     OW14914   1.848   1.049   5.261  0.5957 -0.3554 -0.3675
 4669SOL    HW114915   1.858   1.141   5.240  0.6254 -0.9570 -3.3644
 4669SOL    HW214916   1.762   1.044   5.304  2.4441  1.5564  4.2515
 4670SOL     OW14917   5.631   0.950   0.484 -0.1033 -0.1628  0.2157
 4670SOL    HW114918   5.677   0.888   0.427 -0.7774 -2.0971  1.6458
 4670SOL    HW214919   5.690   1.025   0.491  1.8632 -1.6316  0.2577
 4671SOL     OW14920   5.792   4.479   7.205 -0.4578  0.0342 -0.6305
 4671SOL    HW114921   5.723   4.520   7.258 -0.2822  0.5734 -0.8126
 4671SOL    HW214922   5.821   4.549   7.146  2.2425  0.7646  1.3481
 4672SOL     OW14923   4.151   1.076   0.942 -0.4507  0.5210  0.9670
 4672SOL    HW114924   4.214   1.013   0.978  0.0659  1.0672  1.0241
 4672SOL    HW214925   4.074   1.068   0.999 -1.5492 -2.1308 -0.6970
 4673SOL     OW14926   5.567   0.496   0.033 -0.4102  0.8565 -0.1441
 4673SOL    HW114927   5.488   0.445   0.048 -1.0907  2.1526  0.8241
 4673SOL    HW214928   5.586   0.482  -0.060 -1.9272  0.7426 -0.4694
 4674SOL     OW14929   3.965   5.638   3.329  0.0402 -0.0013 -0.0678
 4674SOL    HW114930   3.998   5.716   3.284  2.9245 -1.9683 -1.6663
 4674SOL    HW214931   3.907   5.673   3.397  1.5043  3.5468 -0.4128
 4675SOL     OW14932   1.674   3.711   2.571 -0.0494 -0.1906  0.1558
 4675SOL    HW114933   1.711   3.775   2.632 -0.7784  0.4486 -0.0507
 4675SOL    HW214934   1.627   3.764   2.506  0.3119 -0.8806 -0.6901
 4676SOL     OW14935   7.444   0.809   0.624 -0.6877 -0.5048  0.0416
 4676SOL    HW114936   7.449   0.735   0.685  0.1525 -0.0435  0.5515
 4676SOL    HW214937   7.489   0.880   0.669 -0.2890 -0.0771 -1.0088
 4677SOL     OW14938   6.104   5.459   2.285 -0.6785  0.8110 -0.1945
 4677SOL    HW114939   6.113   5.452   2.380 -0.1743 -0.6511 -0.3166
 4677SOL    HW214940   6.029   5.403   2.264  0.1084 -0.0486 -0.7832
 4678SOL     OW14941   6.920   4.999   0.081  0.6475 -0.5999  0.0429
 4678SOL    HW114942   6.967   4.988   0.164 -0.8330  0.4821  1.0788
 4678SOL    HW214943   6.847   5.056   0.103  0.9096  0.7536 -2.3089
 4679SOL     OW14944   6.676   2.148   5.632 -0.4423  0.3690  0.3013
 4679SOL    HW114945   6.671   2.063   5.675  0.4007  0.2971  0.2719
 4679SOL    HW214946   6.591   2.158   5.589 -0.5871 -0.4097  0.3884
 4680SOL     OW14947   3.267   0.090   2.737 -0.2121  0.1422  0.1831
 4680SOL    HW114948   3.339   0.153   2.731 -0.3839  0.2804 -0.6149
 4680SOL    HW214949   3.194   0.132   2.691 -1.4299  0.7947  2.5509
 4681SOL     OW14950   4.464   7.330   1.545 -0.0549  0.4819  0.2988
 4681SOL    HW114951   4.388   7.290   1.503 -0.0507  1.9987 -1.2674
 4681SOL    HW214952   4.539   7.299   1.493 -0.1631  3.4133 -1.7949
 4682SOL     OW14953   5.424   6.361   3.932 -0.1778  0.0348 -0.3243
 4682SOL    HW114954   5.376   6.303   3.872  0.0967  1.3626 -1.9062
 4682SOL    HW214955   5.510   6.371   3.892  1.0112 -1.1816  1.7460
 4683SOL     OW14956   5.696   3.329   1.386 -0.0459  0.0967 -0.2873
 4683SOL    HW114957   5.718   3.346   1.295 -0.3097 -1.6219 -0.7001
 4683SOL    HW214958   5.777   3.292   1.423 -0.2324 -0.0968 -0.0723
 4684SOL     OW14959   5.136   4.368   6.718  0.4904  0.0238  0.5130
 4684SOL    HW114960   5.212   4.332   6.673 -0.8394 -1.9074 -0.3708
 4684SOL    HW214961   5.126   4.314   6.796  0.0296  0.2189  0.5959
 4685SOL     OW14962   5.098   5.320   2.151  0.1032 -0.0487  0.6072
 4685SOL    HW114963   5.060   5.291   2.069 -0.2744 -0.1203  0.8048
 4685SOL    HW214964   5.024   5.353   2.202  0.4178  0.5709  0.6789
 4686SOL     OW14965   4.294   5.857   5.626  0.0121 -0.1293 -0.0814
 4686SOL    HW114966   4.272   5.884   5.537 -0.5134  0.4038  0.2013
 4686SOL    HW214967   4.215   5.813   5.658 -0.3371  0.9711  0.6207
 4687SOL     OW14968   0.560   1.417   5.165 -0.3034  0.4606 -0.1925
 4687SOL    HW114969   0.538   1.464   5.246  0.1258  0.0656  0.1558
 4687SOL    HW214970   0.631   1.468   5.126 -0.0445  0.2754  0.0313
 4688SOL     OW14971   4.597   3.880   6.620  0.2434  0.1930 -0.7703
 4688SOL    HW114972   4.658   3.810   6.644  0.8078 -0.0385 -2.7434
 4688SOL    HW214973   4.534   3.883   6.693  1.6114 -0.7039  0.5023
 4689SOL     OW14974   2.833   0.049   6.658 -0.0197  0.0371  0.3384
 4689SOL    HW114975   2.792   0.026   6.574 -0.6353  0.6630  0.4663
 4689SOL    HW214976   2.872  -0.034   6.688 -1.4503 -0.6541  0.3704
 4690SOL     OW14977   2.175   5.730   4.985  0.0871 -0.3727 -0.5046
 4690SOL    HW114978   2.217   5.815   4.974  0.3445 -0.4146  0.0987
 4690SOL    HW214979   2.231   5.669   4.936 -1.0181  0.0361 -2.3700
 4691SOL     OW14980   3.693   3.115   6.016 -0.0812  0.1727 -0.0607
 4691SOL    HW114981   3.617   3.140   6.068 -2.2926  2.5142 -3.9198
 4691SOL    HW214982   3.669   3.031   5.976 -0.0722  0.2497 -0.2306
 4692SOL     OW14983   1.666   3.532   1.962 -0.5083 -0.3512 -0.2285
 4692SOL    HW114984   1.712   3.571   2.036 -0.0378 -2.0074  0.3884
 4692SOL    HW214985   1.588   3.491   2.001 -0.3623 -1.0631 -0.6711
 4693SOL     OW14986   3.662   1.687   1.569  0.4038 -0.2668  0.3368
 4693SOL    HW114987   3.730   1.619   1.563  0.0132 -0.7891  1.4982
 4693SOL    HW214988   3.688   1.753   1.505  0.9052 -1.4179 -0.6874
 4694SOL     OW14989   0.162   3.057   4.089  0.0205  0.9776 -0.1483
 4694SOL    HW114990   0.186   3.094   4.174  1.9027 -0.1568 -0.1358
 4694SOL    HW214991   0.129   2.970   4.110 -0.2896  1.0044 -0.5232
 4695SOL     OW14992   5.202   7.522   4.322 -0.7953  0.2083  0.5245
 4695SOL    HW114993   5.289   7.551   4.295 -1.2191  1.3045  0.2827
 4695SOL    HW214994   5.188   7.441   4.273 -0.7869  1.1804 -1.2055
 4696SOL     OW14995   2.789   2.267   6.620 -0.2401  0.1366  0.3369
 4696SOL    HW114996   2.773   2.202   6.689 -0.1384  0.0344  0.2658
 4696SOL    HW214997   2.802   2.349   6.666 -0.9780  0.2208  0.3933
 4697SOL     OW14998   0.120   3.864   2.769  0.6748  0.4741 -0.2522
 4697SOL    HW114999   0.025   3.850   2.762  0.3995  2.0291  0.0151
 4697SOL    HW215000   0.151   3.860   2.678  0.3170  0.2416 -0.3701
 4698SOL     OW15001   5.802   5.954   6.534 -0.0690 -0.1635 -0.0541
 4698SOL    HW115002   5.819   6.018   6.466 -0.0347 -2.0420 -1.8923
 4698SOL    HW215003   5.795   5.870   6.488 -3.1337 -1.1344  1.8205
 4699SOL     OW15004   3.151   3.623   4.472 -0.3444 -0.0457 -0.0759
 4699SOL    HW115005   3.233   3.673   4.470  0.2321 -0.9714 -2.2730
 4699SOL    HW215006   3.103   3.660   4.545  1.3609  1.6218  0.2879
 4700SOL     OW15007   3.822   0.230   2.839 -0.0621  0.6367  0.2331
 4700SOL    HW115008   3.766   0.218   2.762  3.8056  0.2406 -2.8671
 4700SOL    HW215009   3.861   0.144   2.855 -1.1791  0.5726  3.1601
 4701SOL     OW15010   2.260   3.300   6.301  0.2675 -0.3155  0.3712
 4701SOL    HW115011   2.259   3.368   6.368 -0.5560  0.1205 -0.0715
 4701SOL    HW215012   2.306   3.227   6.341 -1.2430 -0.5033  1.8425
 4702SOL     OW15013   0.391   5.900   7.164  0.1710 -0.1842  0.5925
 4702SOL    HW115014   0.373   5.869   7.253 -0.8262 -0.7609  0.2026
 4702SOL    HW215015   0.471   5.951   7.173 -0.1193  0.0935  1.8965
 4703SOL     OW15016   2.576   7.074   0.458 -0.0174  0.3953 -0.0683
 4703SOL    HW115017   2.594   7.086   0.551 -1.0613  0.2868  0.1582
 4703SOL    HW215018   2.506   7.009   0.455 -0.9548  1.4029 -0.8591
 4704SOL     OW15019   3.639   5.790   6.239  0.2731 -0.2492  0.0110
 4704SOL    HW115020   3.548   5.762   6.247  0.6355 -1.2978  0.7398
 4704SOL    HW215021   3.658   5.831   6.324  0.5230 -0.1832 -0.0784
 4705SOL     OW15022   2.274   7.224   0.050  0.0141 -0.1026  0.3939
 4705SOL    HW115023   2.320   7.161   0.105 -0.3575 -2.0568 -1.3793
 4705SOL    HW215024   2.331   7.235  -0.027 -0.9663 -0.0199 -0.3389
 4706SOL     OW15025   3.193   5.247   7.532  0.2901 -0.3306 -0.2100
 4706SOL    HW115026   3.223   5.258   7.622 -0.8071  1.2727  0.0013
 4706SOL    HW215027   3.258   5.190   7.491  1.6723  0.2162  1.1553
 4707SOL     OW15028   1.908   5.805   2.300 -0.6593  0.4664  0.3336
 4707SOL    HW115029   1.929   5.720   2.261  0.4605  0.7177  0.3563
 4707SOL    HW215030   1.873   5.784   2.386 -0.7458  0.0080  0.1879
 4708SOL     OW15031   1.240   2.317   3.128 -0.4715 -0.1153  0.2563
 4708SOL    HW115032   1.255   2.242   3.185 -1.1758  0.7796  1.6464
 4708SOL    HW215033   1.231   2.391   3.187 -1.2914  0.8348 -1.0169
 4709SOL     OW15034   2.803   3.535   1.634  0.0170 -0.3367  0.2147
 4709SOL    HW115035   2.854   3.554   1.712  0.3944 -1.5735  0.2784
 4709SOL    HW215036   2.861   3.484   1.578 -0.2078  0.6064 -0.9452
 4710SOL     OW15037   0.910   5.376   3.730 -0.2474 -0.8102  0.4431
 4710SOL    HW115038   0.858   5.456   3.732 -1.7128 -1.7291  0.9199
 4710SOL    HW215039   0.897   5.336   3.817  2.3412 -0.4459  1.0821
 4711SOL     OW15040   4.999   1.155   2.613 -0.0149 -0.0496 -0.1718
 4711SOL    HW115041   4.941   1.113   2.550  0.6779 -0.3311 -0.6210
 4711SOL    HW215042   5.087   1.142   2.579  0.5715 -1.9175  1.8025
 4712SOL     OW15043   4.101   2.613   7.706 -0.0115 -0.2597  0.1579
 4712SOL    HW115044   4.067   2.524   7.698  1.0059 -0.6074 -0.4776
 4712SOL    HW215045   4.153   2.626   7.627  0.8235  0.4594  0.8080
 4713SOL     OW15046   1.631   6.197   6.794 -0.0254 -0.3739  0.3842
 4713SOL    HW115047   1.567   6.134   6.824  0.2254 -1.0201 -0.3956
 4713SOL    HW215048   1.670   6.233   6.874  0.7001 -2.1066  0.8573
 4714SOL     OW15049   2.498   3.498   3.968 -0.4345 -0.5074  0.0449
 4714SOL    HW115050   2.417   3.453   3.942  0.0749 -0.6605 -1.3802
 4714SOL    HW215051   2.548   3.433   4.017 -0.9509 -0.5607  0.5144
 4715SOL     OW15052   1.681   6.175   2.617  0.9451 -0.0012  0.3024
 4715SOL    HW115053   1.718   6.263   2.621 -1.4433  1.1972 -1.1528
 4715SOL    HW215054   1.684   6.152   2.524  0.6831 -1.0479  0.5438
 4716SOL     OW15055   1.401   2.212   1.506  0.0343  0.7501  0.0450
 4716SOL    HW115056   1.381   2.186   1.596  0.2020  0.2688 -0.0576
 4716SOL    HW215057   1.475   2.157   1.480  0.7178  1.6695 -0.0082
 4717SOL     OW15058   4.999   5.528   3.876 -0.3472  0.0860  0.0602
 4717SOL    HW115059   4.919   5.577   3.894 -0.6881 -0.1514 -0.7170
 4717SOL    HW215060   5.031   5.501   3.962  0.2184  2.1980  0.5654
 4718SOL     OW15061   1.527   4.725   5.741  0.2299 -0.6117 -0.4132
 4718SOL    HW115062   1.444   4.714   5.787  0.7193 -2.4734  0.1327
 4718SOL    HW215063   1.505   4.711   5.649 -0.1938 -0.3084 -0.3576
 4719SOL     OW15064   5.068   2.191   4.777 -0.1177  0.1823  0.0910
 4719SOL    HW115065   5.098   2.221   4.863  0.8979  1.7405 -0.7578
 4719SOL    HW215066   5.117   2.110   4.762  0.1540  0.2186  0.7243
 4720SOL     OW15067   7.505   7.198   4.608  0.1494  0.2154  0.3444
 4720SOL    HW115068   7.581   7.252   4.586  0.9022 -0.7463  0.4921
 4720SOL    HW215069   7.519   7.117   4.559 -0.6064 -0.1124  0.6537
 4721SOL     OW15070   3.823   5.800   6.034 -0.5993 -0.4209 -0.3153
 4721SOL    HW115071   3.759   5.788   5.964 -0.7370 -0.1549 -0.2344
 4721SOL    HW215072   3.772   5.827   6.110 -0.5498 -1.5078  0.1261
 4722SOL     OW15073   5.878   1.608   6.425 -0.0802 -0.1800 -0.3373
 4722SOL    HW115074   5.839   1.652   6.349  0.6337  0.0818 -0.5582
 4722SOL    HW215075   5.923   1.677   6.473 -3.1080  0.2887  2.0857
 4723SOL     OW15076   0.638   3.320   6.605  0.0472  0.4832 -0.2118
 4723SOL    HW115077   0.670   3.251   6.547 -0.8763  1.5583 -2.0879
 4723SOL    HW215078   0.561   3.283   6.648 -0.0661  0.1322 -0.7144
 4724SOL     OW15079   1.920   5.500   4.034  0.3953  0.1866 -0.5480
 4724SOL    HW115080   1.894   5.408   4.025  2.6233 -0.3784 -2.0992
 4724SOL    HW215081   1.935   5.511   4.128 -0.9056 -0.7188 -0.2118
 4725SOL     OW15082   3.309   2.687   2.189 -0.2184 -0.0969 -0.3739
 4725SOL    HW115083   3.274   2.666   2.102  0.1570  1.9794 -1.0633
 4725SOL    HW215084   3.268   2.622   2.247 -0.2385 -1.7345 -2.1051
 4726SOL     OW15085   6.282   3.684   4.908  0.0185  0.5587 -0.3882
 4726SOL    HW115086   6.256   3.622   4.977 -1.0193  1.6203  0.2206
 4726SOL    HW215087   6.247   3.645   4.827 -0.0826  0.0416 -0.1046
 4727SOL     OW15088   7.281   4.074   4.918  0.3837  0.3593  0.0973
 4727SOL    HW115089   7.346   4.107   4.980 -0.5022 -0.3939  1.4748
 4727SOL    HW215090   7.320   4.091   4.832  1.4863  1.7656  0.8208
 4728SOL     OW15091   4.335   3.400   2.276  0.0556 -0.1163  0.1752
 4728SOL    HW115092   4.347   3.306   2.291 -1.2467 -0.4208 -0.5492
 4728SOL    HW215093   4.284   3.405   2.195 -1.1628  1.1582  0.9697
 4729SOL     OW15094   3.781   5.871   0.781 -0.3394  0.0026 -0.1290
 4729SOL    HW115095   3.843   5.882   0.709 -0.5959 -1.1828 -0.5609
 4729SOL    HW215096   3.706   5.826   0.741 -0.3753 -0.9204  0.9137
 4730SOL     OW15097   1.288   5.170   2.268  0.1358  0.8640 -0.6381
 4730SOL    HW115098   1.260   5.116   2.341  1.9038 -0.3088 -0.7604
 4730SOL    HW215099   1.267   5.260   2.295 -1.8366  0.2352  0.0469
 4731SOL     OW15100   6.557   3.000   1.641  0.2093  0.0862  0.8172
 4731SOL    HW115101   6.622   2.937   1.611 -0.6954 -0.4410 -0.0775
 4731SOL    HW215102   6.527   3.044   1.562 -1.7626 -0.8848  0.9701
 4732SOL     OW15103   4.184   2.832   0.325 -0.6344  0.1920 -0.0078
 4732SOL    HW115104   4.173   2.861   0.235 -1.2368  0.3938  0.1334
 4732SOL    HW215105   4.162   2.738   0.322  0.3554 -0.0463 -0.2672
 4733SOL     OW15106   2.464   7.065   3.546  0.3471 -0.1965 -0.1718
 4733SOL    HW115107   2.521   6.999   3.585  2.0404 -0.1902 -2.4546
 4733SOL    HW215108   2.386   7.017   3.519  0.9735 -1.0037 -0.5734
 4734SOL     OW15109   2.108   6.914   0.969 -0.0062  0.3109  0.3000
 4734SOL    HW115110   2.049   6.974   1.013 -3.8202 -0.8246 -2.6825
 4734SOL    HW215111   2.074   6.827   0.989  1.8885 -0.5524 -0.0147
 4735SOL     OW15112   0.352   3.799   2.176  0.0529 -0.3679 -0.5334
 4735SOL    HW115113   0.373   3.892   2.187 -1.5951 -0.0752  0.4998
 4735SOL    HW215114   0.382   3.778   2.088  2.8251  0.4381  0.1079
 4736SOL     OW15115   0.777   3.112   0.761  0.9018 -0.0265  0.1245
 4736SOL    HW115116   0.722   3.124   0.684  0.9292 -0.1585  0.0851
 4736SOL    HW215117   0.718   3.121   0.835  0.9083  0.2894  0.0920
 4737SOL     OW15118   5.995   0.474   7.563  0.1751  0.0347  0.4926
 4737SOL    HW115119   5.933   0.422   7.613  0.9460  0.2590  1.7497
 4737SOL    HW215120   5.951   0.558   7.550  0.3247  0.3150  1.6834
 4738SOL     OW15121   5.420   2.491   1.657  0.1227 -0.6402 -0.1594
 4738SOL    HW115122   5.462   2.497   1.743  0.0290 -1.2550 -0.0670
 4738SOL    HW215123   5.413   2.582   1.627  0.0795 -0.4135  0.5213
 4739SOL     OW15124   6.390   2.949   3.452  0.0991  0.1019  0.1842
 4739SOL    HW115125   6.456   2.928   3.518  0.7146 -2.6623 -1.1789
 4739SOL    HW215126   6.436   3.000   3.386 -0.0822  1.3169  0.9644
 4740SOL     OW15127   3.837   4.503   5.883 -0.6352  0.3239 -0.6679
 4740SOL    HW115128   3.802   4.416   5.865 -0.8643  0.1952  0.3443
 4740SOL    HW215129   3.879   4.529   5.801 -1.6789 -0.1993 -1.4027
 4741SOL     OW15130   1.949   4.743   0.115 -0.0200  0.0193  0.3032
 4741SOL    HW115131   1.942   4.793   0.197 -1.8204  0.2267  0.0759
 4741SOL    HW215132   1.972   4.655   0.142  0.2701  0.2862  0.9528
 4742SOL     OW15133   0.502   3.686   7.406  0.2020  0.5515  0.7181
 4742SOL    HW115134   0.526   3.629   7.334 -0.9812 -2.5739  2.6041
 4742SOL    HW215135   0.471   3.766   7.364 -0.6330 -1.1681 -2.2416
 4743SOL     OW15136   6.030   4.074   1.479  0.7145 -0.0427  0.4386
 4743SOL    HW115137   5.948   4.060   1.431  0.9934 -1.0637  0.2372
 4743SOL    HW215138   6.087   4.121   1.417  0.2177  0.8824  0.6608
 4744SOL     OW15139   0.066   6.132   5.491 -0.6041 -0.1712 -0.1894
 4744SOL    HW115140  -0.002   6.176   5.541  0.5706  1.3233  0.1646
 4744SOL    HW215141   0.142   6.130   5.550 -0.3001 -1.7639 -0.5778
 4745SOL     OW15142   5.037   1.768   6.298 -0.1160  0.0308  0.5204
 4745SOL    HW115143   4.994   1.807   6.374  2.7362  0.9644  1.7902
 4745SOL    HW215144   5.068   1.842   6.246  0.5268 -0.5648  0.0264
 4746SOL     OW15145   7.582   4.419   3.105  0.5097  0.3812  0.1075
 4746SOL    HW115146   7.620   4.333   3.122 -0.9173 -0.4727 -0.8926
 4746SOL    HW215147   7.488   4.405   3.108  0.2427  1.7104 -1.0425
 4747SOL     OW15148   2.034   4.270   1.313 -0.2352  0.6588  0.3243
 4747SOL    HW115149   2.014   4.292   1.404 -0.5399  1.4815  0.0645
 4747SOL    HW215150   2.061   4.178   1.316  0.1417  0.7891  1.3019
 4748SOL     OW15151   1.659   1.240   4.277  0.6226 -0.0142  0.0786
 4748SOL    HW115152   1.718   1.295   4.327  0.3299  0.6230 -0.2632
 4748SOL    HW215153   1.691   1.245   4.187  0.5825 -0.3889  0.0406
 4749SOL     OW15154   2.830   4.191   3.517 -0.6091  0.3092 -0.3864
 4749SOL    HW115155   2.759   4.232   3.467 -1.3111  2.0032  1.8220
 4749SOL    HW215156   2.816   4.221   3.607  2.0771 -0.5040  0.3879
 4750SOL     OW15157   4.856   2.461   2.741 -0.0568  0.0662 -0.0540
 4750SOL    HW115158   4.810   2.474   2.658 -0.8248  1.4752  0.5543
 4750SOL    HW215159   4.946   2.488   2.723 -0.8575  3.4794  0.2727
 4751SOL     OW15160   6.376   4.047   6.569 -0.0260 -0.4447 -0.5414
 4751SOL    HW115161   6.291   4.066   6.529  0.6912  0.8510 -1.5253
 4751SOL    HW215162   6.439   4.095   6.515  0.9956  1.6371  2.2478
 4752SOL     OW15163   3.000   5.587   0.324  0.5707 -1.1773  0.7741
 4752SOL    HW115164   3.067   5.549   0.266  0.3544  0.7547 -0.8517
 4752SOL    HW215165   2.917   5.563   0.284  0.4296  1.0200 -0.4138
 4753SOL     OW15166   7.518   1.054   6.117  0.4753 -0.1792 -0.2132
 4753SOL    HW115167   7.441   1.054   6.060  0.3288  0.0732 -0.0159
 4753SOL    HW215168   7.532   0.961   6.137 -0.9343 -0.1091  1.2996
 4754SOL     OW15169   6.632   3.709   3.761 -0.2183 -0.1217  0.5500
 4754SOL    HW115170   6.549   3.686   3.802 -0.7003 -0.4751 -0.5927
 4754SOL    HW215171   6.616   3.700   3.667  0.9103  0.4850  0.2807
 4755SOL     OW15172   5.771   6.070   4.610  0.4684 -0.1132 -0.1492
 4755SOL    HW115173   5.825   5.994   4.630  0.5721 -0.4039 -1.4182
 4755SOL    HW215174   5.695   6.062   4.667  1.7869  0.3695  1.7613
 4756SOL     OW15175   3.392   4.279   3.543  0.2044  0.4820 -0.2284
 4756SOL    HW115176   3.368   4.356   3.491 -0.7049 -0.1925 -0.8566
 4756SOL    HW215177   3.337   4.284   3.621 -1.4074 -0.5534 -1.2179
 4757SOL     OW15178   0.817   4.351   6.232 -0.0754  0.0619 -0.1903
 4757SOL    HW115179   0.771   4.272   6.259  0.9031 -1.0752 -1.6380
 4757SOL    HW215180   0.858   4.383   6.312 -1.5780 -0.1084  0.6869
 4758SOL     OW15181   0.937   1.459   3.551  0.2214  0.2407  0.1397
 4758SOL    HW115182   0.898   1.463   3.638 -0.6816  0.4092 -0.2629
 4758SOL    HW215183   0.885   1.395   3.503  0.8844 -0.0625 -0.2038
 4759SOL     OW15184   6.304   7.482   0.803  0.3269 -0.1675  0.2627
 4759SOL    HW115185   6.372   7.535   0.845 -0.1034 -0.2649  1.1150
 4759SOL    HW215186   6.227   7.538   0.802  0.6834  0.3418 -1.7140
 4760SOL     OW15187   1.185   4.074   7.161  0.5394 -0.0527  0.4684
 4760SOL    HW115188   1.226   4.098   7.078 -0.9766 -0.9281 -0.5934
 4760SOL    HW215189   1.157   3.983   7.148 -0.1814 -0.0361  1.7579
 4761SOL     OW15190   4.049   1.793   7.211 -0.6684 -0.0063  0.3056
 4761SOL    HW115191   4.138   1.757   7.202 -1.2466 -1.4673  0.2216
 4761SOL    HW215192   4.018   1.806   7.122 -0.4535  0.7914  0.3330
 4762SOL     OW15193   2.800   4.517   4.374  0.2783  0.1275 -0.3276
 4762SOL    HW115194   2.864   4.446   4.375  0.1838  0.0478  1.0496
 4762SOL    HW215195   2.847   4.591   4.335  1.2357  0.0790  0.6894
 4763SOL     OW15196   3.705   0.009   5.088  0.1899  0.2580  0.1445
 4763SOL    HW115197   3.630  -0.052   5.084  0.1004  0.4003 -2.7001
 4763SOL    HW215198   3.757  -0.022   5.162 -2.3836 -0.1562  1.9362
 4764SOL     OW15199   5.699   3.821   2.934  0.4034 -0.3891 -0.2750
 4764SOL    HW115200   5.622   3.840   2.881  0.9319  0.8846 -0.6258
 4764SOL    HW215201   5.753   3.899   2.927  1.7793 -1.2887 -0.1146
 4765SOL     OW15202   4.119   3.822   1.051 -0.1757 -0.3961  0.1551
 4765SOL    HW115203   4.080   3.755   1.107 -0.8143  0.7771  1.1776
 4765SOL    HW215204   4.068   3.901   1.070  0.8857  0.5027 -0.6193
 4766SOL     OW15205   1.097   1.380   0.891  0.1426  0.1684 -0.5975
 4766SOL    HW115206   1.056   1.358   0.808  1.4756 -0.7369 -1.0546
 4766SOL    HW215207   1.029   1.427   0.940 -1.2715 -0.8639 -1.4711
 4767SOL     OW15208   5.351   0.291   7.291 -0.6801 -0.3252 -0.1298
 4767SOL    HW115209   5.412   0.235   7.339 -1.8133 -1.4735  0.0150
 4767SOL    HW215210   5.403   0.369   7.269  0.3718 -0.5464  1.3770
 4768SOL     OW15211   5.862   3.271   4.948 -0.0815  0.0408 -0.4463
 4768SOL    HW115212   5.793   3.285   5.013  0.0135  1.2520 -0.5846
 4768SOL    HW215213   5.815   3.247   4.868 -0.1424 -2.8703  0.3575
 4769SOL     OW15214   6.487   0.387   0.248  0.0363  0.0950  0.0875
 4769SOL    HW115215   6.554   0.375   0.180  0.0722  2.1482 -0.3235
 4769SOL    HW215216   6.527   0.353   0.328  0.7803 -0.5491 -0.5406
 4770SOL     OW15217   0.395   0.154   4.737 -0.1903  0.4679  0.0526
 4770SOL    HW115218   0.450   0.079   4.714 -1.8820 -0.9656  0.5299
 4770SOL    HW215219   0.331   0.120   4.799 -0.2830  2.5910  1.2347
 4771SOL     OW15220   7.248   6.997   3.969  0.0266 -0.2202 -0.0199
 4771SOL    HW115221   7.331   6.949   3.965 -0.5111 -1.1230 -0.6026
 4771SOL    HW215222   7.197   6.951   4.036 -0.3805 -0.2785 -0.3708
 4772SOL     OW15223   2.025   2.792   3.698  0.3627 -0.1779  0.1475
 4772SOL    HW115224   2.066   2.776   3.783  0.8647  1.8294  0.3407
 4772SOL    HW215225   2.039   2.885   3.682 -0.3475 -0.3625 -1.8227
 4773SOL     OW15226   5.732   4.448   4.647 -0.0867  0.0260 -0.2919
 4773SOL    HW115227   5.749   4.358   4.676  0.5276  0.2589  0.0991
 4773SOL    HW215228   5.811   4.473   4.599 -1.0544 -0.3136 -2.1217
 4774SOL     OW15229   1.569   0.298   7.490 -0.7703 -0.3672 -0.1271
 4774SOL    HW115230   1.558   0.259   7.404 -0.0727 -0.6462 -0.0987
 4774SOL    HW215231   1.639   0.246   7.531  0.9328  1.5137 -0.4784
 4775SOL     OW15232   2.745   0.907   4.037 -0.0354  0.1089 -0.1712
 4775SOL    HW115233   2.755   0.824   3.990 -1.6014  0.1988 -0.7011
 4775SOL    HW215234   2.743   0.883   4.129  0.3252 -0.3454 -0.2758
 4776SOL     OW15235   7.006   3.054   7.691  0.3777  0.6296 -0.7605
 4776SOL    HW115236   7.020   3.126   7.752 -2.4616  2.1469 -1.6843
 4776SOL    HW215237   7.022   3.092   7.605 -1.1273  0.1873 -1.2682
 4777SOL     OW15238   5.917   0.952   4.690  0.2633 -0.2609  0.0814
 4777SOL    HW115239   5.942   0.872   4.643  1.7244  0.4621 -0.4358
 4777SOL    HW215240   5.906   0.925   4.781  0.0970 -1.1765 -0.2069
 4778SOL     OW15241   3.909   1.490   5.291  0.4475  0.0676 -0.7250
 4778SOL    HW115242   3.877   1.413   5.245  0.9171 -0.6960  0.1854
 4778SOL    HW215243   4.000   1.499   5.263  1.2636 -1.3863  1.2070
 4779SOL     OW15244   6.782   5.565   0.945  0.8976  0.2044 -0.3122
 4779SOL    HW115245   6.875   5.556   0.923  0.8004  1.3896 -1.3517
 4779SOL    HW215246   6.754   5.643   0.897 -0.4399  0.3525  0.6455
 4780SOL     OW15247   4.085   3.635   5.914 -0.0299 -0.1602 -0.2118
 4780SOL    HW115248   4.011   3.575   5.918 -0.7700  0.7672  0.7324
 4780SOL    HW215249   4.082   3.682   5.997  2.4706 -1.0500  0.4930
 4781SOL     OW15250   3.827   6.153   3.554  0.0476  0.1815 -0.2870
 4781SOL    HW115251   3.907   6.167   3.604 -0.2633  1.0507 -0.0068
 4781SOL    HW215252   3.785   6.239   3.553 -0.7776 -0.2201 -0.6041
 4782SOL     OW15253   5.973   2.003   2.015 -0.1746 -0.0100  0.3080
 4782SOL    HW115254   6.016   2.045   1.940 -1.7556 -0.6121 -0.9989
 4782SOL    HW215255   6.045   1.967   2.067  0.9501 -0.6119 -1.5611
 4783SOL     OW15256   4.498   1.933   1.025  0.6397 -0.1030  0.5734
 4783SOL    HW115257   4.437   1.960   1.094  1.8113 -0.0515  1.6070
 4783SOL    HW215258   4.535   1.851   1.056  0.9522 -0.2518 -0.1568
 4784SOL     OW15259   3.964   6.171   1.375 -0.3798 -0.4120  0.2155
 4784SOL    HW115260   4.049   6.132   1.355 -0.1061  0.1198  0.3258
 4784SOL    HW215261   3.913   6.161   1.295 -1.4683 -3.8982  1.1437
 4785SOL     OW15262   2.862   7.040   0.902 -0.4834  0.0908 -0.9357
 4785SOL    HW115263   2.954   7.037   0.876 -0.7752  0.8568 -2.1341
 4785SOL    HW215264   2.862   7.012   0.994  0.8835 -0.3418 -1.0489
 4786SOL     OW15265   1.109   7.723   5.787  0.2687 -0.1778  0.6188
 4786SOL    HW115266   1.053   7.662   5.738  0.0735 -0.6784  1.4564
 4786SOL    HW215267   1.168   7.667   5.837  1.3895  0.3410 -0.0630
 4787SOL     OW15268   7.158   7.027   4.880 -0.2524 -0.1987 -0.9880
 4787SOL    HW115269   7.216   6.968   4.926 -1.9880 -0.9928  0.2881
 4787SOL    HW215270   7.205   7.110   4.876  0.1723 -0.2327  1.8175
 4788SOL     OW15271   4.701   1.854   4.392 -0.2512  0.2400  0.4414
 4788SOL    HW115272   4.629   1.809   4.435 -0.6758  1.2923  0.8544
 4788SOL    HW215273   4.741   1.907   4.460  0.0476  0.7278 -0.1034
 4789SOL     OW15274   1.185   0.692   3.286 -0.3382  0.6748 -0.4792
 4789SOL    HW115275   1.264   0.732   3.324 -0.2732  0.8578 -0.7979
 4789SOL    HW215276   1.147   0.641   3.358  0.0489  0.6151 -0.3106
 4790SOL     OW15277   5.528   0.835   2.358 -0.3219  0.2375 -0.8362
 4790SOL    HW115278   5.588   0.895   2.314 -3.2182  2.6783 -1.7590
 4790SOL    HW215279   5.521   0.869   2.447  0.8174 -1.0391 -0.2152
 4791SOL     OW15280   4.089   6.376   2.910  0.0127  0.0473 -0.3481
 4791SOL    HW115281   4.088   6.300   2.967 -0.1762 -0.0852 -0.5273
 4791SOL    HW215282   3.998   6.406   2.908  0.5343  2.2377  2.3253
 4792SOL     OW15283   7.736   7.413   4.820 -0.1926 -0.2126 -0.2794
 4792SOL    HW115284   7.825   7.445   4.833 -1.2717  3.1542 -0.2584
 4792SOL    HW215285   7.701   7.465   4.747 -2.7986  0.1169  1.0759
 4793SOL     OW15286   2.574   0.669   6.808 -0.0119 -0.5488 -0.0922
 4793SOL    HW115287   2.504   0.620   6.851  0.0146 -3.0569 -2.5910
 4793SOL    HW215288   2.541   0.686   6.720  0.0131  4.1645  0.5521
 4794SOL     OW15289   6.385   2.025   6.578  0.7142 -0.3582  0.0535
 4794SOL    HW115290   6.476   2.049   6.560  0.8316  0.2023  1.2344
 4794SOL    HW215291   6.336   2.106   6.561  0.2832 -0.9248 -1.5178
 4795SOL     OW15292   4.453   1.743   7.697  0.1737 -0.1596 -0.1777
 4795SOL    HW115293   4.373   1.721   7.650  0.0934 -0.0594 -0.0863
 4795SOL    HW215294   4.464   1.837   7.682 -1.1078  0.3754  1.9279
 4796SOL     OW15295   0.467   2.535   5.469 -0.1321 -0.2571  0.2125
 4796SOL    HW115296   0.541   2.545   5.529  0.8055 -0.6654 -0.8417
 4796SOL    HW215297   0.390   2.555   5.522  0.6657 -0.5969  1.5461
 4797SOL     OW15298   3.158   3.138   4.514  0.0785  0.2935 -0.2708
 4797SOL    HW115299   3.094   3.206   4.490 -1.1761 -0.3113  1.1585
 4797SOL    HW215300   3.142   3.067   4.453  0.5470  0.7841 -0.9808
 4798SOL     OW15301   2.464   2.207   1.044 -0.0164 -0.3895  0.5019
 4798SOL    HW115302   2.486   2.130   1.098  2.1226  0.7283  1.3742
 4798SOL    HW215303   2.451   2.172   0.956  3.5101 -1.5905  0.2828
 4799SOL     OW15304   4.299   0.526   4.621 -0.1910  0.9869 -0.1338
 4799SOL    HW115305   4.233   0.554   4.685 -2.0588 -0.8623 -1.1207
 4799SOL    HW215306   4.377   0.509   4.673 -2.3963 -3.2254  2.3480
 4800SOL     OW15307   7.302   5.739   0.826 -0.0485  0.0505 -0.1416
 4800SOL    HW115308   7.219   5.773   0.860  0.3196  1.9281 -0.9923
 4800SOL    HW215309   7.367   5.803   0.852  1.0537 -1.0704 -0.0428
 4801SOL     OW15310   0.303   5.290   4.776  0.7603  0.2561 -0.2013
 4801SOL    HW115311   0.378   5.282   4.717 -0.1489 -2.1848 -1.1720
 4801SOL    HW215312   0.302   5.208   4.825 -1.2286  0.2188 -0.2063
 4802SOL     OW15313   7.730   5.348   7.257  0.1932  0.4042 -0.1932
 4802SOL    HW115314   7.714   5.287   7.184  0.2032  0.8205 -0.5452
 4802SOL    HW215315   7.748   5.432   7.215  1.7860  0.3124  0.2232
 4803SOL     OW15316   1.419   0.025   5.767  0.1761 -0.3047  0.3983
 4803SOL    HW115317   1.457   0.016   5.854  1.5577  2.6913  0.2345
 4803SOL    HW215318   1.325   0.027   5.781  0.4116  2.3232  2.1679
 4804SOL     OW15319   0.713   6.446   5.297 -0.2548 -0.1252 -0.1490
 4804SOL    HW115320   0.709   6.458   5.392  0.3330 -0.3781 -0.0870
 4804SOL    HW215321   0.797   6.403   5.282 -0.8701 -1.1660 -0.6763
 4805SOL     OW15322   5.336   0.052   6.395 -0.0880 -0.0760 -0.3226
 4805SOL    HW115323   5.300   0.046   6.306 -1.2146  1.4730 -0.0066
 4805SOL    HW215324   5.260   0.071   6.450  0.7768  0.1664  0.8159
 4806SOL     OW15325   0.851   3.265   5.863  0.0701  0.5854 -0.4470
 4806SOL    HW115326   0.775   3.275   5.920 -0.6707  0.9097 -1.4563
 4806SOL    HW215327   0.865   3.171   5.857 -1.8966  0.3493 -2.3116
 4807SOL     OW15328   4.097   2.904   7.546 -0.4856  0.2375  0.2304
 4807SOL    HW115329   4.168   2.852   7.508 -0.3548  0.5663  0.0258
 4807SOL    HW215330   4.070   2.963   7.476 -0.1156  0.9789  0.7042
 4808SOL     OW15331   0.342   5.328   3.258 -0.0842 -0.4860  0.4521
 4808SOL    HW115332   0.355   5.340   3.164  2.1591 -1.8203  0.5284
 4808SOL    HW215333   0.248   5.340   3.270 -0.5717 -1.0436 -2.0906
 4809SOL     OW15334   3.883   2.710   0.917  0.9311 -0.0891 -0.3367
 4809SOL    HW115335   3.854   2.627   0.878  1.8204 -0.5370 -0.0621
 4809SOL    HW215336   3.804   2.765   0.917 -0.3590 -1.7610  1.7707
 4810SOL     OW15337   1.584   5.651   7.712  0.3742  0.1218  0.2717
 4810SOL    HW115338   1.508   5.628   7.765 -1.1261 -0.6730 -2.0504
 4810SOL    HW215339   1.616   5.568   7.678  0.1581  0.7151 -1.4744
 4811SOL     OW15340   6.408   1.303   3.258  0.1870  0.7996  0.8006
 4811SOL    HW115341   6.379   1.235   3.198 -2.1757  1.5368  1.0165
 4811SOL    HW215342   6.460   1.363   3.204  0.4590 -0.0003  0.1509
 4812SOL     OW15343   6.307   4.580   5.795 -0.3776 -0.8025 -0.7958
 4812SOL    HW115344   6.255   4.615   5.722  1.1262 -1.0929 -2.0798
 4812SOL    HW215345   6.267   4.495   5.814 -3.1441  0.8031  1.3581
 4813SOL     OW15346   6.121   5.012   0.504 -0.6801  0.0128 -0.5560
 4813SOL    HW115347   6.080   4.971   0.428 -1.9609  0.7553 -0.3028
 4813SOL    HW215348   6.048   5.032   0.562  0.1859  0.2953  0.4619
 4814SOL     OW15349   3.851   0.053   3.842 -0.1306  0.1099 -0.2065
 4814SOL    HW115350   3.910   0.001   3.897 -0.3953  0.4872  0.4438
 4814SOL    HW215351   3.767   0.051   3.889 -0.4667  0.1149 -0.7974
 4815SOL     OW15352   7.230   0.312   6.577  0.4370  0.2697 -0.0282
 4815SOL    HW115353   7.236   0.232   6.524  0.4541  1.3537 -1.7594
 4815SOL    HW215354   7.153   0.300   6.631 -0.6246 -0.2037 -1.5761
 4816SOL     OW15355   2.873   7.230   7.458  0.5731  0.1400  0.1219
 4816SOL    HW115356   2.956   7.209   7.416  0.2156 -0.5259 -0.2772
 4816SOL    HW215357   2.856   7.321   7.435  1.3382  0.3824  0.4705
 4817SOL     OW15358   3.968   3.388   2.842  0.4812  0.4065 -0.2937
 4817SOL    HW115359   4.005   3.475   2.861  0.3293  0.3482  0.2772
 4817SOL    HW215360   3.875   3.397   2.860  0.6841 -0.2778  1.2545
 4818SOL     OW15361   7.480   3.498   5.776 -0.0207  0.4418 -0.1284
 4818SOL    HW115362   7.490   3.568   5.712 -2.6883  1.8489  0.8754
 4818SOL    HW215363   7.479   3.542   5.861  0.6212 -1.0889  0.7200
 4819SOL     OW15364   2.561   2.687   4.279  0.1576  0.1038  0.3248
 4819SOL    HW115365   2.475   2.675   4.239 -0.3610  0.5226  1.2955
 4819SOL    HW215366   2.559   2.776   4.314  1.0292  0.1555  0.2801
 4820SOL     OW15367   4.288   3.913   6.463  0.2360  0.2298  0.1264
 4820SOL    HW115368   4.272   4.008   6.460 -1.7195  0.0061  1.8778
 4820SOL    HW215369   4.360   3.903   6.525 -0.1861  0.5131  0.6668
 4821SOL     OW15370   0.431   4.078   7.635  0.0812 -0.3877 -0.0812
 4821SOL    HW115371   0.374   4.082   7.712  0.2036  0.7250 -0.0336
 4821SOL    HW215372   0.424   4.165   7.595  1.3617 -0.3843 -0.3446
 4822SOL     OW15373   1.583   3.456   3.679 -1.0112  0.3340  0.4532
 4822SOL    HW115374   1.646   3.521   3.710  0.0700  0.0507 -1.0669
 4822SOL    HW215375   1.579   3.469   3.584 -1.3071 -1.3346  0.2019
 4823SOL     OW15376   4.233   7.477   0.830  0.2046  0.7107 -0.3861
 4823SOL    HW115377   4.311   7.509   0.876  0.6853 -1.5237  0.5325
 4823SOL    HW215378   4.170   7.461   0.900  0.3511 -1.1748 -0.6363
 4824SOL     OW15379   6.628   1.002   0.221 -0.0485  0.2061  0.2464
 4824SOL    HW115380   6.687   0.953   0.278  0.2220 -2.3324 -1.9939
 4824SOL    HW215381   6.670   1.087   0.209  0.8658  0.0700  2.1644
 4825SOL     OW15382   2.614   0.167   1.289 -0.2609 -0.0254 -0.0714
 4825SOL    HW115383   2.558   0.169   1.211 -0.9464  0.1249  0.4167
 4825SOL    HW215384   2.700   0.196   1.257 -0.4294 -0.3381 -0.8460
 4826SOL     OW15385   2.739   2.912   3.088  0.4341 -0.5547  0.1306
 4826SOL    HW115386   2.670   2.907   3.155  1.2043 -0.9231  0.9146
 4826SOL    HW215387   2.705   2.860   3.015 -0.2627 -0.4604  0.3817
 4827SOL     OW15388   3.010   5.583   4.353 -0.3329  0.7184 -0.3780
 4827SOL    HW115389   3.081   5.606   4.412  0.2390  0.0441 -0.7932
 4827SOL    HW215390   3.036   5.617   4.267 -0.6459  0.7303 -0.4729
 4828SOL     OW15391   4.158   0.035   0.765  0.0753  0.2002  0.2675
 4828SOL    HW115392   4.066   0.012   0.779 -0.0356 -0.5087 -1.3772
 4828SOL    HW215393   4.169   0.033   0.670  1.2581  2.4862  0.2845
 4829SOL     OW15394   7.441   5.503   0.479  0.1918 -0.4928  0.3836
 4829SOL    HW115395   7.346   5.500   0.492  0.2173 -2.6655  0.3256
 4829SOL    HW215396   7.465   5.592   0.503 -1.8730  0.1519  0.2792
 4830SOL     OW15397   7.097   4.428   0.020  0.0572  0.1051  0.0785
 4830SOL    HW115398   7.138   4.418  -0.066  2.3997 -2.1297  1.3358
 4830SOL    HW215399   7.102   4.522   0.038  1.8382  0.3084 -1.1819
 4831SOL     OW15400   2.833   3.042   2.107  0.2772  0.3795 -0.3660
 4831SOL    HW115401   2.922   3.031   2.142  0.2788  0.6614 -0.2800
 4831SOL    HW215402   2.847   3.075   2.018  0.2652  0.0168 -0.5067
 4832SOL     OW15403   6.144   5.103   5.536  0.4327 -0.3562 -0.1829
 4832SOL    HW115404   6.084   5.059   5.597  1.0190  0.3402  0.9405
 4832SOL    HW215405   6.090   5.166   5.489 -0.3090 -1.8573 -1.4143
 4833SOL     OW15406   4.227   7.646   2.451 -0.1253  0.3387 -0.0296
 4833SOL    HW115407   4.288   7.631   2.379 -0.2598  0.4125 -0.1593
 4833SOL    HW215408   4.180   7.563   2.461  1.4170 -0.4026  1.4230
 4834SOL     OW15409   0.510   0.622   0.793  0.0772  0.4863  0.0298
 4834SOL    HW115410   0.595   0.592   0.826  0.3238  1.5584  0.4210
 4834SOL    HW215411   0.489   0.697   0.848 -1.4544 -0.1665  0.3706
 4835SOL     OW15412   2.441   3.362   7.588 -1.0048 -0.4736  0.1693
 4835SOL    HW115413   2.385   3.357   7.666  0.0771  1.3896  1.1498
 4835SOL    HW215414   2.485   3.277   7.585  0.0629 -0.1042  2.5438
 4836SOL     OW15415   6.030   4.454   5.846  0.3404 -0.3046  0.6626
 4836SOL    HW115416   5.941   4.434   5.815 -0.2592  0.0444  2.1053
 4836SOL    HW215417   6.023   4.541   5.886  1.9921  1.0564 -1.7252
 4837SOL     OW15418   5.514   7.262   5.406  0.4238  0.3167 -0.2491
 4837SOL    HW115419   5.535   7.171   5.384 -1.3090 -0.8233  2.3397
 4837SOL    HW215420   5.421   7.272   5.386  0.8243  1.9301 -1.5499
 4838SOL     OW15421   1.345   5.740   7.021  0.0533 -0.8388  0.4119
 4838SOL    HW115422   1.297   5.796   7.082  1.1982 -0.4071  0.9582
 4838SOL    HW215423   1.426   5.719   7.068 -0.1149 -2.5352  0.0068
 4839SOL     OW15424   3.762   0.553   6.414 -0.1176 -0.2107 -0.3008
 4839SOL    HW115425   3.716   0.569   6.497  0.9547 -0.6217  0.3981
 4839SOL    HW215426   3.840   0.607   6.419  0.8858 -1.5946 -0.2091
 4840SOL     OW15427   6.294   1.292   0.607  0.2785 -0.3775 -0.1875
 4840SOL    HW115428   6.226   1.269   0.543 -0.0724 -0.2748  0.1410
 4840SOL    HW215429   6.251   1.282   0.692  0.6718 -0.2910  0.0245
 4841SOL     OW15430   1.882   4.365   7.181 -0.1265 -0.1020 -0.2226
 4841SOL    HW115431   1.971   4.368   7.214  0.0977  0.0476 -0.8203
 4841SOL    HW215432   1.828   4.401   7.252  0.5950  2.4105 -0.8421
 4842SOL     OW15433   3.958   7.633   7.597 -0.3252  0.3964 -0.2029
 4842SOL    HW115434   3.915   7.591   7.523  0.5901 -0.6594 -0.1569
 4842SOL    HW215435   3.887   7.656   7.656 -0.9459  0.0353 -0.8000
 4843SOL     OW15436   7.359   3.307   3.717  0.5993  0.2812  0.3270
 4843SOL    HW115437   7.382   3.343   3.802  0.5579  0.7905  0.1311
 4843SOL    HW215438   7.354   3.213   3.730  0.4073  0.3736  0.9306
 4844SOL     OW15439   6.920   6.956   5.157 -0.3777  0.4899  0.0989
 4844SOL    HW115440   6.983   7.026   5.174  0.3189  0.0235 -0.5206
 4844SOL    HW215441   6.903   6.961   5.063 -0.1435 -0.3239  0.0123
 4845SOL     OW15442   0.086   7.147   5.372  0.0132 -0.1188  0.2981
 4845SOL    HW115443   0.073   7.178   5.282 -1.0941  1.1931  0.8717
 4845SOL    HW215444   0.150   7.208   5.410  2.0044 -1.8295 -0.1293
 4846SOL     OW15445   2.416   5.149   2.472 -0.9190 -0.1574 -0.1646
 4846SOL    HW115446   2.473   5.098   2.415 -2.1872 -0.5939 -1.0777
 4846SOL    HW215447   2.358   5.198   2.413 -1.7203  0.0211  0.7232
 4847SOL     OW15448   6.240   4.572   1.409 -0.6375 -0.1514  0.5307
 4847SOL    HW115449   6.287   4.499   1.369  0.5298  0.7099  0.2730
 4847SOL    HW215450   6.309   4.630   1.442 -1.4772  1.5252 -0.5154
 4848SOL     OW15451   2.568   2.916   3.333  0.2744 -0.6481  0.3540
 4848SOL    HW115452   2.628   2.966   3.388 -3.3688  2.2734  2.1495
 4848SOL    HW215453   2.550   2.836   3.383 -1.3284  0.9911  2.6058
 4849SOL     OW15454   6.620   0.262   5.451  0.2837  0.2201  0.6678
 4849SOL    HW115455   6.703   0.265   5.498  1.0100  0.1667 -0.5688
 4849SOL    HW215456   6.569   0.196   5.496  1.5306 -0.8938  0.4894
 4850SOL     OW15457   0.830   3.882   0.991  0.5091  0.6908  0.0174
 4850SOL    HW115458   0.904   3.841   0.946  0.3885  1.4123 -0.8654
 4850SOL    HW215459   0.858   3.972   1.006  0.4772  0.5103  1.2585
 4851SOL     OW15460   1.510   0.868   3.043 -0.1745  0.1146  0.3921
 4851SOL    HW115461   1.438   0.900   2.989 -0.0633  1.6359  1.0951
 4851SOL    HW215462   1.472   0.855   3.129  0.5124  1.6816  0.9724
 4852SOL     OW15463   5.332   7.251   2.441 -0.5679  0.0629 -0.3582
 4852SOL    HW115464   5.406   7.307   2.415 -1.7764  1.3730 -1.1083
 4852SOL    HW215465   5.345   7.170   2.393  0.7576  0.0054  0.0647
 4853SOL     OW15466   4.117   2.988   1.199 -0.1244  0.1135 -0.5329
 4853SOL    HW115467   4.208   2.974   1.223 -0.2637  0.4032  0.1836
 4853SOL    HW215468   4.074   2.904   1.217 -0.5451  0.7589  1.8018
 4854SOL     OW15469   1.277   0.073   5.374  0.3007  0.0690 -0.5402
 4854SOL    HW115470   1.200   0.017   5.360  1.3016 -1.1927 -1.1812
 4854SOL    HW215471   1.298   0.107   5.287 -0.3253  1.5275 -0.1488
 4855SOL     OW15472   1.949   6.883   3.580  0.5799  0.0831 -0.5360
 4855SOL    HW115473   1.924   6.944   3.650 -1.0794 -1.0169 -0.1097
 4855SOL    HW215474   1.866   6.858   3.539  1.3374 -0.9368 -1.5158
 4856SOL     OW15475   3.265   0.312   4.616 -0.2363 -0.0153  0.2575
 4856SOL    HW115476   3.337   0.270   4.569 -0.6993  0.5383 -0.9821
 4856SOL    HW215477   3.302   0.396   4.644 -0.5304  0.5072 -0.8512
 4857SOL     OW15478   7.383   7.592   3.012 -0.5362  0.8681 -0.0384
 4857SOL    HW115479   7.370   7.525   2.945 -0.2671  0.5462  0.2296
 4857SOL    HW215480   7.301   7.592   3.062 -0.9168  1.4251 -0.6343
 4858SOL     OW15481   3.512   6.201   6.812 -0.1616 -0.2388 -0.2494
 4858SOL    HW115482   3.470   6.215   6.727 -1.5940 -0.1675  0.4481
 4858SOL    HW215483   3.578   6.270   6.818 -1.9199  1.5293 -0.1444
 4859SOL     OW15484   1.378   0.477   5.138 -0.4012 -0.0238  0.0125
 4859SOL    HW115485   1.420   0.462   5.222 -1.6387 -0.0519  0.6493
 4859SOL    HW215486   1.351   0.390   5.109 -1.0233  0.1172  0.1574
 4860SOL     OW15487   0.227   3.813   6.203 -0.0628 -0.0134  0.1862
 4860SOL    HW115488   0.151   3.818   6.144  0.5970  1.8237 -0.5793
 4860SOL    HW215489   0.277   3.738   6.172  1.1652  1.8767 -2.8287
 4861SOL     OW15490   0.869   1.474   0.982  0.4189 -0.3833 -0.1171
 4861SOL    HW115491   0.822   1.462   0.900  2.1417 -2.5380 -0.8844
 4861SOL    HW215492   0.838   1.403   1.038  0.6732 -0.1002  0.3839
 4862SOL     OW15493   0.112   0.733   6.502 -0.0921  0.4947  0.3059
 4862SOL    HW115494   0.133   0.764   6.590  2.0396  0.1992 -0.0451
 4862SOL    HW215495   0.174   0.661   6.487 -0.0622  0.8805 -1.6300
 4863SOL     OW15496   7.099   3.799   2.654 -0.2885  0.1185 -0.7345
 4863SOL    HW115497   7.108   3.742   2.578 -2.2901 -2.1877  0.6124
 4863SOL    HW215498   7.076   3.885   2.618 -0.7789 -0.8169 -2.7337
 4864SOL     OW15499   3.983   5.445   7.518 -0.6958 -0.5894  0.3113
 4864SOL    HW115500   4.005   5.483   7.603  1.9837 -2.4361  0.5863
 4864SOL    HW215501   3.921   5.375   7.538  1.0614 -2.0311  1.0903
 4865SOL     OW15502   7.345   1.004   4.453 -0.1746 -0.1822  0.0662
 4865SOL    HW115503   7.422   0.962   4.490 -0.8785 -0.2140  1.5757
 4865SOL    HW215504   7.362   1.007   4.359  0.1590 -3.3645 -0.0820
 4866SOL     OW15505   4.627   2.833   3.076 -0.6013 -0.0929 -0.0345
 4866SOL    HW115506   4.655   2.919   3.044 -0.3293 -0.3209 -0.4081
 4866SOL    HW215507   4.623   2.843   3.171  0.2612  0.0828 -0.0134
 4867SOL     OW15508   5.224   1.856   7.140  0.2094 -0.0369  0.1467
 4867SOL    HW115509   5.220   1.795   7.067  1.7861 -0.0607  0.0440
 4867SOL    HW215510   5.300   1.911   7.121 -0.9914  1.7854  0.3862
 4868SOL     OW15511   3.553   0.213   2.683 -0.1064 -0.4010 -0.2023
 4868SOL    HW115512   3.556   0.292   2.630 -0.7543 -0.3917 -0.2310
 4868SOL    HW215513   3.591   0.145   2.628 -3.0007 -0.9622 -1.6967
 4869SOL     OW15514   7.580   3.288   3.481 -0.2971  0.5169 -0.0597
 4869SOL    HW115515   7.519   3.280   3.408 -0.3087  1.6411 -0.1993
 4869SOL    HW215516   7.525   3.313   3.555 -0.0590  1.2311 -0.1136
 4870SOL     OW15517   1.578   1.053   0.029 -0.0266  0.8264  0.1513
 4870SOL    HW115518   1.528   0.988  -0.022 -0.8444  1.3448  0.2810
 4870SOL    HW215519   1.512   1.113   0.063  0.7063  1.6080  0.2198
 4871SOL     OW15520   2.374   4.572   5.197 -0.3140  0.3390  0.2777
 4871SOL    HW115521   2.426   4.581   5.277 -0.8485 -0.2294  0.7051
 4871SOL    HW215522   2.289   4.538   5.227 -0.6677  0.5211 -0.4856
 4872SOL     OW15523   5.930   5.731   0.289  0.1032 -0.7197  0.3922
 4872SOL    HW115524   5.964   5.820   0.283 -2.8964  0.4527 -0.8633
 4872SOL    HW215525   5.940   5.695   0.201 -1.6260 -0.4009  0.0345
 4873SOL     OW15526   3.468   4.434   1.859  0.7194 -0.1719  0.0010
 4873SOL    HW115527   3.493   4.516   1.902  0.9226 -0.0382 -0.3676
 4873SOL    HW215528   3.376   4.422   1.883  0.9978 -0.4397  1.0064
 4874SOL     OW15529   4.453   0.720   4.483 -0.5576 -0.2473  0.0791
 4874SOL    HW115530   4.392   0.651   4.509 -1.7210  0.8412  0.3510
 4874SOL    HW215531   4.423   0.798   4.531  2.2810 -0.0892  1.8475
 4875SOL     OW15532   5.131   1.793   4.933  0.5495  0.2365 -0.1649
 4875SOL    HW115533   5.140   1.865   4.871  1.2075  0.2671 -0.0371
 4875SOL    HW215534   5.096   1.833   5.012  0.0632  0.2611 -0.3910
 4876SOL     OW15535   6.932   6.742   1.345 -0.0201  0.3999 -0.1487
 4876SOL    HW115536   6.968   6.654   1.343  1.2656  0.9056 -1.1409
 4876SOL    HW215537   6.878   6.745   1.424  1.0345 -0.8486  0.6625
 4877SOL     OW15538   1.483   3.379   2.067 -0.1418  0.3855 -0.3841
 4877SOL    HW115539   1.420   3.311   2.045 -0.4464  0.4881  0.1562
 4877SOL    HW215540   1.514   3.356   2.155  0.1844  0.6247 -0.4331
 4878SOL     OW15541   5.790   3.723   2.603  0.8764  0.3414 -0.1548
 4878SOL    HW115542   5.828   3.805   2.635 -1.2056  1.3703 -0.1966
 4878SOL    HW215543   5.824   3.715   2.514  2.0294  0.5150  0.2464
 4879SOL     OW15544   4.521   2.793   5.945  0.2222  0.5688  0.5697
 4879SOL    HW115545   4.582   2.741   5.894 -1.2770 -0.2722 -0.4516
 4879SOL    HW215546   4.575   2.862   5.984  2.0012 -0.8388  0.7309
 4880SOL     OW15547   0.267   6.870   1.404  0.2551 -0.5116  0.3471
 4880SOL    HW115548   0.339   6.930   1.424 -0.6694  1.2386 -1.3030
 4880SOL    HW215549   0.298   6.820   1.328 -0.3380  0.4097 -0.5121
 4881SOL     OW15550   4.195   2.295   3.292 -0.0229 -0.2652 -0.1266
 4881SOL    HW115551   4.262   2.263   3.353  0.9138 -3.4533 -2.5109
 4881SOL    HW215552   4.146   2.216   3.269 -3.5601  1.6714  0.1317
 4882SOL     OW15553   1.174   2.387   5.719 -0.2292  0.0218  0.2790
 4882SOL    HW115554   1.250   2.397   5.776 -0.6615  1.4694  0.6430
 4882SOL    HW215555   1.204   2.328   5.649  0.4150 -1.4887  1.7595
 4883SOL     OW15556   5.542   3.660   0.599 -0.4522  0.2504 -0.1970
 4883SOL    HW115557   5.581   3.693   0.518  2.7001 -2.7270 -0.1422
 4883SOL    HW215558   5.492   3.583   0.573 -0.6671  0.1310  0.5269
 4884SOL     OW15559   6.845   7.504   0.667 -0.8064  0.3847 -0.3618
 4884SOL    HW115560   6.850   7.482   0.760 -1.6898  1.4361 -0.0338
 4884SOL    HW215561   6.868   7.597   0.664 -1.0059  0.4112 -1.1701
 4885SOL     OW15562   7.478   2.900   6.501 -0.5057  0.3786 -0.5584
 4885SOL    HW115563   7.423   2.965   6.457 -2.2249 -0.5042  0.1914
 4885SOL    HW215564   7.476   2.823   6.444 -1.2758 -0.1596  0.1790
 4886SOL     OW15565   2.511   1.172   6.094 -0.2038 -0.1728  0.5402
 4886SOL    HW115566   2.466   1.097   6.056 -0.5889  0.4394 -0.2603
 4886SOL    HW215567   2.603   1.161   6.069 -0.6128  0.8125 -1.6794
 4887SOL     OW15568   6.054   5.918   5.031  0.8096 -0.2089  0.1070
 4887SOL    HW115569   6.030   5.907   5.123  2.6209  0.6222  0.7111
 4887SOL    HW215570   6.096   6.004   5.027 -1.5294  0.9635 -2.0318
 4888SOL     OW15571   1.195   0.059   4.786 -0.2973  0.1727  0.4989
 4888SOL    HW115572   1.164   0.146   4.814 -0.2694 -0.0979  1.3914
 4888SOL    HW215573   1.151  -0.002   4.844 -0.6330 -0.4546 -0.3944
 4889SOL     OW15574   7.015   1.138   0.973 -0.2974 -0.0457  0.0901
 4889SOL    HW115575   7.003   1.167   0.882  0.2841 -1.6881 -0.5427
 4889SOL    HW215576   7.063   1.210   1.014  0.6715  0.1303 -1.2788
 4890SOL     OW15577   6.006   1.256   7.405 -0.0803  0.1562 -0.2976
 4890SOL    HW115578   6.048   1.237   7.489  1.7598 -0.4293 -1.3007
 4890SOL    HW215579   5.929   1.308   7.428 -1.1160 -2.1230  1.9831
 4891SOL     OW15580   5.897   5.144   4.535  0.0577  0.0970 -0.2915
 4891SOL    HW115581   5.926   5.213   4.594  0.7991 -1.3833  1.1839
 4891SOL    HW215582   5.803   5.136   4.550  0.0407  0.5200 -0.1827
 4892SOL     OW15583   1.870   3.541   5.758  0.1986  0.6985 -0.0547
 4892SOL    HW115584   1.947   3.579   5.798  0.4770 -0.3247  0.4163
 4892SOL    HW215585   1.899   3.513   5.671  1.4356 -2.9183  1.3392
 4893SOL     OW15586   2.198   4.663   3.934  0.1868  0.1604  0.2801
 4893SOL    HW115587   2.195   4.580   3.982  0.2679 -0.3338 -0.5461
 4893SOL    HW215588   2.108   4.678   3.908  0.4040 -0.5067 -0.9378
 4894SOL     OW15589   4.149   0.688   1.454  0.1663 -0.2453  0.0209
 4894SOL    HW115590   4.077   0.730   1.406  1.1738  1.8041  0.1994
 4894SOL    HW215591   4.220   0.682   1.390  0.8308  0.6074  0.6471
 4895SOL     OW15592   5.168   1.738   7.589  0.0596 -0.1381 -0.3777
 4895SOL    HW115593   5.193   1.752   7.497 -2.0324 -0.6503 -1.0929
 4895SOL    HW215594   5.248   1.710   7.632  1.8309  2.9444 -1.3626
 4896SOL     OW15595   5.785   0.264   6.552 -0.6145 -0.0341  0.6178
 4896SOL    HW115596   5.715   0.270   6.486 -1.0827 -2.2002  0.8458
 4896SOL    HW215597   5.747   0.305   6.630 -1.8378 -1.5587  0.8638
 4897SOL     OW15598   5.866   4.876   1.644 -0.2280  0.0290  0.3547
 4897SOL    HW115599   5.837   4.899   1.733 -0.4472  1.8923 -0.1462
 4897SOL    HW215600   5.918   4.951   1.616 -0.4044 -0.3985 -1.1985
 4898SOL     OW15601   7.699   2.119   0.376 -0.4088  0.1606 -0.0766
 4898SOL    HW115602   7.657   2.199   0.406 -2.9396  0.3956 -3.5753
 4898SOL    HW215603   7.630   2.053   0.378  1.0578 -1.4399  0.7153
 4899SOL     OW15604   2.139   6.846   2.174  0.4819  0.4847 -0.2242
 4899SOL    HW115605   2.223   6.892   2.170  0.4922  0.4077 -1.4946
 4899SOL    HW215606   2.100   6.861   2.088 -1.2025  1.2148  0.6417
 4900SOL     OW15607   5.865   3.259   0.322  0.8222  0.3649 -0.2390
 4900SOL    HW115608   5.874   3.168   0.292  0.4066 -0.2668  1.4084
 4900SOL    HW215609   5.908   3.311   0.255  0.6407 -1.0078 -1.4735
 4901SOL     OW15610   0.195   2.126   2.590 -0.8411  0.2814 -0.3396
 4901SOL    HW115611   0.192   2.219   2.567  0.7153  0.0390 -1.6790
 4901SOL    HW215612   0.207   2.126   2.685 -0.5655  1.4542 -0.3508
 4902SOL     OW15613   7.026   4.844   1.893  0.3627  0.6067 -0.2759
 4902SOL    HW115614   6.938   4.859   1.858  0.7952  0.1945 -1.5906
 4902SOL    HW215615   7.053   4.930   1.926 -0.0985  1.0100 -0.9111
 4903SOL     OW15616   1.316   4.453   1.855 -0.1717  0.1794  0.2626
 4903SOL    HW115617   1.362   4.535   1.836  3.4406 -1.4222  1.2542
 4903SOL    HW215618   1.363   4.386   1.806 -1.5849 -1.6199  1.2261
 4904SOL     OW15619   2.296   3.841   6.372 -0.5657 -0.1148 -0.5581
 4904SOL    HW115620   2.273   3.757   6.333  0.0324 -0.4442 -0.2132
 4904SOL    HW215621   2.254   3.906   6.316 -0.5243 -0.6221 -1.1850
 4905SOL     OW15622   3.380   1.921   7.328  0.1212  0.1416  0.0140
 4905SOL    HW115623   3.468   1.888   7.314  0.1547  0.2532 -0.0404
 4905SOL    HW215624   3.337   1.913   7.243 -1.4705 -4.3791  0.9839
 4906SOL     OW15625   5.612   4.824   0.116  0.0141 -0.0872 -0.4820
 4906SOL    HW115626   5.628   4.866   0.031 -1.6636  1.4194 -0.1267
 4906SOL    HW215627   5.681   4.858   0.173 -0.7457  1.5111 -0.4563
 4907SOL     OW15628   2.311   2.114   4.990  0.3066  0.9783 -0.0943
 4907SOL    HW115629   2.381   2.049   4.994  0.3070  1.0068  0.3809
 4907SOL    HW215630   2.235   2.071   5.028  0.3642  1.3210  0.4282
 4908SOL     OW15631   7.560   4.917   7.030  0.5322  0.1870  0.8899
 4908SOL    HW115632   7.629   4.864   6.991 -1.7453 -2.2007 -0.1586
 4908SOL    HW215633   7.530   4.973   6.958  0.2773  0.0516  0.8922
 4909SOL     OW15634   4.630   1.147   2.564 -0.3020 -0.2024  0.0679
 4909SOL    HW115635   4.667   1.157   2.477  1.7132 -1.6580  0.6683
 4909SOL    HW215636   4.661   1.224   2.613 -0.6323  0.1252 -0.2335
 4910SOL     OW15637   1.773   6.592   1.713  0.0682 -0.5008 -0.1953
 4910SOL    HW115638   1.868   6.604   1.722  0.2481 -0.2667 -2.0256
 4910SOL    HW215639   1.759   6.500   1.733  1.0841 -1.1742 -2.2787
 4911SOL     OW15640   6.191   2.981   6.195  0.3114 -0.8666 -0.3097
 4911SOL    HW115641   6.217   2.892   6.218 -1.5985 -1.4191 -0.1233
 4911SOL    HW215642   6.134   2.971   6.119 -1.0961 -0.0068  0.5638
 4912SOL     OW15643   4.096   5.268   1.807  0.1041 -0.1976 -0.6876
 4912SOL    HW115644   4.105   5.259   1.712  0.1710  0.8254 -0.7938
 4912SOL    HW215645   4.127   5.357   1.825 -2.0321  0.4495  0.0048
 4913SOL     OW15646   5.635   0.017   6.739  0.1688  0.3396 -0.1245
 4913SOL    HW115647   5.559  -0.036   6.714  1.2017 -1.2180 -0.1422
 4913SOL    HW215648   5.693   0.013   6.663  1.0602 -0.0519  0.5623
 4914SOL     OW15649   4.453   1.914   3.107 -0.5551  0.1020  0.3316
 4914SOL    HW115650   4.470   1.826   3.074  1.6647  1.1556 -1.6075
 4914SOL    HW215651   4.395   1.953   3.042 -0.8126  0.3630  0.7172
 4915SOL     OW15652   0.399   6.213   2.898  0.3096  0.2350  0.0977
 4915SOL    HW115653   0.420   6.198   2.991  0.2510  1.1000  0.2583
 4915SOL    HW215654   0.327   6.276   2.900  0.0954  0.0062 -0.5328
 4916SOL     OW15655   4.952   4.521   4.660 -0.4836  0.1952 -0.6111
 4916SOL    HW115656   4.962   4.550   4.570  0.4006  1.3344 -0.1803
 4916SOL    HW215657   4.891   4.448   4.656 -1.2578  0.8846 -2.0021
 4917SOL     OW15658   3.503   3.626   2.972 -0.2537  0.0499  0.9629
 4917SOL    HW115659   3.576   3.591   3.023  0.5706  0.0159 -0.2083
 4917SOL    HW215660   3.440   3.654   3.038  1.3129  1.1779  2.0561
 4918SOL     OW15661   4.399   4.844   3.916 -0.5365  0.1710 -0.1885
 4918SOL    HW115662   4.448   4.796   3.983 -0.6579  0.6016  0.2191
 4918SOL    HW215663   4.465   4.880   3.858 -0.5112 -2.8724 -2.2222
 4919SOL     OW15664   2.642   6.894   1.962 -0.2603 -0.1500 -0.3516
 4919SOL    HW115665   2.655   6.799   1.969  1.9549  0.2077  1.8486
 4919SOL    HW215666   2.731   6.929   1.949 -0.6548  1.7690  1.5897
 4920SOL     OW15667   5.717   0.791   6.013  0.0796 -0.5796  0.1132
 4920SOL    HW115668   5.695   0.818   5.924  0.8251 -0.2127  0.0291
 4920SOL    HW215669   5.665   0.848   6.069  0.7664  0.2534 -0.0782
 4921SOL     OW15670   5.867   6.086   3.746  0.1586  0.6063  0.0482
 4921SOL    HW115671   5.848   6.163   3.692 -1.7396 -0.3940 -0.8316
 4921SOL    HW215672   5.784   6.066   3.789 -0.1272 -2.2792 -1.5620
 4922SOL     OW15673   6.337   2.634   1.355  0.1763 -0.4468  0.3506
 4922SOL    HW115674   6.285   2.624   1.435  0.0578 -1.2459  0.1889
 4922SOL    HW215675   6.291   2.580   1.290 -0.7316  1.5748 -0.7671
 4923SOL     OW15676   5.793   1.186   6.992 -0.3099 -0.1141 -0.3832
 4923SOL    HW115677   5.822   1.138   6.915  0.8494 -0.7215  0.3935
 4923SOL    HW215678   5.749   1.263   6.958  0.2710 -0.3226 -1.6489
 4924SOL     OW15679   7.380   4.436   4.507  0.4047  0.4684 -0.0116
 4924SOL    HW115680   7.344   4.348   4.497  1.7813 -0.1554  0.1915
 4924SOL    HW215681   7.339   4.488   4.438  0.6239 -0.6982 -1.0462
 4925SOL     OW15682   4.570   4.230   2.367  0.4950  0.2521 -0.3476
 4925SOL    HW115683   4.525   4.228   2.452  0.8440 -1.9123 -0.1503
 4925SOL    HW215684   4.632   4.303   2.374  0.0096  0.5579  0.9873
 4926SOL     OW15685   2.516   7.509   0.010 -0.2649  0.0090 -0.5275
 4926SOL    HW115686   2.543   7.494  -0.081 -0.1169  1.0163 -0.6583
 4926SOL    HW215687   2.423   7.532   0.004 -0.4855 -0.7790 -0.3281
 4927SOL     OW15688   2.234   2.956   4.882 -0.5856  0.5757 -0.7009
 4927SOL    HW115689   2.298   3.027   4.866  1.1578 -0.8550 -0.4274
 4927SOL    HW215690   2.150   2.994   4.857  0.3514  2.5679 -1.0769
 4928SOL     OW15691   5.453   6.892   5.942  0.2915 -0.1115  0.0537
 4928SOL    HW115692   5.469   6.857   5.854  1.7755  0.0869  0.2152
 4928SOL    HW215693   5.511   6.841   5.999  0.6796  0.9690  0.6500
 4929SOL     OW15694   4.136   2.979   2.694 -0.1712 -0.2596  0.8064
 4929SOL    HW115695   4.138   2.888   2.721  0.6510 -0.2304  0.8622
 4929SOL    HW215696   4.101   3.027   2.769  1.2720 -0.2863  1.5218
 4930SOL     OW15697   5.156   5.202   0.615 -0.1210 -0.2245 -0.0233
 4930SOL    HW115698   5.251   5.202   0.606 -0.2406 -0.2364 -1.6110
 4930SOL    HW215699   5.136   5.114   0.647  0.5191  0.4807  2.5627
 4931SOL     OW15700   1.276   1.763   3.128 -0.0551  0.1330 -0.3445
 4931SOL    HW115701   1.253   1.670   3.125 -2.9492  0.7536 -0.4746
 4931SOL    HW215702   1.336   1.770   3.202 -2.2736 -1.4405  1.8000
 4932SOL     OW15703   4.650   2.062   0.140 -0.3365 -0.0103 -0.3631
 4932SOL    HW115704   4.589   2.068   0.214  0.8944  0.8307  0.6446
 4932SOL    HW215705   4.675   2.153   0.123 -0.4907 -0.2137 -1.7324
 4933SOL     OW15706   0.683   3.631   3.053  0.5101 -0.1489 -0.1486
 4933SOL    HW115707   0.746   3.642   2.982  0.5894 -0.6197 -0.1515
 4933SOL    HW215708   0.612   3.578   3.015  0.0654  0.4442 -0.1721
 4934SOL     OW15709   6.829   0.542   2.077 -0.0034  0.1264  0.0084
 4934SOL    HW115710   6.857   0.568   2.164 -0.1648  1.1361 -0.2340
 4934SOL    HW215711   6.910   0.531   2.027  0.0559  0.4670  0.0288
 4935SOL     OW15712   2.023   6.129   6.087  0.5976 -0.4355 -0.0879
 4935SOL    HW115713   1.973   6.162   6.162 -1.2251 -1.2948 -0.8634
 4935SOL    HW215714   2.005   6.191   6.017  0.1790 -1.0302 -0.5180
 4936SOL     OW15715   3.337   7.598   7.497 -0.1608  0.1211 -0.2877
 4936SOL    HW115716   3.281   7.606   7.574  2.3188 -0.9931  1.8011
 4936SOL    HW215717   3.277   7.585   7.424 -2.6033 -0.5659  1.7159
 4937SOL     OW15718   1.067   5.092   3.693  0.2900  0.1572  0.1434
 4937SOL    HW115719   1.115   5.112   3.773  0.2923  0.1965  0.1324
 4937SOL    HW215720   0.984   5.054   3.724 -0.4503  1.7597  0.2281
 4938SOL     OW15721   2.347   0.745   5.045  0.3356 -0.7501 -0.1273
 4938SOL    HW115722   2.361   0.729   4.951  0.3438  0.0604 -0.2725
 4938SOL    HW215723   2.252   0.740   5.056  0.2831 -0.2089 -0.3065
 4939SOL     OW15724   6.668   5.826   4.154 -0.8186  0.6441  1.1814
 4939SOL    HW115725   6.614   5.905   4.146  1.2762  2.0902  0.4537
 4939SOL    HW215726   6.710   5.836   4.240  0.4268  1.0079  0.5473
 4940SOL     OW15727   0.688   5.715   4.901 -0.1140 -0.4658 -0.4322
 4940SOL    HW115728   0.664   5.768   4.977  0.9876 -0.6138  0.0340
 4940SOL    HW215729   0.649   5.629   4.918  0.6937 -0.7024  0.3141
 4941SOL     OW15730   0.728   5.000   1.390  0.7802  0.2434 -1.0495
 4941SOL    HW115731   0.753   5.092   1.401 -0.3467  0.3882  0.6693
 4941SOL    HW215732   0.633   5.000   1.400  0.7491 -1.1031 -1.1849
 4942SOL     OW15733   2.040   1.907   5.331 -0.7798 -0.1995  0.0172
 4942SOL    HW115734   2.046   1.962   5.252  1.7459  0.6271  0.6943
 4942SOL    HW215735   2.085   1.826   5.307 -0.5379 -0.1860  0.4262
 4943SOL     OW15736   5.373   7.587   7.309  0.4304  0.3485  0.0670
 4943SOL    HW115737   5.359   7.654   7.242  0.0309  0.8555  0.6455
 4943SOL    HW215738   5.395   7.508   7.259 -3.5705 -0.3476 -0.9917
 4944SOL     OW15739   5.917   7.283   6.356  0.6773  0.5670  0.2693
 4944SOL    HW115740   5.915   7.368   6.312 -2.8066  1.3338  1.5170
 4944SOL    HW215741   5.912   7.304   6.449  1.0898 -0.9970  0.6712
 4945SOL     OW15742   2.225   0.119   2.654 -0.3680  0.0149 -0.6250
 4945SOL    HW115743   2.136   0.111   2.689 -0.7253  0.8328 -1.3138
 4945SOL    HW215744   2.246   0.032   2.621 -1.2005 -0.0129 -1.1087
 4946SOL     OW15745   3.996   6.286   5.463  0.1591  0.4492  0.3261
 4946SOL    HW115746   3.943   6.307   5.540  0.0608  1.9087 -0.1083
 4946SOL    HW215747   4.086   6.284   5.496  0.1046  0.9224  0.5160
 4947SOL     OW15748   5.847   3.980   6.143  0.0571 -0.0367 -0.5251
 4947SOL    HW115749   5.837   3.926   6.065 -1.2478 -0.7036  0.0516
 4947SOL    HW215750   5.807   4.064   6.120 -0.5386 -0.3114 -0.5105
 4948SOL     OW15751   4.483   0.367   4.314  0.7875  0.0186 -0.1797
 4948SOL    HW115752   4.458   0.440   4.257 -0.4193 -0.3723 -0.1771
 4948SOL    HW215753   4.400   0.330   4.343  1.3520 -2.2930 -1.3366
 4949SOL     OW15754   0.034   5.727   3.172  0.1632 -0.1297 -0.0241
 4949SOL    HW115755   0.104   5.706   3.233 -0.1109  0.2039  0.4065
 4949SOL    HW215756   0.055   5.814   3.139  1.4665 -1.1170 -2.0480
 4950SOL     OW15757   4.592   1.347   4.377  0.1488 -0.0907  0.3395
 4950SOL    HW115758   4.672   1.377   4.420  0.0047 -0.5146  0.9137
 4950SOL    HW215759   4.608   1.361   4.284 -0.3353  2.7867  0.6154
 4951SOL     OW15760   5.875   2.623   7.252  0.3854  0.7017 -0.7328
 4951SOL    HW115761   5.886   2.694   7.188 -1.5652  1.6035 -0.1414
 4951SOL    HW215762   5.808   2.567   7.213 -0.2102  0.8061  0.1240
 4952SOL     OW15763   7.170   0.182   3.018  0.7581 -0.0835  0.3734
 4952SOL    HW115764   7.114   0.155   3.091 -0.3635  1.8075  0.2782
 4952SOL    HW215765   7.225   0.251   3.055  1.0693  0.0071 -0.2539
 4953SOL     OW15766   2.917   6.627   2.146 -0.0513 -0.0118 -0.3770
 4953SOL    HW115767   2.973   6.568   2.197 -0.9292 -0.1821  0.4189
 4953SOL    HW215768   2.976   6.696   2.115  0.8199 -0.8212 -0.5704
 4954SOL     OW15769   2.020   1.438   1.458  0.6098  0.0546 -0.1321
 4954SOL    HW115770   2.007   1.344   1.464  1.0929 -0.2643 -2.9578
 4954SOL    HW215771   1.987   1.462   1.371 -1.3008  2.8474  1.1790
 4955SOL     OW15772   3.032   7.311   7.231  0.2149  0.0448  0.7772
 4955SOL    HW115773   3.099   7.284   7.295 -0.9268  1.3164  2.6175
 4955SOL    HW215774   3.011   7.401   7.256  0.1729  0.8537 -1.8676
 4956SOL     OW15775   4.396   2.559   1.633  0.1937 -0.3836 -0.1277
 4956SOL    HW115776   4.411   2.653   1.628 -1.6868 -0.0949 -1.2112
 4956SOL    HW215777   4.424   2.535   1.721  3.6450  0.5624 -0.7952
 4957SOL     OW15778   7.020   3.529   3.198  0.0358  0.0748 -0.1740
 4957SOL    HW115779   6.995   3.604   3.253  0.4944  0.6918 -0.7838
 4957SOL    HW215780   6.988   3.453   3.246  1.1646  0.5285  1.4111
 4958SOL     OW15781   6.426   4.930   4.155  0.4733  0.5754  0.3489
 4958SOL    HW115782   6.411   4.871   4.081  1.7239 -0.9086  1.2344
 4958SOL    HW215783   6.510   4.972   4.134  0.0384  1.3771  0.1714
 4959SOL     OW15784   7.443   6.743   2.553  0.2369  0.4360  0.5367
 4959SOL    HW115785   7.454   6.731   2.647  3.0118  0.5485  0.3118
 4959SOL    HW215786   7.409   6.659   2.522  5.0817 -2.0390  0.9609
 4960SOL     OW15787   5.135   4.197   5.467  0.0460 -0.3215 -0.1186
 4960SOL    HW115788   5.103   4.107   5.477  2.1446 -1.0077  1.0207
 4960SOL    HW215789   5.069   4.240   5.413 -0.4582 -2.8647 -1.6907
 4961SOL     OW15790   1.432   0.005   2.662 -0.1244  0.3409 -0.0695
 4961SOL    HW115791   1.502   0.003   2.597 -0.8594 -0.4180 -0.8807
 4961SOL    HW215792   1.354   0.030   2.612 -1.1815 -2.4839 -0.0359
 4962SOL     OW15793   4.740   0.705   4.713 -0.0212  0.3557  0.0859
 4962SOL    HW115794   4.754   0.690   4.620  2.5588 -1.3749  0.6478
 4962SOL    HW215795   4.696   0.790   4.718  1.5661  1.4375 -2.5987
 4963SOL     OW15796   4.761   2.374   7.332  0.0326  0.2367  0.0597
 4963SOL    HW115797   4.702   2.299   7.324 -1.1286  0.4772  4.3705
 4963SOL    HW215798   4.711   2.448   7.297  0.0836 -0.4580 -1.5666
 4964SOL     OW15799   1.617   5.844   1.615  0.5981  0.3730  0.3152
 4964SOL    HW115800   1.611   5.846   1.710 -1.2046  0.8227  0.2275
 4964SOL    HW215801   1.693   5.789   1.597 -0.4848 -1.8177  1.9762
 4965SOL     OW15802   5.560   2.395   1.898 -0.5535  0.0679 -0.0937
 4965SOL    HW115803   5.584   2.309   1.862 -0.3705 -0.5577  1.4348
 4965SOL    HW215804   5.502   2.374   1.971  0.4687  1.1668  1.0758
 4966SOL     OW15805   3.316   7.049   6.176 -0.3879 -0.0232  0.7085
 4966SOL    HW115806   3.410   7.030   6.179 -0.1739  1.1117  2.8423
 4966SOL    HW215807   3.311   7.138   6.141 -0.6468 -0.0050  0.7887
 4967SOL     OW15808   5.490   2.445   2.409 -0.0209 -0.1785 -0.6080
 4967SOL    HW115809   5.572   2.400   2.387 -0.6278 -0.9797 -1.3206
 4967SOL    HW215810   5.439   2.378   2.455  0.4012  0.8472  1.4504
 4968SOL     OW15811   7.561   3.834   4.012  0.4301  0.3548  0.7487
 4968SOL    HW115812   7.503   3.857   3.939 -0.3420  2.4575  1.9338
 4968SOL    HW215813   7.635   3.791   3.970 -1.0632 -0.6490 -1.0184
 4969SOL     OW15814   5.905   7.536   1.915 -0.0278 -0.3244 -0.2319
 4969SOL    HW115815   5.872   7.575   1.997  0.2458 -1.5100  0.4601
 4969SOL    HW215816   5.965   7.602   1.880 -0.1256  0.1869  0.5266
 4970SOL     OW15817   2.770   0.418   2.429 -0.1143 -0.3686  0.2694
 4970SOL    HW115818   2.784   0.327   2.403  1.2974 -0.1589  0.2153
 4970SOL    HW215819   2.684   0.418   2.472  0.1386 -1.8285  0.8117
 4971SOL     OW15820   3.911   2.162   3.530 -0.3561 -0.0114 -0.1587
 4971SOL    HW115821   3.968   2.092   3.564 -0.0295  0.3662  0.0782
 4971SOL    HW215822   3.908   2.146   3.436 -0.4166 -0.4460 -0.0855
 4972SOL     OW15823   6.985   4.577   1.156 -0.0224  0.4960 -0.6323
 4972SOL    HW115824   7.058   4.622   1.199  1.6708 -0.9097 -1.8637
 4972SOL    HW215825   6.973   4.624   1.074  0.5320 -0.1497 -1.0983
 4973SOL     OW15826   7.297   6.468   2.076 -0.1942 -0.7218 -0.1582
 4973SOL    HW115827   7.220   6.446   2.127 -0.0231 -0.8827  0.0318
 4973SOL    HW215828   7.265   6.529   2.009  0.0931  1.8936  1.9206
 4974SOL     OW15829   4.787   7.358   4.548  0.8661  0.2933  0.5145
 4974SOL    HW115830   4.814   7.450   4.544  0.6785  0.3344  0.0437
 4974SOL    HW215831   4.809   7.323   4.461  1.6164 -0.3044  0.9358
 4975SOL     OW15832   5.308   4.059   0.961  0.4004  0.0743  0.1151
 4975SOL    HW115833   5.237   4.104   0.917 -0.2396 -2.0904 -1.2552
 4975SOL    HW215834   5.386   4.110   0.941 -0.3948  1.0402 -0.5785
 4976SOL     OW15835   1.124   6.633   4.549  0.4917  0.2839  0.0797
 4976SOL    HW115836   1.051   6.571   4.546  1.6138 -1.1419  0.7642
 4976SOL    HW215837   1.127   6.671   4.462 -1.4444  0.8466  0.2185
 4977SOL     OW15838   3.026   2.160   1.925 -0.7078  0.1556  0.6748
 4977SOL    HW115839   3.065   2.247   1.919 -0.0339 -0.2180 -0.7067
 4977SOL    HW215840   2.942   2.175   1.969 -0.2506  1.3776  1.1843
 4978SOL     OW15841   3.678   6.391   3.614  0.0863  0.1507  0.1997
 4978SOL    HW115842   3.610   6.382   3.546  0.5441 -0.8532 -0.1523
 4978SOL    HW215843   3.643   6.342   3.689  0.9161 -1.4392 -0.4000
 4979SOL     OW15844   4.899   1.253   3.766  0.0305  0.2139  0.2216
 4979SOL    HW115845   4.981   1.216   3.734 -0.1729 -0.1798  0.1529
 4979SOL    HW215846   4.836   1.182   3.759 -0.1352  0.2720  1.0392
 4980SOL     OW15847   4.809   0.027   5.650 -0.3710  0.1064  0.3065
 4980SOL    HW115848   4.831   0.024   5.556  0.3745 -0.6631  0.4898
 4980SOL    HW215849   4.865   0.096   5.685  1.4770 -1.4892  0.6714
 4981SOL     OW15850   6.802   7.227   5.187 -0.3054 -0.8880 -0.8889
 4981SOL    HW115851   6.732   7.229   5.122 -0.1498 -0.7018 -1.0502
 4981SOL    HW215852   6.765   7.271   5.264  0.1924  0.7278 -1.5318
 4982SOL     OW15853   7.328   7.205   7.692 -0.0858 -0.6861  0.3572
 4982SOL    HW115854   7.366   7.184   7.606 -0.1958 -0.5088  0.2648
 4982SOL    HW215855   7.241   7.239   7.671  0.2547  0.2773  0.4806
 4983SOL     OW15856   5.767   5.963   5.605 -0.1691  0.4203  0.4134
 4983SOL    HW115857   5.836   5.897   5.598 -1.2128 -0.5914 -1.1090
 4983SOL    HW215858   5.711   5.932   5.676 -0.7808 -0.5239 -0.4407
 4984SOL     OW15859   6.346   6.601   6.134  0.2627  0.4949  0.3602
 4984SOL    HW115860   6.396   6.578   6.212 -1.6854 -1.4269  1.1813
 4984SOL    HW215861   6.403   6.578   6.061  0.4287 -2.3407  1.2346
 4985SOL     OW15862   4.357   0.336   7.385 -0.1842  0.1074 -0.6023
 4985SOL    HW115863   4.346   0.379   7.300  0.2199 -0.4387 -0.9328
 4985SOL    HW215864   4.305   0.257   7.379  0.4394 -0.3083 -0.6106
 4986SOL     OW15865   7.049   3.863   4.761  0.4662 -0.5520  0.6017
 4986SOL    HW115866   7.020   3.869   4.852  0.5928  2.6314  0.5540
 4986SOL    HW215867   7.145   3.860   4.767  0.4482 -1.9660  0.5546
 4987SOL     OW15868   2.672   3.363   2.127 -0.2562 -0.1994 -0.1480
 4987SOL    HW115869   2.705   3.341   2.040  0.1646 -0.5522  0.0932
 4987SOL    HW215870   2.733   3.430   2.160 -1.9509  1.9817 -1.1723
 4988SOL     OW15871   6.450   2.875   6.100  0.4282 -0.3244  0.3679
 4988SOL    HW115872   6.390   2.813   6.059  3.6480 -1.9734 -2.3321
 4988SOL    HW215873   6.498   2.823   6.164  0.4776  0.4418  0.9676
 4989SOL     OW15874   5.064   6.934   6.245 -0.3215  0.2261 -0.6582
 4989SOL    HW115875   5.155   6.921   6.218 -0.3854  0.0947 -0.8128
 4989SOL    HW215876   5.012   6.889   6.178 -0.4690 -0.4673 -0.0873
 4990SOL     OW15877   4.049   2.886   4.591  0.8953 -0.5198 -0.1580
 4990SOL    HW115878   4.076   2.862   4.502  2.2320  1.3879 -0.3330
 4990SOL    HW215879   3.968   2.936   4.578  0.1394 -1.7221 -0.1288
 4991SOL     OW15880   7.301   3.574   3.302 -0.4106 -0.3753 -0.1147
 4991SOL    HW115881   7.345   3.607   3.381 -0.3115  1.2197 -0.7967
 4991SOL    HW215882   7.208   3.584   3.320 -0.4622 -1.6897  0.4682
 4992SOL     OW15883   5.285   5.749   7.648  0.1691 -0.4322 -0.5189
 4992SOL    HW115884   5.227   5.824   7.632  0.1944  0.0546  1.3922
 4992SOL    HW215885   5.365   5.788   7.682 -0.1856 -1.3239  1.5157
 4993SOL     OW15886   1.652   7.634   4.344  0.1659 -0.5990  0.1920
 4993SOL    HW115887   1.718   7.696   4.376 -0.4551 -0.5818  1.4937
 4993SOL    HW215888   1.701   7.554   4.327  0.5739 -0.5173  0.9317
 4994SOL     OW15889   0.277   5.986   0.794  0.8844  0.1390 -0.0711
 4994SOL    HW115890   0.256   6.052   0.860  1.0695 -0.6581  0.8027
 4994SOL    HW215891   0.329   5.921   0.841  4.1819  1.2933 -1.7760
 4995SOL     OW15892   0.109   4.131   7.556 -0.0194 -0.2440 -0.3761
 4995SOL    HW115893   0.191   4.132   7.507 -0.1658 -1.7817 -0.7001
 4995SOL    HW215894   0.113   4.209   7.611  1.2127  0.2330 -1.1087
 4996SOL     OW15895   4.113   1.219   6.720  0.3717 -0.0903 -0.1241
 4996SOL    HW115896   4.088   1.158   6.789 -0.4480 -0.4167 -0.6969
 4996SOL    HW215897   4.057   1.295   6.734 -0.0738 -0.3142 -0.6501
 4997SOL     OW15898   4.009   2.111   1.164  0.3360 -0.3648 -0.1413
 4997SOL    HW115899   3.963   2.134   1.084  0.1230 -0.5133 -0.0631
 4997SOL    HW215900   4.085   2.170   1.167  0.1577 -0.1289 -0.2782
 4998SOL     OW15901   5.692   2.167   1.115  0.4396 -0.0142  0.0204
 4998SOL    HW115902   5.724   2.239   1.060 -1.1878  1.6034  1.0986
 4998SOL    HW215903   5.597   2.173   1.109  0.2639 -1.2036  1.2530
 4999SOL     OW15904   3.569   2.261   1.218  0.3445 -0.5268  0.4409
 4999SOL    HW115905   3.610   2.327   1.274  1.0440  0.9368 -1.6659
 4999SOL    HW215906   3.619   2.264   1.136 -2.1301 -0.7538 -1.1937
 5000SOL     OW15907   7.023   2.705   7.652 -0.5585  0.0923  0.1687
 5000SOL    HW115908   6.995   2.796   7.659  1.4504  0.9221 -1.5246
 5000SOL    HW215909   7.077   2.691   7.730 -0.5016  0.4947  0.2044
 5001SOL     OW15910   4.889   3.707   3.708 -0.6662 -0.1867  0.4729
 5001SOL    HW115911   4.826   3.635   3.707  0.0531 -0.8226  0.6287
 5001SOL    HW215912   4.974   3.665   3.706 -0.2361  0.6730 -0.0885
 5002SOL     OW15913   6.318   0.049   0.894 -0.2074 -0.4479 -0.2161
 5002SOL    HW115914   6.368   0.111   0.842  0.9149  0.2053  1.5240
 5002SOL    HW215915   6.253   0.013   0.834  0.1127  1.2629 -1.6663
 5003SOL     OW15916   7.289   7.331   7.387  0.5415  0.4329  0.1184
 5003SOL    HW115917   7.325   7.406   7.434  2.7290 -0.7173  0.4206
 5003SOL    HW215918   7.217   7.300   7.443  1.3218  0.7302  1.3346
 5004SOL     OW15919   3.827   7.116   2.639  0.3658 -0.1881  0.2255
 5004SOL    HW115920   3.890   7.171   2.686  0.6687 -1.0852  0.8895
 5004SOL    HW215921   3.745   7.125   2.688  0.4898 -0.5387  0.5047
 5005SOL     OW15922   2.737   3.693   2.738 -0.5725  0.0155  0.1059
 5005SOL    HW115923   2.710   3.763   2.679 -1.3312 -0.9601 -0.7352
 5005SOL    HW215924   2.692   3.711   2.820 -0.2085  0.8890  0.1241
 5006SOL     OW15925   3.966   6.198   3.075  0.1013 -0.3490  0.8768
 5006SOL    HW115926   3.964   6.203   3.171  0.9859 -1.0190  0.9391
 5006SOL    HW215927   4.021   6.122   3.056  2.5113  1.5135 -0.1664
 5007SOL     OW15928   2.863   0.789   7.312  0.2300 -0.2266 -0.2057
 5007SOL    HW115929   2.922   0.757   7.243 -1.2443 -0.6248 -1.3339
 5007SOL    HW215930   2.792   0.725   7.315  0.2194 -0.1831  1.6695
 5008SOL     OW15931   5.361   4.886   0.502  0.2839  0.0007  0.3615
 5008SOL    HW115932   5.312   4.806   0.483  3.3910 -1.7657 -1.0422
 5008SOL    HW215933   5.361   4.891   0.598 -1.3797 -0.6908  0.4328
 5009SOL     OW15934   5.464   3.766   5.146 -0.0859 -0.1824  0.1267
 5009SOL    HW115935   5.521   3.835   5.112  0.1046 -1.8275 -3.2768
 5009SOL    HW215936   5.524   3.702   5.183  0.0040 -0.0998  0.1253
 5010SOL     OW15937   6.716   0.475   4.865  0.5398  0.2622  0.1231
 5010SOL    HW115938   6.737   0.497   4.775  0.4591  1.7114  0.4361
 5010SOL    HW215939   6.754   0.546   4.917 -0.2386 -0.0434  1.1562
 5011SOL     OW15940   7.186   5.396   7.378 -0.4279  0.1130  0.0628
 5011SOL    HW115941   7.097   5.384   7.411 -0.9662 -1.1698 -1.6631
 5011SOL    HW215942   7.179   5.471   7.319 -0.4293 -0.1133 -0.2287
 5012SOL     OW15943   2.933   4.315   5.195 -0.3089 -0.4391  0.3309
 5012SOL    HW115944   2.976   4.236   5.229  0.0992 -0.5663 -0.4511
 5012SOL    HW215945   2.856   4.282   5.149 -0.4741 -0.3313  0.5331
 5013SOL     OW15946   1.939   5.102   7.081 -0.0456  0.4839 -0.0256
 5013SOL    HW115947   2.025   5.111   7.122  0.0101 -1.2445  0.3202
 5013SOL    HW215948   1.885   5.061   7.148 -0.8917  0.6984 -0.5584
 5014SOL     OW15949   5.020   4.866   2.422  0.0242  0.0213  0.5383
 5014SOL    HW115950   5.076   4.943   2.416  0.7119 -0.1823  3.0470
 5014SOL    HW215951   5.069   4.797   2.378 -0.9664  1.0766 -2.4932
 5015SOL     OW15952   5.858   2.862   0.016 -0.1724  0.0803  0.2235
 5015SOL    HW115953   5.880   2.935  -0.041  3.2747 -0.6316  0.4321
 5015SOL    HW215954   5.859   2.785  -0.041  3.0580 -0.6051  1.0188
 5016SOL     OW15955   4.442   2.337   4.765 -0.3921  0.4295 -0.1056
 5016SOL    HW115956   4.386   2.273   4.809 -0.2243  1.1575  1.2276
 5016SOL    HW215957   4.531   2.313   4.792 -0.2772  0.7977 -0.1535
 5017SOL     OW15958   1.095   2.762   3.274  0.4943  0.0437 -0.0454
 5017SOL    HW115959   1.020   2.787   3.327  0.1482 -2.1524  0.6169
 5017SOL    HW215960   1.158   2.833   3.286 -0.4320  0.6509  1.5487
 5018SOL     OW15961   2.292   4.537   3.136  0.0605  0.2876  0.0900
 5018SOL    HW115962   2.366   4.551   3.194  0.7684 -0.5870 -0.5631
 5018SOL    HW215963   2.311   4.590   3.059  0.0398  0.0153 -0.1051
 5019SOL     OW15964   0.510   6.413   3.150  0.4122  0.0738 -0.5150
 5019SOL    HW115965   0.592   6.420   3.101  0.8015  0.6597  0.1992
 5019SOL    HW215966   0.498   6.319   3.165  0.7102 -0.0448 -1.0266
 5020SOL     OW15967   7.122   4.580   5.102 -0.3111  0.4454 -0.0620
 5020SOL    HW115968   7.142   4.494   5.064  1.9029  0.9273 -0.1109
 5020SOL    HW215969   7.141   4.570   5.195  1.8132  1.3273 -0.3397
 5021SOL     OW15970   6.679   1.525   4.205 -0.2192  0.7817  0.2282
 5021SOL    HW115971   6.685   1.608   4.252 -0.9975  0.8395  0.2309
 5021SOL    HW215972   6.678   1.549   4.113 -1.8185  0.8811  0.2487
 5022SOL     OW15973   7.587   0.598   6.632 -0.3984  0.2513  0.8496
 5022SOL    HW115974   7.594   0.629   6.541  2.5685  0.8157  1.1809
 5022SOL    HW215975   7.600   0.503   6.626  3.0128  0.6114  0.8474
 5023SOL     OW15976   5.105   4.128   5.045  0.4387  0.4692  0.1446
 5023SOL    HW115977   5.103   4.077   5.126 -0.2942 -0.1865 -0.2728
 5023SOL    HW215978   5.096   4.219   5.074 -0.9380  0.1650  0.7489
 5024SOL     OW15979   1.846   1.768   3.614 -0.1669 -0.1540  0.1549
 5024SOL    HW115980   1.793   1.797   3.539 -1.8442 -0.4381  1.1697
 5024SOL    HW215981   1.918   1.831   3.619 -1.6597  1.6478  0.0583
 5025SOL     OW15982   2.873   5.125   7.583  0.2637 -0.1907 -0.1985
 5025SOL    HW115983   2.823   5.057   7.537  0.2539  0.9593 -1.9814
 5025SOL    HW215984   2.821   5.204   7.572  0.3728  0.1732  1.6828
 5026SOL     OW15985   4.019   1.733   0.780 -0.3045  0.5858  0.0914
 5026SOL    HW115986   3.980   1.818   0.757 -2.6082 -0.7218 -1.2132
 5026SOL    HW215987   4.067   1.707   0.702  3.9918  2.3569  1.7966
 5027SOL     OW15988   4.267   1.825   6.470  0.5876 -0.1350  0.1541
 5027SOL    HW115989   4.200   1.865   6.525  0.7028  0.5392 -0.1829
 5027SOL    HW215990   4.222   1.807   6.387  0.5909 -0.5137  0.2339
 5028SOL     OW15991   5.315   4.585   6.606  0.2274 -0.1542 -0.1197
 5028SOL    HW115992   5.291   4.529   6.532  0.3259 -1.3276  0.6953
 5028SOL    HW215993   5.295   4.531   6.683 -0.4562  1.2669  0.7286
 5029SOL     OW15994   3.403   1.843   7.027 -0.2065  0.3313 -0.1808
 5029SOL    HW115995   3.369   1.843   6.938  1.3371 -0.6695 -0.8131
 5029SOL    HW215996   3.411   1.750   7.050  0.5907  0.5574  0.5130
 5030SOL     OW15997   1.986   6.897   1.571  0.4491  0.5610  0.6999
 5030SOL    HW115998   2.018   6.922   1.658  0.8449  1.4884  0.2997
 5030SOL    HW215999   2.063   6.859   1.528 -0.2599 -1.9199  1.4748
 5031SOL     OW16000   6.437   0.030   6.647  0.0594 -0.4464  0.0190
 5031SOL    HW116001   6.463   0.114   6.683  3.5229 -0.9583 -0.9775
 5031SOL    HW216002   6.384   0.052   6.570  0.6529  0.8080 -0.0511
 5032SOL     OW16003   5.347   0.312   0.124 -0.2981 -0.2720 -0.1406
 5032SOL    HW116004   5.302   0.266   0.054  0.8686  0.1294 -1.1792
 5032SOL    HW216005   5.427   0.262   0.139 -0.6821 -0.5427  1.1577
 5033SOL     OW16006   4.779   6.639   3.211 -0.3876 -0.3127  0.1820
 5033SOL    HW116007   4.867   6.640   3.175 -0.3910  0.4116  0.1817
 5033SOL    HW216008   4.735   6.713   3.170 -1.0661 -0.7989  0.0164
 5034SOL     OW16009   2.529   7.392   0.920  0.4729  0.4878  0.1042
 5034SOL    HW116010   2.613   7.349   0.901  1.1050  1.8956 -0.4357
 5034SOL    HW216011   2.463   7.334   0.883  1.2360 -0.4102  0.1099
 5035SOL     OW16012   6.204   4.493   1.746 -0.8281 -0.1539 -0.1622
 5035SOL    HW116013   6.292   4.456   1.742 -0.9068 -0.2201 -2.2099
 5035SOL    HW216014   6.147   4.426   1.708 -1.1157  1.4862 -2.9413
 5036SOL     OW16015   6.256   5.283   7.565 -0.1500 -0.2272 -0.1449
 5036SOL    HW116016   6.285   5.200   7.526 -2.8012 -1.6016  0.5024
 5036SOL    HW216017   6.204   5.324   7.496 -0.9855 -0.4052  0.3601
 5037SOL     OW16018   7.393   1.691   1.946 -0.9259  0.0855 -0.5253
 5037SOL    HW116019   7.365   1.641   1.869 -2.4419 -0.9736  0.6542
 5037SOL    HW216020   7.312   1.723   1.985 -0.1368  1.2660  0.2148
 5038SOL     OW16021   5.029   7.375   5.402 -0.9265  0.1180  0.3403
 5038SOL    HW116022   4.986   7.358   5.486 -0.8532  1.5788  0.6901
 5038SOL    HW216023   4.958   7.366   5.337 -1.2307  0.1497  0.6654
 5039SOL     OW16024   2.271   2.098   3.448 -0.5307 -0.4023 -0.0184
 5039SOL    HW116025   2.295   2.190   3.441 -0.8993 -0.3053 -0.0507
 5039SOL    HW216026   2.267   2.067   3.358  1.4491 -0.9533  0.0486
 5040SOL     OW16027   5.097   4.097   7.263 -0.4646 -0.2383 -0.1634
 5040SOL    HW116028   5.133   4.033   7.325 -3.0752 -1.2885  0.4123
 5040SOL    HW216029   5.104   4.054   7.178 -1.5983 -1.0800  0.1366
 5041SOL     OW16030   7.481   2.269   2.536 -0.2280 -0.1115  0.0010
 5041SOL    HW116031   7.388   2.247   2.530  0.3487 -3.1397  0.6180
 5041SOL    HW216032   7.526   2.194   2.499  2.0301  0.5254  1.2516
 5042SOL     OW16033   3.481   1.007   0.330 -0.3511 -0.5234 -0.6723
 5042SOL    HW116034   3.540   0.975   0.398  0.1459  1.1240 -0.2837
 5042SOL    HW216035   3.452   0.928   0.284  1.0340 -1.4825  0.0339
 5043SOL     OW16036   5.427   2.718   2.456 -0.0475  0.1212 -0.2200
 5043SOL    HW116037   5.474   2.641   2.425 -1.4058 -0.9477  0.2655
 5043SOL    HW216038   5.487   2.759   2.518  1.0173 -0.0754 -1.0901
 5044SOL     OW16039   6.467   6.422   4.892  0.2301 -0.0301  0.0009
 5044SOL    HW116040   6.427   6.385   4.814 -0.8607 -0.4329  0.7285
 5044SOL    HW216041   6.454   6.516   4.883 -0.7629 -0.1449  0.1508
 5045SOL     OW16042   2.507   5.480   7.120 -0.0954  0.0598 -0.0937
 5045SOL    HW116043   2.434   5.443   7.170  0.1558  0.1366  0.3365
 5045SOL    HW216044   2.524   5.416   7.051 -0.9107  0.2860 -0.5208
 5046SOL     OW16045   4.154   2.027   5.989 -0.3819 -0.0069 -0.3983
 5046SOL    HW116046   4.096   1.971   5.938 -0.6836 -0.5484  0.5132
 5046SOL    HW216047   4.111   2.034   6.075  0.6175  0.0582  0.1075
 5047SOL     OW16048   3.735   0.333   2.468 -0.0006  0.4311  0.1498
 5047SOL    HW116049   3.706   0.319   2.378 -0.2250 -1.5505  0.4797
 5047SOL    HW216050   3.830   0.332   2.464  0.0013 -1.0826  0.0876
 5048SOL     OW16051   7.047   5.518   0.865  1.0814  0.2867 -0.3038
 5048SOL    HW116052   7.112   5.535   0.797  0.9312  1.1699 -0.2360
 5048SOL    HW216053   7.048   5.423   0.876  1.9805  0.2458 -0.6757
 5049SOL     OW16054   6.827   5.157   4.891  0.2537  0.3456 -0.2977
 5049SOL    HW116055   6.834   5.092   4.822 -0.7735  0.8064 -0.8566
 5049SOL    HW216056   6.733   5.163   4.910  0.4139  1.0035  0.3826
 5050SOL     OW16057   4.129   0.053   3.604 -0.3515 -0.4920  0.3108
 5050SOL    HW116058   4.047   0.026   3.646  0.0903 -0.7210  1.0540
 5050SOL    HW216059   4.165  -0.028   3.569  0.2704 -0.6513  1.2807
 5051SOL     OW16060   1.211   5.245   6.484  0.3385  0.1107  0.6170
 5051SOL    HW116061   1.212   5.166   6.538  0.8805  2.0218  3.6697
 5051SOL    HW216062   1.279   5.230   6.418 -0.2276 -2.2942  0.4944
 5052SOL     OW16063   2.842   6.890   3.163  0.2780  0.0866  0.4924
 5052SOL    HW116064   2.768   6.948   3.182 -0.1970 -0.2282 -0.2996
 5052SOL    HW216065   2.916   6.928   3.210 -0.4843  0.1512  1.6913
 5053SOL     OW16066   6.354   6.647   1.561 -0.4981 -0.0911 -0.0689
 5053SOL    HW116067   6.299   6.644   1.639  0.1205  0.4792  0.4098
 5053SOL    HW216068   6.316   6.716   1.507  0.9039  1.8222  1.2185
 5054SOL     OW16069   7.025   1.949   1.533 -0.2744 -0.6822 -0.3467
 5054SOL    HW116070   7.064   1.892   1.466 -2.2321  0.3565 -2.5263
 5054SOL    HW216071   7.048   2.038   1.505 -1.4176 -0.2177  0.1142
 5055SOL     OW16072   3.902   6.038   5.297 -0.1852 -0.2936 -0.3477
 5055SOL    HW116073   3.972   6.023   5.232  0.0706  0.5715 -0.2930
 5055SOL    HW216074   3.841   5.966   5.284 -0.5387  0.2574 -2.0954
 5056SOL     OW16075   0.674   6.053   3.629 -0.0445 -0.3567  0.1379
 5056SOL    HW116076   0.709   6.015   3.548 -0.1071  1.7675 -0.9689
 5056SOL    HW216077   0.585   6.018   3.635 -0.2506 -0.0949 -1.0598
 5057SOL     OW16078   2.923   0.791   3.765  0.2911  0.5452  0.5224
 5057SOL    HW116079   2.843   0.752   3.800  2.7851 -1.6883  4.6399
 5057SOL    HW216080   2.958   0.725   3.706  0.0279  0.6839  0.2094
 5058SOL     OW16081   2.981   6.719   4.346 -0.1043 -0.0330  0.0137
 5058SOL    HW116082   3.013   6.706   4.256  0.2254  2.1098 -0.2348
 5058SOL    HW216083   2.890   6.691   4.343  0.3164 -1.4439 -0.5640
 5059SOL     OW16084   2.529   4.498   6.108 -0.0368  0.0901 -0.4220
 5059SOL    HW116085   2.541   4.504   6.013 -3.0460 -0.0441 -0.8906
 5059SOL    HW216086   2.566   4.580   6.141  2.5281 -0.5301 -1.4323
 5060SOL     OW16087   1.544   7.001   0.294 -0.1180 -0.3182 -0.7067
 5060SOL    HW116088   1.519   7.094   0.301  0.3169 -0.2175 -0.4908
 5060SOL    HW216089   1.464   6.953   0.319 -0.4598 -0.0082 -1.1824
 5061SOL     OW16090   2.791   6.744   5.152  0.3684 -1.0366 -0.0455
 5061SOL    HW116091   2.846   6.784   5.085  0.3657 -1.3571 -0.2405
 5061SOL    HW216092   2.702   6.751   5.117  0.4849 -2.2990 -0.6435
 5062SOL     OW16093   1.181   6.228   1.097 -0.0955 -0.7871 -0.0760
 5062SOL    HW116094   1.181   6.141   1.057  0.6675 -0.2173 -1.3635
 5062SOL    HW216095   1.271   6.260   1.086  0.2352 -0.6656  2.3087
 5063SOL     OW16096   6.313   7.139   3.841 -0.0965 -1.1397 -0.6895
 5063SOL    HW116097   6.270   7.054   3.846  0.5559 -1.4602 -0.4801
 5063SOL    HW216098   6.381   7.137   3.908  3.9197 -2.7578 -4.3398
 5064SOL     OW16099   1.034   1.952   6.205 -0.0295  0.3329 -0.0846
 5064SOL    HW116100   1.024   2.043   6.177 -0.6975 -0.0093 -1.0070
 5064SOL    HW216101   1.021   1.954   6.300 -1.0112  1.0746 -0.2148
 5065SOL     OW16102   4.247   7.130   4.468 -0.0236  0.2590  0.1966
 5065SOL    HW116103   4.286   7.054   4.511 -2.1420 -0.4711  0.9174
 5065SOL    HW216104   4.249   7.110   4.375  0.6106 -0.0735  0.2745
 5066SOL     OW16105   3.800   0.007   4.470 -0.2792  0.2194  0.4512
 5066SOL    HW116106   3.769  -0.071   4.516  0.9802  0.6970  2.2116
 5066SOL    HW216107   3.780   0.079   4.529 -0.1930  1.0720 -0.5437
 5067SOL     OW16108   1.419   0.918   3.283 -0.1284  0.3591 -0.0791
 5067SOL    HW116109   1.344   0.977   3.275 -0.3564  0.3313  1.4963
 5067SOL    HW216110   1.473   0.958   3.352  1.2158  0.2650 -1.0296
 5068SOL     OW16111   6.585   2.467   3.310  0.7285  0.5245  0.0279
 5068SOL    HW116112   6.594   2.394   3.249  0.0385 -0.3280  0.9181
 5068SOL    HW216113   6.618   2.434   3.393 -1.7880  0.3429  1.0682
 5069SOL     OW16114   3.322   6.643   3.527 -0.1016  0.9695 -0.0035
 5069SOL    HW116115   3.305   6.693   3.446 -2.8679  0.3856  0.1037
 5069SOL    HW216116   3.354   6.558   3.497 -1.7747  0.5062 -0.6034
 5070SOL     OW16117   0.900   2.168   2.879  0.5025 -0.0787 -0.0727
 5070SOL    HW116118   0.966   2.129   2.936 -0.4607  0.0937  1.2224
 5070SOL    HW216119   0.829   2.194   2.939 -1.4594 -1.6772 -1.5513
 5071SOL     OW16120   2.018   0.140   5.186  0.6476 -0.2817  0.2028
 5071SOL    HW116121   1.981   0.051   5.178 -1.2031  0.2970  1.6162
 5071SOL    HW216122   1.994   0.168   5.274 -0.3298  2.2728 -0.7943
 5072SOL     OW16123   1.282   1.999   4.927  0.3910 -0.7350 -0.2954
 5072SOL    HW116124   1.366   1.954   4.938 -0.1311 -1.3516  1.3234
 5072SOL    HW216125   1.216   1.935   4.951 -0.5507 -0.1210 -1.1493
 5073SOL     OW16126   2.913   1.472   0.701 -0.3747  0.1776 -0.1375
 5073SOL    HW116127   2.992   1.520   0.727 -0.5999  0.7891 -0.5741
 5073SOL    HW216128   2.941   1.380   0.701 -0.0082  0.2724  0.9498
 5074SOL     OW16129   4.054   5.389   2.873  0.4539  0.2646 -0.1941
 5074SOL    HW116130   4.031   5.432   2.956  1.5262 -1.9374  1.3533
 5074SOL    HW216131   4.012   5.303   2.879  0.9623 -0.1149 -1.7437
 5075SOL     OW16132   7.018   2.115   4.044  0.3852  0.3793 -0.1299
 5075SOL    HW116133   6.936   2.163   4.050  0.0328 -0.1539 -0.5606
 5075SOL    HW216134   7.072   2.166   3.984 -0.3317 -0.2265 -1.3153
 5076SOL     OW16135   7.016   4.480   7.259  0.4578  0.0577 -0.1413
 5076SOL    HW116136   6.971   4.447   7.181  1.3628 -1.9777  0.1362
 5076SOL    HW216137   6.987   4.571   7.266 -2.2537 -0.6461 -0.9199
 5077SOL     OW16138   0.465   2.493   3.364  0.4751  0.2850  0.3407
 5077SOL    HW116139   0.528   2.423   3.381  0.7111  0.8820  2.0834
 5077SOL    HW216140   0.519   2.572   3.360  0.0416  0.5622 -0.1520
 5078SOL     OW16141   2.966   7.330   4.273  0.7239 -0.0075  0.0260
 5078SOL    HW116142   2.972   7.349   4.366  1.1335  0.7551 -0.1436
 5078SOL    HW216143   3.004   7.243   4.263  0.6893 -0.0852  0.5665
 5079SOL     OW16144   2.974   5.067   6.486 -0.6058  0.1291  0.1565
 5079SOL    HW116145   2.891   5.027   6.514 -0.5508  0.6867  1.1542
 5079SOL    HW216146   2.975   5.056   6.391 -0.7197 -2.0011  0.3583
 5080SOL     OW16147   7.456   3.170   1.080  0.0227 -0.5582 -0.1544
 5080SOL    HW116148   7.486   3.130   1.162  1.3867 -0.7854 -0.7445
 5080SOL    HW216149   7.515   3.135   1.014  1.0620  2.1854 -0.7733
 5081SOL     OW16150   0.236   2.629   6.636 -0.6211  0.0936  0.7190
 5081SOL    HW116151   0.273   2.627   6.547 -1.4873 -0.5825  0.3663
 5081SOL    HW216152   0.265   2.547   6.676 -1.0371 -0.0567  0.7205
 5082SOL     OW16153   4.047   0.290   5.945 -0.1783 -0.5137 -0.3081
 5082SOL    HW116154   3.962   0.265   5.909  0.4641  0.4217 -2.6346
 5082SOL    HW216155   4.053   0.384   5.929  0.1256  0.0249  2.4792
 5083SOL     OW16156   4.282   5.755   0.972 -0.2636 -0.1519 -0.4025
 5083SOL    HW116157   4.225   5.826   0.943  0.0428  0.1514 -0.2681
 5083SOL    HW216158   4.332   5.732   0.894  0.1383  0.2619 -0.2737
 5084SOL     OW16159   2.188   2.452   5.995 -0.4591 -0.0350 -0.3664
 5084SOL    HW116160   2.097   2.426   5.983 -0.5939  0.6560 -0.9259
 5084SOL    HW216161   2.189   2.500   6.077 -0.2494 -1.5842  0.5626
 5085SOL     OW16162   2.666   5.092   6.168 -0.8437  0.0593  0.1214
 5085SOL    HW116163   2.597   5.025   6.164  0.7655 -1.6709 -0.0249
 5085SOL    HW216164   2.672   5.125   6.078 -1.8076  0.5925  0.2421
 5086SOL     OW16165   5.524   5.691   2.809 -0.0645  0.1897 -0.4672
 5086SOL    HW116166   5.461   5.628   2.773  0.4741 -1.3470  1.1162
 5086SOL    HW216167   5.489   5.711   2.896 -0.4937  2.5505 -1.1097
 5087SOL     OW16168   2.519   3.313   5.821 -1.2073 -0.3404 -0.1198
 5087SOL    HW116169   2.564   3.397   5.832 -0.1066 -0.2486 -3.9043
 5087SOL    HW216170   2.473   3.300   5.904  0.4731  2.8044  1.5166
 5088SOL     OW16171   5.554   4.759   7.168  0.1009  0.3718 -0.0930
 5088SOL    HW116172   5.548   4.733   7.076 -2.8360  1.3914 -0.2892
 5088SOL    HW216173   5.565   4.677   7.216  0.1581 -0.3116 -1.2585
 5089SOL     OW16174   0.782   5.055   3.725 -0.6294  0.6408  0.0200
 5089SOL    HW116175   0.724   5.127   3.701 -1.4236  0.3992  1.1466
 5089SOL    HW216176   0.746   5.022   3.807 -0.2216 -0.9844 -0.4316
 5090SOL     OW16177   3.364   2.107   7.106  0.3202  0.5504 -0.0320
 5090SOL    HW116178   3.420   2.178   7.076  0.5974  0.0846 -0.6365
 5090SOL    HW216179   3.406   2.027   7.073 -0.3206  0.1477  0.1006
 5091SOL     OW16180   6.608   7.046   7.710 -0.3933 -0.4406 -0.3232
 5091SOL    HW116181   6.528   7.054   7.761 -0.5586 -0.0539 -0.6368
 5091SOL    HW216182   6.662   7.119   7.738 -0.7475  0.1576 -1.1565
 5092SOL     OW16183   0.583   7.569   4.984  0.0075  1.2100  0.0232
 5092SOL    HW116184   0.668   7.532   5.010 -0.3085  1.0816  0.8819
 5092SOL    HW216185   0.519   7.503   5.010 -0.4024  1.5379 -0.1487
 5093SOL     OW16186   4.129   0.569   5.903  0.3170 -0.1229  0.4467
 5093SOL    HW116187   4.084   0.649   5.874 -0.7264 -0.3352  1.4240
 5093SOL    HW216188   4.211   0.569   5.853 -0.0905  1.0549 -0.2763
 5094SOL     OW16189   1.274   4.768   7.070 -0.3114 -0.2177  0.3594
 5094SOL    HW116190   1.273   4.702   7.001  2.4157  0.5985 -0.5643
 5094SOL    HW216191   1.301   4.719   7.148 -1.9250 -0.8345  0.5907
 5095SOL     OW16192   4.543   1.293   6.256 -0.4143  0.8968  0.2584
 5095SOL    HW116193   4.579   1.361   6.198  0.0405 -0.1321 -0.7058
 5095SOL    HW216194   4.616   1.234   6.272 -0.7703  0.7026  1.2131
 5096SOL     OW16195   6.542   0.860   1.415  0.1342 -0.0896 -0.4509
 5096SOL    HW116196   6.586   0.897   1.338  0.7771 -0.3478 -0.2064
 5096SOL    HW216197   6.457   0.905   1.417 -0.5607 -1.1892 -2.2277
 5097SOL     OW16198   6.269   2.393   7.141 -0.2083 -0.3532  0.0167
 5097SOL    HW116199   6.212   2.371   7.067  0.1959  1.0642 -0.7579
 5097SOL    HW216200   6.211   2.431   7.206 -0.2828  0.3673 -0.4562
 5098SOL     OW16201   7.399   5.121   1.240  0.0156 -0.6460 -0.1801
 5098SOL    HW116202   7.494   5.115   1.248 -0.0899 -0.8471  1.2593
 5098SOL    HW216203   7.370   5.032   1.219  0.2146 -0.3412 -1.9065
 5099SOL     OW16204   0.652   2.201   3.742  0.3615  0.4058 -0.0295
 5099SOL    HW116205   0.609   2.247   3.670 -0.0679  1.7357  1.0376
 5099SOL    HW216206   0.611   2.236   3.821  1.4599 -0.3530  0.9135
 5100SOL     OW16207   2.270   4.680   1.532  0.4967  0.3422 -0.3723
 5100SOL    HW116208   2.293   4.621   1.603  0.9351  1.7603  0.7215
 5100SOL    HW216209   2.218   4.627   1.472 -0.0731 -0.8455  1.1157
 5101SOL     OW16210   0.810   1.786   6.658  0.5209 -0.1092  0.0959
 5101SOL    HW116211   0.862   1.804   6.580  1.4493 -1.2413  0.4336
 5101SOL    HW216212   0.857   1.830   6.729  0.9491 -1.0113  0.3773
 5102SOL     OW16213   7.079   3.973   0.819  0.3251  0.2959  0.0966
 5102SOL    HW116214   7.028   3.900   0.786 -1.9628  1.7657  0.1916
 5102SOL    HW216215   7.164   3.965   0.775  0.0928 -2.2402 -0.0435
 5103SOL     OW16216   4.033   2.513   3.374 -0.3132 -0.6324  0.3765
 5103SOL    HW116217   4.096   2.453   3.334  1.4604 -0.2474  2.3681
 5103SOL    HW216218   4.019   2.581   3.309  0.9347 -1.0191 -0.3191
 5104SOL     OW16219   3.114   2.075   7.222 -0.2109 -0.3195  0.2104
 5104SOL    HW116220   3.198   2.116   7.204 -1.2232  1.3685 -0.9841
 5104SOL    HW216221   3.088   2.035   7.139 -1.2586  0.5112  0.1106
 5105SOL     OW16222   2.451   7.260   1.906  0.1403 -0.2251 -0.1818
 5105SOL    HW116223   2.484   7.275   1.818  0.4937  2.1385  0.3085
 5105SOL    HW216224   2.514   7.199   1.945  0.4947 -0.5514 -1.2293
 5106SOL     OW16225   2.270   6.794   5.151  0.0017  0.9457 -0.2197
 5106SOL    HW116226   2.365   6.793   5.138  0.9026 -1.7889  4.4172
 5106SOL    HW216227   2.255   6.867   5.211 -0.3806 -0.0025  0.8785
 5107SOL     OW16228   4.427   2.928   6.508 -0.0095 -0.3678 -0.1640
 5107SOL    HW116229   4.467   2.865   6.568  1.1338 -0.2864 -0.8034
 5107SOL    HW216230   4.483   2.925   6.430 -1.2250 -0.1798 -1.0714
 5108SOL     OW16231   0.043   1.057   4.636  0.3325 -0.0282  0.3053
 5108SOL    HW116232   0.050   1.151   4.656 -0.8623  0.1762 -0.1723
 5108SOL    HW216233   0.069   1.014   4.717  0.5169  0.7188  0.6566
 5109SOL     OW16234   2.052   0.736   0.328 -0.2804 -0.0137 -0.2804
 5109SOL    HW116235   1.957   0.747   0.331 -0.3037  0.2749 -1.5813
 5109SOL    HW216236   2.084   0.788   0.403 -1.1650 -0.6159  0.5407
 5110SOL     OW16237   4.515   5.837   1.922  0.1091  0.6442  0.0352
 5110SOL    HW116238   4.569   5.851   2.000 -0.1620  2.5185 -0.0680
 5110SOL    HW216239   4.485   5.747   1.930  0.6686  0.5666  1.7487
 5111SOL     OW16240   2.899   3.752   3.739 -0.6615  1.2262  0.0571
 5111SOL    HW116241   2.929   3.821   3.798 -1.7811  1.5272  0.2902
 5111SOL    HW216242   2.979   3.720   3.697  0.1561  1.1014  1.6184
 5112SOL     OW16243   0.807   6.828   5.882  0.0317 -0.1520  0.2338
 5112SOL    HW116244   0.820   6.896   5.948  0.8940  0.9424 -1.0214
 5112SOL    HW216245   0.753   6.870   5.815  0.7092 -0.6564 -0.6403
 5113SOL     OW16246   7.059   0.182   3.506 -0.1413 -0.2280 -0.2199
 5113SOL    HW116247   7.145   0.224   3.507  0.0597 -0.6022 -1.0930
 5113SOL    HW216248   7.009   0.232   3.441 -1.3339  1.3932  1.8280
 5114SOL     OW16249   6.048   4.115   0.022 -0.2232 -0.4779  0.2200
 5114SOL    HW116250   6.060   4.065  -0.058  1.2414  1.5984 -0.9643
 5114SOL    HW216251   5.993   4.189  -0.003  0.3211  0.2443  1.0864
 5115SOL     OW16252   0.081   6.790   2.295  0.0428  0.3740 -0.4718
 5115SOL    HW116253   0.036   6.828   2.370 -1.0115  1.7777 -1.7336
 5115SOL    HW216254   0.173   6.813   2.307 -0.1303  0.6622  0.3416
 5116SOL     OW16255   0.985   0.670   2.143  0.2814  0.5565  0.0093
 5116SOL    HW116256   0.891   0.687   2.146 -0.3696 -1.3606 -3.3857
 5116SOL    HW216257   1.026   0.757   2.142 -1.3758  1.4183  1.8719
 5117SOL     OW16258   5.547   7.371   6.343  0.3754  0.0038 -0.2003
 5117SOL    HW116259   5.624   7.426   6.328  1.0956 -0.9180  0.0291
 5117SOL    HW216260   5.491   7.422   6.402  0.1305  1.2874 -1.4901
 5118SOL     OW16261   0.815   5.943   6.735  0.3529  0.8770 -0.3518
 5118SOL    HW116262   0.888   5.964   6.677  1.8658  0.0456  1.1601
 5118SOL    HW216263   0.766   6.025   6.742  0.1861  1.0252 -2.6475
 5119SOL     OW16264   2.716   4.042   5.558 -0.3457 -0.0355 -0.0923
 5119SOL    HW116265   2.766   3.964   5.534 -1.0747 -0.6038  0.2085
 5119SOL    HW216266   2.625   4.012   5.562 -0.6975  0.9529 -0.5018
 5120SOL     OW16267   5.295   6.984   6.766  0.3760 -0.0043  0.9894
 5120SOL    HW116268   5.208   6.962   6.799  0.2278  1.9174  1.9868
 5120SOL    HW216269   5.278   7.033   6.686  0.6032 -0.5997  0.5665
 5121SOL     OW16270   3.625   5.142   1.116  0.2122  0.5266 -0.5388
 5121SOL    HW116271   3.710   5.185   1.126 -0.2331  1.4803 -0.6997
 5121SOL    HW216272   3.591   5.176   1.033  0.5276 -1.3781 -1.5091
 5122SOL     OW16273   4.158   2.037   2.997 -0.1737  0.0401  0.4117
 5122SOL    HW116274   4.163   2.123   2.956 -0.8198  0.7192  1.6862
 5122SOL    HW216275   4.080   1.996   2.958  0.1851 -0.0098 -0.2596
 5123SOL     OW16276   3.322   7.015   0.387  0.1762 -0.6930 -0.2412
 5123SOL    HW116277   3.387   6.984   0.323  0.2081  2.9801 -2.2367
 5123SOL    HW216278   3.258   7.063   0.335 -2.1855 -1.0736  2.1111
 5124SOL     OW16279   6.425   6.767   3.026 -0.0806  0.1866  0.1506
 5124SOL    HW116280   6.370   6.718   3.087 -0.2820 -0.4086 -0.4964
 5124SOL    HW216281   6.363   6.823   2.978  0.1039  0.8189  0.6308
 5125SOL     OW16282   0.459   7.051   5.333 -0.2123 -0.4220  0.6556
 5125SOL    HW116283   0.435   7.061   5.425 -0.8972 -2.3612  0.7352
 5125SOL    HW216284   0.537   7.105   5.323 -0.3192  0.1057  2.2814
 5126SOL     OW16285   1.175   3.076   4.303  0.2240  0.5578  0.1758
 5126SOL    HW116286   1.113   3.141   4.336  0.6975  1.0573  0.0894
 5126SOL    HW216287   1.172   3.005   4.367 -1.3333  0.0183 -0.4331
 5127SOL     OW16288   3.110   3.367   3.369 -0.0900 -0.0899 -0.4281
 5127SOL    HW116289   3.101   3.315   3.289  0.0142 -0.6809 -0.0640
 5127SOL    HW216290   3.202   3.391   3.371  0.3652 -1.7258  0.4920
 5128SOL     OW16291   6.273   4.268   5.603 -0.0229  0.1286 -0.4904
 5128SOL    HW116292   6.309   4.226   5.525  0.0471  1.5856 -1.2910
 5128SOL    HW216293   6.179   4.272   5.587 -0.0617  0.0117 -0.2904
 5129SOL     OW16294   7.735   3.676   4.457 -0.5217 -0.3903 -0.1455
 5129SOL    HW116295   7.769   3.739   4.392 -0.6720 -2.0795 -1.9437
 5129SOL    HW216296   7.675   3.621   4.407 -2.9077  0.0047  2.0934
 5130SOL     OW16297   6.422   2.448   2.927 -0.3277  0.1087 -0.3617
 5130SOL    HW116298   6.433   2.442   2.832  0.9026 -1.7455 -0.1668
 5130SOL    HW216299   6.510   2.469   2.960 -0.4695 -0.4685  0.4259
 5131SOL     OW16300   0.299   4.283   3.549  0.3942  0.2899  0.4460
 5131SOL    HW116301   0.381   4.288   3.500 -0.8099 -0.8219 -1.8131
 5131SOL    HW216302   0.325   4.248   3.635  2.1851 -1.0408 -0.5623
 5132SOL     OW16303   6.550   6.588   3.967 -0.4531  0.4868 -0.2307
 5132SOL    HW116304   6.467   6.620   4.003 -1.0148 -1.5009  0.3524
 5132SOL    HW216305   6.558   6.634   3.883 -1.2167  2.0578  0.5001
 5133SOL     OW16306   6.715   6.473   3.344  0.4250  0.4737 -0.0442
 5133SOL    HW116307   6.680   6.419   3.272  1.0363  1.1644 -0.8814
 5133SOL    HW216308   6.681   6.560   3.327  0.3121  0.5751  0.7034
 5134SOL     OW16309   7.054   0.841   0.037 -0.0272 -0.2186 -0.2597
 5134SOL    HW116310   6.976   0.824  -0.016 -0.6441  2.5677 -0.4029
 5134SOL    HW216311   7.124   0.853  -0.027  0.0900 -0.7184 -0.2291
 5135SOL     OW16312   1.245   0.933   0.969 -0.0744 -0.0332 -0.0976
 5135SOL    HW116313   1.323   0.877   0.964 -0.3821 -0.3914 -2.5487
 5135SOL    HW216314   1.266   1.008   0.914 -0.3190  1.4777  1.7791
 5136SOL     OW16315   0.309   2.784   3.806  0.1476  0.0159  0.0117
 5136SOL    HW116316   0.255   2.761   3.731  0.1306 -1.2706  0.3792
 5136SOL    HW216317   0.398   2.761   3.779  0.4425  1.5027 -0.3515
 5137SOL     OW16318   2.724   5.389   7.591 -0.2377  0.0971 -0.1261
 5137SOL    HW116319   2.790   5.438   7.543 -0.4810  0.8267  0.2674
 5137SOL    HW216320   2.663   5.356   7.524 -0.4885  0.9694 -0.3361
 5138SOL     OW16321   4.281   7.264   0.546 -0.5727 -0.4282 -0.0955
 5138SOL    HW116322   4.249   7.196   0.486 -1.2669 -2.2669  2.1922
 5138SOL    HW216323   4.335   7.216   0.609  0.7317  1.5330  0.3383
 5139SOL     OW16324   6.911   1.631   5.494  0.0344 -0.2640  0.3872
 5139SOL    HW116325   6.995   1.671   5.513 -0.8825  1.5739  0.8191
 5139SOL    HW216326   6.890   1.658   5.404 -0.7293  0.5126  0.7844
 5140SOL     OW16327   6.789   0.721   0.389  0.3787 -0.6934 -0.5090
 5140SOL    HW116328   6.850   0.790   0.414  0.2683 -0.3384 -1.1963
 5140SOL    HW216329   6.741   0.701   0.470  1.0262 -0.6006 -0.0924
 5141SOL     OW16330   3.729   2.921   4.185 -0.1037 -0.0128  0.2694
 5141SOL    HW116331   3.709   3.011   4.162 -0.8953 -0.1297  0.4591
 5141SOL    HW216332   3.644   2.882   4.207  0.3557 -0.4761  1.3433
 5142SOL     OW16333   3.623   0.368   7.443  0.1990 -0.3995 -0.4307
 5142SOL    HW116334   3.665   0.431   7.384 -0.2819 -0.2375 -0.6091
 5142SOL    HW216335   3.680   0.291   7.440  0.7272 -0.0188 -0.3051
 5143SOL     OW16336   5.467   1.292   5.280 -0.5068  0.5414 -0.2717
 5143SOL    HW116337   5.424   1.269   5.362 -1.6245  0.9800 -0.7133
 5143SOL    HW216338   5.494   1.208   5.242  3.3828  0.4467  2.2200
 5144SOL     OW16339   4.262   7.601   3.457 -0.1988 -0.2018  0.8272
 5144SOL    HW116340   4.346   7.575   3.495  0.6026  0.1059 -0.6589
 5144SOL    HW216341   4.279   7.606   3.362 -1.8821 -0.1001  0.5057
 5145SOL     OW16342   6.856   5.626   7.203  0.1148 -0.2394  0.3717
 5145SOL    HW116343   6.862   5.568   7.279 -0.7618 -1.7055 -0.6152
 5145SOL    HW216344   6.893   5.575   7.131  2.6648  1.7964  0.0792
 5146SOL     OW16345   7.354   0.356   3.124  0.1832  0.1431  0.7621
 5146SOL    HW116346   7.365   0.318   3.211  1.1639 -1.6672 -0.1026
 5146SOL    HW216347   7.314   0.442   3.141 -2.0457 -1.1583  2.8277
 5147SOL     OW16348   7.501   3.194   1.640  0.6363 -0.4313  0.2390
 5147SOL    HW116349   7.470   3.284   1.627  0.9944 -0.4498 -0.8575
 5147SOL    HW216350   7.422   3.140   1.633  0.7786 -0.4433 -2.1390
 5148SOL     OW16351   2.964   6.168   5.886  0.7817 -0.0126 -0.2016
 5148SOL    HW116352   3.045   6.195   5.842  0.5606 -0.8474 -1.1800
 5148SOL    HW216353   2.894   6.200   5.828  0.4508 -0.2223  0.0795
 5149SOL     OW16354   0.786   4.438   2.974  0.0661 -0.4819 -0.2594
 5149SOL    HW116355   0.851   4.501   3.005  0.1314 -1.5169  1.8782
 5149SOL    HW216356   0.732   4.419   3.051 -1.1321 -1.6044 -1.3307
 5150SOL     OW16357   2.268   6.155   3.687 -0.3981 -0.0239  0.4735
 5150SOL    HW116358   2.352   6.152   3.732  0.6558  0.6093 -1.3587
 5150SOL    HW216359   2.265   6.073   3.637 -1.1058 -0.2807  0.9306
 5151SOL     OW16360   3.866   1.490   1.524  0.6795 -0.2021  0.3360
 5151SOL    HW116361   3.928   1.500   1.452 -0.8891 -0.4183 -1.1051
 5151SOL    HW216362   3.921   1.472   1.600  2.3647 -0.7179 -0.9368
 5152SOL     OW16363   6.950   4.773   6.517  0.2881  0.1157 -0.6627
 5152SOL    HW116364   6.868   4.725   6.511  0.5080 -0.1174 -2.4639
 5152SOL    HW216365   7.008   4.730   6.453  1.7130  0.4665  0.3352
 5153SOL     OW16366   1.526   5.971   5.637 -0.0006 -0.6887 -0.2818
 5153SOL    HW116367   1.470   5.896   5.656  0.1957  0.0436  4.2697
 5153SOL    HW216368   1.615   5.939   5.649  0.1114  0.0275  1.0153
 5154SOL     OW16369   2.403   6.795   3.006 -0.0621 -0.3919 -0.0841
 5154SOL    HW116370   2.331   6.760   3.057  0.8852 -0.9667  0.9067
 5154SOL    HW216371   2.406   6.739   2.928  0.3938 -1.5152  0.7058
 5155SOL     OW16372   2.744   1.937   1.943 -0.1184  0.2943  0.3830
 5155SOL    HW116373   2.667   1.897   1.982 -0.4157 -0.3464 -0.8338
 5155SOL    HW216374   2.761   2.013   1.998 -1.7315  0.5605  0.5755
 5156SOL     OW16375   4.033   0.961   3.669 -0.7556  0.1204  0.0605
 5156SOL    HW116376   4.002   0.909   3.743  0.3059 -1.0893 -0.3066
 5156SOL    HW216377   4.094   1.024   3.708 -2.7663  1.8263  0.6390
 5157SOL     OW16378   3.620   5.687   6.695  0.1745 -0.1819  0.0639
 5157SOL    HW116379   3.673   5.721   6.767  1.0465  1.0510 -1.1051
 5157SOL    HW216380   3.581   5.764   6.656 -1.6780 -0.9869  0.2376
 5158SOL     OW16381   5.939   4.117   7.357  0.5024 -0.3060 -0.3286
 5158SOL    HW116382   5.948   4.097   7.264 -0.3860 -0.9588 -0.2864
 5158SOL    HW216383   5.962   4.209   7.364 -1.2487  0.2724 -1.5002
 5159SOL     OW16384   0.473   3.874   5.003 -0.1980 -0.2591 -0.3855
 5159SOL    HW116385   0.476   3.811   5.074 -1.0039 -0.3410 -0.4146
 5159SOL    HW216386   0.565   3.894   4.985  0.0445 -0.9332  0.0525
 5160SOL     OW16387   0.602   6.775   2.964  0.4810  0.1367 -0.4370
 5160SOL    HW116388   0.618   6.738   2.878 -0.5611 -0.3493 -0.4382
 5160SOL    HW216389   0.684   6.763   3.011  0.6095 -0.8983 -0.8991
 5161SOL     OW16390   6.392   5.146   5.991 -0.0873 -0.7839 -0.1178
 5161SOL    HW116391   6.318   5.144   6.051 -1.5775  1.0767 -1.7554
 5161SOL    HW216392   6.419   5.237   5.989  2.0951 -1.3785  0.2016
 5162SOL     OW16393   6.405   0.960   6.064 -0.0926  0.2527 -0.2224
 5162SOL    HW116394   6.341   0.903   6.106 -0.6647 -0.0440 -1.4462
 5162SOL    HW216395   6.487   0.910   6.066 -0.7322 -0.9696 -1.8911
 5163SOL     OW16396   1.773   4.140   7.428 -0.9661 -0.1873  0.3401
 5163SOL    HW116397   1.686   4.161   7.395 -1.1663  0.1665  1.0836
 5163SOL    HW216398   1.796   4.213   7.485  0.8169  0.9404 -1.6458
 5164SOL     OW16399   2.283   3.559   0.763  0.1769  0.3943  0.0011
 5164SOL    HW116400   2.223   3.630   0.743  2.2164  2.1486 -0.2348
 5164SOL    HW216401   2.347   3.597   0.823  3.0648 -0.2627 -2.3851
 5165SOL     OW16402   2.454   5.098   3.944 -0.2887  0.3164 -0.1823
 5165SOL    HW116403   2.461   5.004   3.958  1.4098  0.6621  1.7844
 5165SOL    HW216404   2.424   5.133   4.028  2.5456  1.8039  0.3491
 5166SOL     OW16405   5.858   7.254   1.986  0.3772  0.4214  0.6321
 5166SOL    HW116406   5.862   7.344   1.955  0.7810  1.0154  2.3306
 5166SOL    HW216407   5.942   7.239   2.028  1.1383 -1.4587 -1.3670
 5167SOL     OW16408   3.266   4.075   3.407 -0.2109  0.4561 -0.1506
 5167SOL    HW116409   3.321   4.131   3.460  0.5158 -1.6769  1.4661
 5167SOL    HW216410   3.188   4.058   3.461  0.9212 -2.4446  0.7888
 5168SOL     OW16411   4.435   0.878   0.625 -0.0503  0.4064  0.7158
 5168SOL    HW116412   4.472   0.810   0.680  1.0006  0.6756  0.3642
 5168SOL    HW216413   4.505   0.902   0.565 -0.0573  2.4595  1.4414
 5169SOL     OW16414   5.663   1.171   2.237  0.1584  0.3290 -0.3832
 5169SOL    HW116415   5.647   1.263   2.256 -1.1805 -0.1430  0.9928
 5169SOL    HW216416   5.739   1.171   2.179 -0.3083  2.3231 -1.0565
 5170SOL     OW16417   6.016   4.024   3.748  0.4918  0.1997 -0.1988
 5170SOL    HW116418   6.096   4.015   3.800  0.8822 -0.6510 -0.9325
 5170SOL    HW216419   5.953   3.966   3.792  0.6097  0.0224 -0.2628
 5171SOL     OW16420   5.160   6.774   5.741  0.1357  0.0586  0.1984
 5171SOL    HW116421   5.070   6.742   5.740 -0.5811  1.8084 -2.4347
 5171SOL    HW216422   5.212   6.702   5.705 -0.5294 -0.2302 -0.1942
 5172SOL     OW16423   4.558   1.846   3.750 -0.1832 -0.2542  0.3748
 5172SOL    HW116424   4.561   1.840   3.846 -0.5964 -0.1433  0.3970
 5172SOL    HW216425   4.465   1.851   3.729 -0.0733  2.8509  0.1554
 5173SOL     OW16426   5.172   6.584   5.995 -0.8697 -0.1749  0.3870
 5173SOL    HW116427   5.165   6.532   6.075  2.5425  1.1010  1.6812
 5173SOL    HW216428   5.222   6.662   6.020 -0.5855  0.8259 -2.7698
 5174SOL     OW16429   4.131   5.464   4.506  0.2026  0.1154  0.2190
 5174SOL    HW116430   4.115   5.546   4.459 -2.5724  0.1669  1.0547
 5174SOL    HW216431   4.163   5.491   4.592  2.1305  0.1594 -0.4879
 5175SOL     OW16432   1.608   2.783   5.989  0.7434  0.0716  0.3533
 5175SOL    HW116433   1.684   2.738   5.952  1.3627  1.9597 -0.8110
 5175SOL    HW216434   1.533   2.737   5.953  1.3564 -0.3858 -0.3621
 5176SOL     OW16435   1.650   0.307   6.700 -0.2924 -0.0349  0.7805
 5176SOL    HW116436   1.592   0.261   6.638  0.3510 -1.1870  1.0103
 5176SOL    HW216437   1.732   0.318   6.652  0.5141 -1.7397  1.7005
 5177SOL     OW16438   7.274   3.231   6.125  0.0530 -0.1309 -0.7337
 5177SOL    HW116439   7.270   3.282   6.044  0.0575 -0.4144 -0.9173
 5177SOL    HW216440   7.334   3.279   6.181  0.1249  0.0196 -0.9371
 5178SOL     OW16441   0.014   0.999   7.683  0.4337 -0.1115  0.7106
 5178SOL    HW116442   0.006   0.917   7.635 -0.9164  0.3018  0.1775
 5178SOL    HW216443  -0.010   0.976   7.773 -0.3576 -0.2237  0.4762
 5179SOL     OW16444   3.494   3.976   3.735  0.5561 -0.0414  0.0825
 5179SOL    HW116445   3.544   3.901   3.766  1.0677  0.3615  0.2495
 5179SOL    HW216446   3.520   4.047   3.793  0.3829  0.3630 -0.3309
 5180SOL     OW16447   7.731   2.591   2.202  0.6798  0.1813  0.3449
 5180SOL    HW116448   7.644   2.631   2.202  1.2537  1.4994  1.0335
 5180SOL    HW216449   7.727   2.525   2.271 -0.2742 -0.9728 -0.7817
 5181SOL     OW16450   2.016   2.153   5.647 -0.1059  0.4094 -0.2648
 5181SOL    HW116451   2.020   2.240   5.685  1.3634  0.2861 -0.0459
 5181SOL    HW216452   2.074   2.158   5.571 -1.3487  0.0763 -1.2482
 5182SOL     OW16453   4.590   4.509   0.595  0.9507  0.7718 -0.4019
 5182SOL    HW116454   4.570   4.421   0.564  2.2315  0.0181  0.7699
 5182SOL    HW216455   4.505   4.552   0.602 -0.0168 -1.1967  1.3266
 5183SOL     OW16456   3.445   6.130   1.758  0.1184  0.3841 -0.1867
 5183SOL    HW116457   3.360   6.153   1.720  0.4592 -0.2072 -1.3484
 5183SOL    HW216458   3.466   6.045   1.720  0.4209 -0.3281  1.4659
 5184SOL     OW16459   2.917   6.939   1.968 -0.6352 -0.0352 -0.0135
 5184SOL    HW116460   3.010   6.921   1.974 -0.5995  0.0614 -0.2813
 5184SOL    HW216461   2.888   6.948   2.059 -0.4590 -0.4371  0.0849
 5185SOL     OW16462   1.105   0.791   2.575  0.3650 -0.1963 -0.1149
 5185SOL    HW116463   1.087   0.824   2.487 -3.0313 -2.4915 -0.4643
 5185SOL    HW216464   1.019   0.778   2.614  1.6894 -1.6215  2.6427
 5186SOL     OW16465   3.214   4.368   3.785  0.0624  0.6331 -0.0904
 5186SOL    HW116466   3.250   4.443   3.832 -0.7086  0.3488  0.9827
 5186SOL    HW216467   3.195   4.304   3.853  0.1442 -0.3094 -0.9332
 5187SOL     OW16468   6.755   5.844   0.278 -0.0766  0.1003 -0.5056
 5187SOL    HW116469   6.764   5.750   0.259  1.5419  0.7213 -3.3510
 5187SOL    HW216470   6.768   5.851   0.372 -2.8405 -2.7568  0.2845
 5188SOL     OW16471   1.203   5.201   1.350  0.2164 -0.0494  0.4686
 5188SOL    HW116472   1.110   5.225   1.348  0.2523  0.0783 -0.2469
 5188SOL    HW216473   1.208   5.127   1.410 -0.4975 -0.6569 -0.1936
 5189SOL     OW16474   0.498   5.125   1.429 -0.4065  0.5372  0.1671
 5189SOL    HW116475   0.500   5.164   1.517 -1.2656 -0.1503  0.5181
 5189SOL    HW216476   0.410   5.144   1.397 -0.7367 -0.7778  0.2149
 5190SOL     OW16477   4.308   4.305   4.634 -0.4180 -0.1472 -0.0901
 5190SOL    HW116478   4.400   4.287   4.653  0.0235  0.8979 -1.0778
 5190SOL    HW216479   4.273   4.344   4.714 -0.0032 -0.5533  0.2919
 5191SOL     OW16480   3.725   2.400   5.097  0.1665 -0.2647  0.2654
 5191SOL    HW116481   3.820   2.408   5.106  0.2938 -1.6546  0.3032
 5191SOL    HW216482   3.711   2.311   5.067 -1.1579 -0.2017  0.6478
 5192SOL     OW16483   5.851   6.124   6.307 -0.2528 -1.0098 -0.7855
 5192SOL    HW116484   5.942   6.142   6.285 -0.9061  2.7063 -1.1026
 5192SOL    HW216485   5.803   6.143   6.226 -1.4721 -0.9801 -0.0762
 5193SOL     OW16486   6.864   7.418   5.560 -0.6980  0.4161  0.6045
 5193SOL    HW116487   6.881   7.370   5.641 -1.2293 -1.8805 -0.5534
 5193SOL    HW216488   6.951   7.430   5.521 -0.6597 -1.5524 -0.0604
 5194SOL     OW16489   2.789   1.798   2.374  0.6163 -0.0369 -0.3464
 5194SOL    HW116490   2.808   1.730   2.309  0.7551 -0.2968 -0.0307
 5194SOL    HW216491   2.852   1.868   2.353  0.2234  0.1599 -0.9099
 5195SOL     OW16492   3.746   2.413   2.513 -0.2839 -0.2440  0.2503
 5195SOL    HW116493   3.738   2.435   2.605  2.0402 -1.4200  0.7987
 5195SOL    HW216494   3.782   2.325   2.512 -2.1227 -1.0743 -1.8280
 5196SOL     OW16495   0.052   5.122   0.309 -0.0780 -0.0126  0.3161
 5196SOL    HW116496   0.045   5.211   0.275  0.0445 -0.5074 -1.0407
 5196SOL    HW216497   0.005   5.125   0.393 -0.1797  1.2927  0.2286
 5197SOL     OW16498   0.064   4.583   3.026 -0.1172 -0.4496  0.6535
 5197SOL    HW116499  -0.021   4.546   3.053 -1.3010  1.4294 -0.2540
 5197SOL    HW216500   0.068   4.667   3.072  0.2787  0.4095 -0.9105
 5198SOL     OW16501   7.520   3.577   1.358 -0.1829  0.2767  0.2476
 5198SOL    HW116502   7.520   3.508   1.425  1.3888 -0.3019 -0.2996
 5198SOL    HW216503   7.488   3.533   1.279 -0.8854  0.6489  0.3197
 5199SOL     OW16504   5.242   3.074   0.912  0.0635 -0.0140 -0.1774
 5199SOL    HW116505   5.259   3.016   0.986  0.0313  0.3184  0.0935
 5199SOL    HW216506   5.325   3.077   0.865  0.7055  1.3573  0.9656
 5200SOL     OW16507   4.844   1.046   4.027  0.2179  0.0971  0.1691
 5200SOL    HW116508   4.822   0.988   4.100  0.8034 -0.1908  0.1261
 5200SOL    HW216509   4.940   1.042   4.022  0.1955  0.3091 -0.4604
 5201SOL     OW16510   0.151   2.097   5.476  0.5086  0.5047 -0.1963
 5201SOL    HW116511   0.237   2.096   5.517  1.0516 -1.0684 -1.2758
 5201SOL    HW216512   0.154   2.172   5.417  0.8428  0.9098  0.3165
 5202SOL     OW16513   0.039   2.028   3.305  0.0230 -0.1558  0.4551
 5202SOL    HW116514   0.121   2.073   3.284 -0.7241  1.5122  0.9004
 5202SOL    HW216515  -0.021   2.052   3.234  0.4650 -3.1761 -1.0950
 5203SOL     OW16516   7.492   1.849   0.072  0.4405  0.1225 -0.3352
 5203SOL    HW116517   7.408   1.858   0.028 -1.5151 -0.8370  2.8231
 5203SOL    HW216518   7.504   1.933   0.117  0.5610 -0.1366  0.1270
 5204SOL     OW16519   1.514   3.377   6.489 -0.7659  0.4627  0.4289
 5204SOL    HW116520   1.489   3.440   6.557 -0.7976  0.3889  0.4872
 5204SOL    HW216521   1.451   3.305   6.500 -2.0820  1.3349 -1.0017
 5205SOL     OW16522   7.184   3.991   5.813  0.7406  0.0634  0.7780
 5205SOL    HW116523   7.174   4.032   5.727  0.9774  0.7965  1.0873
 5205SOL    HW216524   7.273   3.955   5.812  0.7530  0.0948  0.7234
 5206SOL     OW16525   0.922   4.134   1.017  0.1897 -0.1099 -0.2171
 5206SOL    HW116526   0.995   4.118   1.076 -0.8292  1.7496  1.6989
 5206SOL    HW216527   0.948   4.209   0.964  0.5847 -0.9687 -1.2860
 5207SOL     OW16528   4.341   5.380   2.273  0.0318  0.2617  0.5728
 5207SOL    HW116529   4.264   5.420   2.313 -0.1221  2.4569 -1.7136
 5207SOL    HW216530   4.306   5.316   2.212  0.1163 -0.0818  0.8790
 5208SOL     OW16531   4.611   3.673   5.694  0.1754 -0.1639 -0.0133
 5208SOL    HW116532   4.563   3.741   5.741 -0.5441  1.1969 -2.4939
 5208SOL    HW216533   4.565   3.592   5.716  0.1068  0.3295  1.8339
 5209SOL     OW16534   0.793   2.501   2.929 -0.1481 -0.0181  0.0380
 5209SOL    HW116535   0.715   2.556   2.931 -0.1398  0.0434 -0.9986
 5209SOL    HW216536   0.770   2.425   2.983 -0.3507  0.7186  1.0294
 5210SOL     OW16537   0.675   2.523   3.919  0.1597 -0.4940 -0.6224
 5210SOL    HW116538   0.672   2.513   4.014 -0.5244 -1.4329 -0.7286
 5210SOL    HW216539   0.753   2.474   3.892  1.8932  1.9134 -0.3434
 5211SOL     OW16540   7.641   1.268   0.996  0.2191 -0.1258  0.2036
 5211SOL    HW116541   7.728   1.263   1.036  0.7573  1.0476 -0.7500
 5211SOL    HW216542   7.655   1.241   0.905 -0.7661 -1.6297  0.4656
 5212SOL     OW16543   0.804   5.299   4.214  1.0991  0.0559  0.1659
 5212SOL    HW116544   0.793   5.205   4.225  1.3512  0.1592  1.3765
 5212SOL    HW216545   0.741   5.338   4.274  1.5043  0.6528  0.2132
 5213SOL     OW16546   2.971   1.934   0.752 -0.4566 -0.6488  0.2412
 5213SOL    HW116547   2.932   1.956   0.837 -1.1975 -0.4809 -0.1347
 5213SOL    HW216548   3.060   1.969   0.757 -1.5277  2.4160 -0.2699
 5214SOL     OW16549   6.837   2.117   2.376 -0.3497 -0.2342 -0.3742
 5214SOL    HW116550   6.816   2.181   2.308  0.5360  1.1999  0.6533
 5214SOL    HW216551   6.932   2.108   2.373 -0.4377 -1.3537 -0.3415
 5215SOL     OW16552   0.724   0.543   6.062  0.2764  0.4829  0.1600
 5215SOL    HW116553   0.701   0.622   6.013 -2.9625 -0.3124  0.1994
 5215SOL    HW216554   0.740   0.575   6.151 -1.1165  1.1265  0.2057
 5216SOL     OW16555   4.376   5.697   3.370 -0.2088  0.0545  0.5510
 5216SOL    HW116556   4.381   5.710   3.465 -0.2122 -1.2893  0.7676
 5216SOL    HW216557   4.406   5.606   3.358  0.8697  0.5647 -0.8526
 5217SOL     OW16558   5.019   0.145   6.273  0.6317  0.3478 -0.1336
 5217SOL    HW116559   5.083   0.087   6.231 -1.3511 -2.3295  0.2600
 5217SOL    HW216560   5.047   0.150   6.364  1.3000  0.7374 -0.3573
 5218SOL     OW16561   0.492   1.342   2.589  0.0446 -0.4013 -0.0104
 5218SOL    HW116562   0.485   1.259   2.543 -0.2707 -0.4271  0.0878
 5218SOL    HW216563   0.523   1.319   2.677  0.0698 -0.4033 -0.0197
 5219SOL     OW16564   3.515   0.705   3.241  0.4705  0.6135 -0.6198
 5219SOL    HW116565   3.577   0.706   3.314  0.6564 -0.4324 -0.7455
 5219SOL    HW216566   3.524   0.618   3.203 -1.7750  0.0750 -0.0537
 5220SOL     OW16567   2.002   6.148   4.816 -0.3850 -0.7126  0.2015
 5220SOL    HW116568   2.075   6.208   4.830  1.4415 -2.9160  0.7516
 5220SOL    HW216569   1.976   6.162   4.725  0.2293  0.6185  0.2073
 5221SOL     OW16570   6.303   1.146   5.277 -0.1175 -0.0804 -0.2334
 5221SOL    HW116571   6.288   1.052   5.281 -1.4441  0.1063 -0.4088
 5221SOL    HW216572   6.227   1.181   5.231  0.3536  1.0827 -0.1794
 5222SOL     OW16573   3.418   2.591   7.212  0.1143  0.1423  0.2795
 5222SOL    HW116574   3.443   2.514   7.263 -0.2264 -0.7208 -0.8225
 5222SOL    HW216575   3.502   2.630   7.185  0.2946  0.6170  1.4886
 5223SOL     OW16576   2.139   7.078   1.777 -0.8770 -0.5136 -0.2042
 5223SOL    HW116577   2.099   7.153   1.734  0.3401  0.2601 -0.0354
 5223SOL    HW216578   2.233   7.093   1.769 -0.5975 -2.1371 -0.3506
 5224SOL     OW16579   7.307   1.919   1.619  0.4042 -0.7104 -0.7153
 5224SOL    HW116580   7.350   1.971   1.551  0.4522  0.3479  0.0984
 5224SOL    HW216581   7.369   1.849   1.639  1.8753  0.8745  0.5373
 5225SOL     OW16582   5.983   7.000   0.806  0.0395 -0.9933 -0.3825
 5225SOL    HW116583   6.033   6.964   0.733  1.2725 -0.1560  0.0275
 5225SOL    HW216584   6.035   7.073   0.838 -1.6879  0.2575 -0.2602
 5226SOL     OW16585   1.214   3.252   2.700  0.1679 -0.1824 -0.4801
 5226SOL    HW116586   1.233   3.286   2.612 -0.3645  2.0208  0.1840
 5226SOL    HW216587   1.119   3.259   2.707  0.1347 -1.1085 -0.0119
 5227SOL     OW16588   7.172   0.697   4.961 -0.1662 -0.0720 -0.1787
 5227SOL    HW116589   7.223   0.736   5.032 -2.1630  1.1925  0.6541
 5227SOL    HW216590   7.192   0.751   4.885 -0.7683  0.8789  0.3153
 5228SOL     OW16591   3.936   0.906   6.555  0.1933  0.3138  0.0814
 5228SOL    HW116592   3.925   0.864   6.469 -0.6798 -0.1247  0.3955
 5228SOL    HW216593   4.003   0.973   6.540 -0.7474  1.0234 -1.2351
 5229SOL     OW16594   1.917   7.648   0.243 -0.3318  0.0262 -0.3255
 5229SOL    HW116595   1.830   7.614   0.262 -0.2105 -0.5042 -0.6655
 5229SOL    HW216596   1.972   7.614   0.314 -0.4406  0.5355  0.0037
 5230SOL     OW16597   5.347   7.738   4.679 -0.1877  0.0447  0.0952
 5230SOL    HW116598   5.260   7.777   4.686  0.1723  0.8511  0.2496
 5230SOL    HW216599   5.402   7.809   4.644  0.7531  0.0758  1.5570
 5231SOL     OW16600   3.392   4.066   0.536  0.1954  0.2191  0.1076
 5231SOL    HW116601   3.403   4.161   0.529  0.3006  0.3283  1.4572
 5231SOL    HW216602   3.297   4.052   0.537  0.1793  0.3590  0.4700
 5232SOL     OW16603   2.504   5.960   6.001 -0.3327  0.6330 -0.3035
 5232SOL    HW116604   2.417   5.970   6.040 -0.1760  1.3253 -0.1188
 5232SOL    HW216605   2.530   6.050   5.978  0.2242  0.4002 -0.5907
 5233SOL     OW16606   6.251   4.823   2.230 -0.0912  0.5458  0.0347
 5233SOL    HW116607   6.305   4.758   2.275 -2.8701 -0.5591  2.0797
 5233SOL    HW216608   6.217   4.879   2.301 -1.9766  0.8449 -1.0349
 5234SOL     OW16609   6.172   0.204   7.602 -0.3197 -0.1326  0.2552
 5234SOL    HW116610   6.077   0.211   7.614 -0.4673 -2.1583  0.5957
 5234SOL    HW216611   6.195   0.119   7.639  1.6316  0.2629  0.0732
 5235SOL     OW16612   6.103   6.416   2.844 -0.0544 -0.1456 -0.5410
 5235SOL    HW116613   6.078   6.332   2.806 -0.5290 -0.4029  0.3199
 5235SOL    HW216614   6.044   6.479   2.803 -1.7192 -0.6524  0.9453
 5236SOL     OW16615   5.507   3.866   1.280 -0.6734  0.1957 -0.1484
 5236SOL    HW116616   5.572   3.831   1.341 -1.9634 -1.7545  0.2093
 5236SOL    HW216617   5.483   3.951   1.317  0.7338  0.3969  0.3795
 5237SOL     OW16618   4.071   4.410   6.466 -0.3156  0.0939  0.0938
 5237SOL    HW116619   3.997   4.353   6.445 -0.6047 -0.2455  1.8654
 5237SOL    HW216620   4.037   4.499   6.456 -0.8249 -0.0601  0.4292
 5238SOL     OW16621   5.691   2.033   6.763  0.6539 -0.0378 -0.6065
 5238SOL    HW116622   5.665   2.112   6.809  1.1732 -0.2050 -0.0165
 5238SOL    HW216623   5.613   1.977   6.763  0.1546  0.6256 -1.3920
 5239SOL     OW16624   2.220   0.064   3.852  0.0106 -0.6710  0.1516
 5239SOL    HW116625   2.294   0.122   3.871  0.9758 -1.8428  0.1284
 5239SOL    HW216626   2.180   0.100   3.774  0.2711  0.2485  0.4303
 5240SOL     OW16627   2.485   2.158   0.750  0.4953  0.3757  0.1750
 5240SOL    HW116628   2.485   2.251   0.727 -1.1997 -0.3267 -3.3233
 5240SOL    HW216629   2.400   2.126   0.721  1.1932 -2.3888  0.8740
 5241SOL     OW16630   2.409   3.805   2.630  0.6715  0.3808 -0.1328
 5241SOL    HW116631   2.471   3.865   2.589  1.7870 -1.0373 -0.6156
 5241SOL    HW216632   2.378   3.852   2.708  1.7097  1.4623 -0.3449
 5242SOL     OW16633   2.485   0.975   6.718  0.4238 -0.1421 -0.2970
 5242SOL    HW116634   2.478   0.910   6.647  1.6718  0.4162 -0.9567
 5242SOL    HW216635   2.571   0.960   6.756  1.8401  2.6238 -2.0410
 5243SOL     OW16636   3.941   4.355   3.030 -0.3365 -0.3571 -0.0977
 5243SOL    HW116637   4.016   4.354   3.088  0.7192 -0.6488 -1.4158
 5243SOL    HW216638   3.965   4.416   2.960 -2.2495  1.2956  0.5925
 5244SOL     OW16639   3.433   2.163   2.654  0.8410  0.0358 -0.0755
 5244SOL    HW116640   3.367   2.102   2.623  0.0965  0.7544  0.0759
 5244SOL    HW216641   3.511   2.143   2.602  0.1820 -0.0754 -1.0274
 5245SOL     OW16642   2.723   3.550   1.249 -0.5408  0.0468  0.1004
 5245SOL    HW116643   2.754   3.465   1.217  2.2864  0.8790  0.2764
 5245SOL    HW216644   2.740   3.610   1.177 -0.6812  0.7819  0.6667
 5246SOL     OW16645   3.536   0.797   2.836 -0.1662 -0.2626  0.0972
 5246SOL    HW116646   3.582   0.839   2.909 -2.1207  0.2728  1.0894
 5246SOL    HW216647   3.535   0.704   2.859 -1.1349 -0.0501  1.0138
 5247SOL     OW16648   5.098   0.333   5.525 -0.1064  0.7320 -0.2523
 5247SOL    HW116649   5.060   0.382   5.452  0.1039  0.0916 -0.7947
 5247SOL    HW216650   5.086   0.241   5.502  2.2313  0.4872 -0.6962
 5248SOL     OW16651   6.913   4.942   2.755 -0.0568 -0.3430 -0.3589
 5248SOL    HW116652   6.868   5.026   2.761  2.2115  1.0106 -0.8888
 5248SOL    HW216653   6.886   4.894   2.833 -0.9721  1.1089  0.2482
 5249SOL     OW16654   2.287   6.071   6.176  0.0672 -0.1022  0.3408
 5249SOL    HW116655   2.194   6.072   6.152  0.1854 -0.1754 -0.1231
 5249SOL    HW216656   2.312   6.163   6.178 -0.0365 -0.0783  0.5503
 5250SOL     OW16657   3.687   4.374   3.162 -0.4315  0.0177 -0.1059
 5250SOL    HW116658   3.638   4.302   3.122  1.7650 -2.2024  0.9013
 5250SOL    HW216659   3.772   4.372   3.118 -0.3832  2.2786 -0.2570
 5251SOL     OW16660   5.365   1.068   7.033 -0.2600  0.3793  0.4563
 5251SOL    HW116661   5.302   1.069   7.105 -0.8284  0.7690 -0.0378
 5251SOL    HW216662   5.438   1.016   7.066 -0.6998  0.1918  1.1555
 5252SOL     OW16663   2.302   4.833   5.610 -0.0215 -0.1223 -0.3885
 5252SOL    HW116664   2.250   4.899   5.565 -0.9560 -0.1457  0.6070
 5252SOL    HW216665   2.271   4.836   5.701 -1.4967 -3.2097 -0.6481
 5253SOL     OW16666   7.207   2.432   5.409 -0.1153  0.2270  0.4793
 5253SOL    HW116667   7.237   2.349   5.445 -0.2109  0.0154  0.0633
 5253SOL    HW216668   7.175   2.412   5.321  0.7062  0.8434  0.0192
 5254SOL     OW16669   3.462   5.715   5.990 -0.3033 -0.5302 -0.2792
 5254SOL    HW116670   3.544   5.708   5.942 -0.5222  0.6465 -0.8647
 5254SOL    HW216671   3.445   5.627   6.022 -0.4895 -1.5355 -2.9504
 5255SOL     OW16672   3.587   7.471   4.041 -0.2800 -0.6039  0.4529
 5255SOL    HW116673   3.534   7.549   4.054 -1.1454 -1.1776  0.4487
 5255SOL    HW216674   3.623   7.480   3.953 -0.2315 -0.1221  0.5240
 5256SOL     OW16675   6.459   5.212   5.501 -0.0861  0.5189 -0.1228
 5256SOL    HW116676   6.424   5.277   5.562  0.6095  0.3096  0.5158
 5256SOL    HW216677   6.466   5.131   5.552 -1.0996 -0.1126 -0.9588
 5257SOL     OW16678   3.636   3.308   0.314  0.1994  0.1883  0.0327
 5257SOL    HW116679   3.621   3.335   0.223 -1.4258 -0.6751  0.0209
 5257SOL    HW216680   3.554   3.327   0.359  0.7230 -0.1205  1.1467
 5258SOL     OW16681   2.923   7.607   5.409 -0.0819  0.2877 -0.4356
 5258SOL    HW116682   2.973   7.669   5.356  1.8868  0.2353  1.2141
 5258SOL    HW216683   2.834   7.641   5.409  0.2181  1.1686 -2.3885
 5259SOL     OW16684   0.711   1.942   7.346  0.2611 -0.1974 -0.0142
 5259SOL    HW116685   0.665   2.005   7.401  1.8658  0.2442  0.9010
 5259SOL    HW216686   0.683   1.962   7.257 -0.7345  0.5124  0.4440
 5260SOL     OW16687   4.911   5.112   4.719 -0.4321 -0.2805 -0.1851
 5260SOL    HW116688   4.920   5.017   4.707  0.5312 -0.2028 -0.1624
 5260SOL    HW216689   4.835   5.122   4.776 -0.8614 -1.0116 -0.6135
 5261SOL     OW16690   1.673   7.359   6.496  0.5358 -0.4566 -0.7486
 5261SOL    HW116691   1.666   7.455   6.496  1.3594 -0.3862 -0.5797
 5261SOL    HW216692   1.586   7.328   6.470 -0.1648  0.2946  0.5982
 5262SOL     OW16693   4.015   5.132   0.406 -0.3816 -0.4375 -0.0029
 5262SOL    HW116694   3.975   5.188   0.340  1.1299 -1.1008 -1.5694
 5262SOL    HW216695   4.076   5.190   0.453 -1.4404  0.0279  0.8305
 5263SOL     OW16696   0.566   4.831   2.229 -0.1218  0.3117 -0.0039
 5263SOL    HW116697   0.583   4.745   2.190 -2.2065 -0.4679  0.6678
 5263SOL    HW216698   0.525   4.881   2.158 -0.5183  0.1405  0.0999
 5264SOL     OW16699   7.559   5.174   3.727 -0.2482  0.3956 -0.7519
 5264SOL    HW116700   7.641   5.220   3.744  0.4988 -0.5284 -1.6907
 5264SOL    HW216701   7.490   5.234   3.756  0.7505  1.3180 -0.2604
 5265SOL     OW16702   0.171   1.604   1.105 -0.5815  0.1869  0.2875
 5265SOL    HW116703   0.157   1.690   1.064  0.6834 -0.4560 -1.6196
 5265SOL    HW216704   0.266   1.597   1.114 -0.7762  0.4103  3.7752
 5266SOL     OW16705   0.798   7.081   1.122 -0.7004  0.0072 -0.0707
 5266SOL    HW116706   0.891   7.097   1.140 -0.9367 -0.0920  1.4119
 5266SOL    HW216707   0.760   7.169   1.114 -0.6576  0.0714  0.3978
 5267SOL     OW16708   6.588   3.449   6.955  0.1271  0.0704 -0.1768
 5267SOL    HW116709   6.517   3.461   7.017  2.1430 -1.0000  2.5629
 5267SOL    HW216710   6.591   3.355   6.939  1.3417 -0.0068  0.3713
 5268SOL     OW16711   6.100   0.456   6.036 -0.1068 -0.3752  0.5244
 5268SOL    HW116712   6.009   0.451   6.007  0.2534 -0.2671 -0.7122
 5268SOL    HW216713   6.120   0.550   6.035 -0.0078 -0.3940  0.8659
 5269SOL     OW16714   0.026   5.309   1.940  0.6005  0.2795  0.1388
 5269SOL    HW116715  -0.027   5.347   1.870 -0.0997 -1.2078 -0.1675
 5269SOL    HW216716   0.116   5.327   1.913  0.3081  0.8565 -0.4892
 5270SOL     OW16717   0.791   3.322   7.076  0.3411  0.3759 -0.3019
 5270SOL    HW116718   0.777   3.351   6.986 -0.6743 -0.3259 -0.3907
 5270SOL    HW216719   0.710   3.276   7.100  0.7579  0.1766  0.8213
 5271SOL     OW16720   5.229   1.453   4.862 -0.5738 -0.2064  0.7025
 5271SOL    HW116721   5.202   1.394   4.791 -1.1161 -3.1197  3.1330
 5271SOL    HW216722   5.153   1.509   4.877 -0.8751 -0.3467 -0.2349
 5272SOL     OW16723   4.726   5.388   5.532 -0.0873  0.3197  0.4464
 5272SOL    HW116724   4.796   5.336   5.493 -0.6194 -0.5461  0.6193
 5272SOL    HW216725   4.712   5.349   5.618  0.3142  1.5119  1.0802
 5273SOL     OW16726   7.249   7.682   3.741 -0.0433 -0.3322  0.1019
 5273SOL    HW116727   7.198   7.605   3.717  0.8855 -1.0514  0.3763
 5273SOL    HW216728   7.184   7.753   3.747 -0.6548 -0.5828 -2.2282
 5274SOL     OW16729   1.890   0.617   7.707 -0.8033 -0.0355 -0.2803
 5274SOL    HW116730   1.867   0.674   7.633 -0.0440  0.9043  0.1764
 5274SOL    HW216731   1.893   0.529   7.670 -2.4354  0.1474 -0.9185
 5275SOL     OW16732   1.206   5.461   2.277  0.2368  0.3442  0.7440
 5275SOL    HW116733   1.160   5.458   2.193 -0.3135 -2.6428  1.0315
 5275SOL    HW216734   1.237   5.551   2.284 -0.6244  0.9849 -2.1432
 5276SOL     OW16735   7.518   4.328   1.342 -0.0922 -0.4380  0.0805
 5276SOL    HW116736   7.488   4.264   1.277 -1.1617 -0.1467  0.2749
 5276SOL    HW216737   7.465   4.406   1.325 -1.4723 -0.8289  2.2373
 5277SOL     OW16738   5.310   5.021   3.363 -0.0692  0.1084 -0.1001
 5277SOL    HW116739   5.394   5.038   3.406 -0.5424  0.1739  0.8128
 5277SOL    HW216740   5.334   4.989   3.276  0.8826  2.3147 -0.7121
 5278SOL     OW16741   1.054   7.728   3.696 -0.2413  0.2641  0.0379
 5278SOL    HW116742   1.049   7.689   3.609  0.1365 -0.9133  0.5162
 5278SOL    HW216743   1.147   7.721   3.719  0.0128  2.3462 -0.2376
 5279SOL     OW16744   2.593   5.924   7.330 -0.1521 -0.1451 -0.3764
 5279SOL    HW116745   2.514   5.915   7.382  1.2917  0.1253  2.0229
 5279SOL    HW216746   2.595   6.016   7.303 -0.6278 -0.1550 -0.4492
 5280SOL     OW16747   5.211   2.852   0.493  0.2924  0.1087 -0.4919
 5280SOL    HW116748   5.227   2.817   0.406  1.0628  1.8796 -1.0933
 5280SOL    HW216749   5.265   2.798   0.551  1.1708  0.0577 -1.3359
 5281SOL     OW16750   5.826   0.295   7.691  0.7344 -0.0358  0.1704
 5281SOL    HW116751   5.844   0.230   7.624 -1.3041 -0.3003 -0.1716
 5281SOL    HW216752   5.731   0.306   7.690  0.8714  1.7281  1.3664
 5282SOL     OW16753   3.454   4.325   7.045 -0.1158 -0.8224  0.0453
 5282SOL    HW116754   3.457   4.237   7.080 -0.4232 -0.4862  0.9466
 5282SOL    HW216755   3.404   4.317   6.963 -2.0599 -1.1460  1.2053
 5283SOL     OW16756   3.892   0.901   7.084 -0.4278 -0.5626  0.4960
 5283SOL    HW116757   3.889   0.832   7.019  0.6838 -1.2456  1.1324
 5283SOL    HW216758   3.959   0.962   7.052 -0.4937 -0.4479  0.5725
 5284SOL     OW16759   4.697   0.464   3.725  0.2433 -0.0032  0.1595
 5284SOL    HW116760   4.696   0.558   3.746  0.4426 -0.2120  1.1382
 5284SOL    HW216761   4.608   0.434   3.746  0.6001 -0.3256  1.3108
 5285SOL     OW16762   1.228   5.459   1.375  0.0041 -0.0313 -0.0167
 5285SOL    HW116763   1.243   5.364   1.372  1.7269  0.2234 -0.4631
 5285SOL    HW216764   1.256   5.485   1.463  2.9359  0.5254 -1.0220
 5286SOL     OW16765   1.845   1.943   5.536  0.5989 -0.4305 -0.1486
 5286SOL    HW116766   1.862   2.037   5.540 -0.2579 -0.3027  1.5293
 5286SOL    HW216767   1.916   1.908   5.483  1.4328  1.0555 -0.0681
 5287SOL     OW16768   5.999   1.904   6.466 -0.1197 -0.0734 -0.5116
 5287SOL    HW116769   6.080   1.921   6.417  1.2400  2.2586  2.2330
 5287SOL    HW216770   5.935   1.964   6.428  0.3191  0.2573 -0.7360
 5288SOL     OW16771   7.452   3.098   2.494  0.2716  0.3799  0.1570
 5288SOL    HW116772   7.374   3.049   2.471 -0.3133  0.1696  2.3488
 5288SOL    HW216773   7.525   3.039   2.474 -0.2115 -0.0229 -0.4342
 5289SOL     OW16774   7.362   0.592   6.876 -0.6164 -0.1455  0.1291
 5289SOL    HW116775   7.371   0.591   6.780  0.0112  0.2297  0.1833
 5289SOL    HW216776   7.280   0.545   6.892 -0.7028 -0.2568 -0.5906
 5290SOL     OW16777   4.803   7.313   2.819 -0.2754  0.2532 -0.3816
 5290SOL    HW116778   4.772   7.357   2.739 -1.7500  1.6482  0.8933
 5290SOL    HW216779   4.726   7.267   2.852 -0.4681  1.8588  1.6079
 5291SOL     OW16780   4.661   5.735   5.727  0.2516 -0.1205  0.4419
 5291SOL    HW116781   4.641   5.698   5.813 -0.4992  0.6971  0.6388
 5291SOL    HW216782   4.726   5.803   5.746 -0.2449  0.3661  0.4424
 5292SOL     OW16783   3.671   4.972   3.006  0.1819 -0.4900 -0.0264
 5292SOL    HW116784   3.582   4.941   2.991 -0.7794  1.4889  1.1921
 5292SOL    HW216785   3.723   4.892   3.016 -1.5279 -1.6850 -0.2555
 5293SOL     OW16786   5.360   0.024   2.777 -0.1334 -0.1398 -0.1882
 5293SOL    HW116787   5.385   0.112   2.807 -0.2753  0.4955 -1.8088
 5293SOL    HW216788   5.306   0.040   2.699 -2.9282 -1.5582  1.2859
 5294SOL     OW16789   6.844   4.210   1.709  0.2552  0.2177  0.1991
 5294SOL    HW116790   6.815   4.301   1.704  0.2950  0.2151 -0.0731
 5294SOL    HW216791   6.779   4.161   1.658  0.6806  0.1993 -0.3330
 5295SOL     OW16792   0.260   6.457   6.840 -0.5073 -0.1773  0.3102
 5295SOL    HW116793   0.306   6.523   6.789 -0.7901 -0.1646  0.0703
 5295SOL    HW216794   0.203   6.508   6.898 -0.6781 -0.2074  0.1700
 5296SOL     OW16795   1.704   0.712   1.731 -0.5107 -0.1086 -0.1238
 5296SOL    HW116796   1.615   0.723   1.698 -0.0928  0.0702 -1.2229
 5296SOL    HW216797   1.756   0.691   1.654  0.3831 -0.3360  0.5254
 5297SOL     OW16798   1.831   3.189   3.973  0.2004 -0.1763 -0.4633
 5297SOL    HW116799   1.874   3.240   3.905  0.5200  0.0993 -0.0536
 5297SOL    HW216800   1.877   3.105   3.973  0.4201 -0.0548 -0.3542
 5298SOL     OW16801   6.310   2.473   4.406  0.2039  0.3047  0.4770
 5298SOL    HW116802   6.384   2.473   4.345  0.3249  0.1783  0.6237
 5298SOL    HW216803   6.271   2.560   4.396 -1.4717 -0.6052 -1.8278
 5299SOL     OW16804   2.986   2.062   4.351  0.9070 -0.3845 -0.5104
 5299SOL    HW116805   2.932   2.039   4.275  0.0093  0.1865 -0.0614
 5299SOL    HW216806   2.973   2.156   4.362 -0.5961 -0.7537  1.5294
 5300SOL     OW16807   1.076   3.993   4.620  0.1987  0.1809  0.3636
 5300SOL    HW116808   1.071   4.087   4.636 -1.8814 -0.1647  2.2869
 5300SOL    HW216809   1.021   3.979   4.542 -1.1251  0.3972  1.2225
 5301SOL     OW16810   2.357   3.730   5.345  0.0957 -0.7574  0.0446
 5301SOL    HW116811   2.426   3.777   5.300 -0.2831 -0.5966 -0.3738
 5301SOL    HW216812   2.367   3.639   5.317 -2.1626 -0.2009 -3.0645
 5302SOL     OW16813   3.437   1.530   2.802  0.5941 -0.0467  0.1857
 5302SOL    HW116814   3.455   1.497   2.890 -1.2714  0.9636  1.0073
 5302SOL    HW216815   3.505   1.595   2.786  1.2129 -0.5555  0.6711
 5303SOL     OW16816   7.716   1.969   2.690  0.4389 -0.1137 -0.0614
 5303SOL    HW116817   7.683   1.932   2.608 -0.7077 -1.3420  0.9057
 5303SOL    HW216818   7.792   2.021   2.664  0.4581 -0.9437 -1.8284
 5304SOL     OW16819   7.092   0.108   3.877  0.0570  0.4438 -0.2900
 5304SOL    HW116820   7.123   0.197   3.890 -0.8134  0.6579  0.4063
 5304SOL    HW216821   7.005   0.107   3.917 -0.2228 -0.5313 -0.8917
 5305SOL     OW16822   1.240   5.837   6.053 -0.6925 -0.7274  0.5444
 5305SOL    HW116823   1.258   5.903   6.120 -0.2073 -1.0644  0.7520
 5305SOL    HW216824   1.149   5.853   6.027  0.0337  1.4001 -0.9611
 5306SOL     OW16825   1.601   0.059   1.753 -0.1311  0.1811  0.2138
 5306SOL    HW116826   1.692   0.029   1.758  0.2842  1.3639  0.3476
 5306SOL    HW216827   1.549  -0.017   1.774  0.8277 -0.5891 -0.1086
 5307SOL     OW16828   6.394   6.604   0.157  0.4086  0.2425 -0.0430
 5307SOL    HW116829   6.393   6.534   0.221 -0.2070 -2.0260 -2.3737
 5307SOL    HW216830   6.486   6.613   0.132  0.3905 -0.2678 -0.2921
 5308SOL     OW16831   2.466   0.794   4.277 -0.0191 -0.4200  0.1594
 5308SOL    HW116832   2.377   0.777   4.310 -0.0752  0.0720  0.2714
 5308SOL    HW216833   2.452   0.823   4.186  0.1309 -1.7090 -0.2892
 5309SOL     OW16834   0.733   7.582   4.243  0.0884  0.0829 -0.1859
 5309SOL    HW116835   0.650   7.534   4.244 -0.9048  1.6012 -2.2501
 5309SOL    HW216836   0.752   7.599   4.335 -1.5866 -0.7996  0.3681
 5310SOL     OW16837   1.985   7.623   1.383 -0.3027  0.1155  0.3341
 5310SOL    HW116838   1.934   7.635   1.463 -0.6028 -2.6409  0.6347
 5310SOL    HW216839   2.072   7.657   1.404 -0.7766  0.7795  1.3101
 5311SOL     OW16840   6.713   5.287   7.064  0.3069  0.3881  0.0140
 5311SOL    HW116841   6.676   5.293   7.152  1.3425  2.1135  0.3746
 5311SOL    HW216842   6.748   5.198   7.058  0.2315  0.2543  1.3474
 5312SOL     OW16843   3.335   0.676   1.162 -0.1059  0.1848 -0.5235
 5312SOL    HW116844   3.318   0.770   1.161 -0.3691  0.1355 -0.7001
 5312SOL    HW216845   3.424   0.668   1.197 -0.9526  0.3720  1.8221
 5313SOL     OW16846   5.030   3.603   6.153  0.2226 -0.0472  0.2521
 5313SOL    HW116847   5.095   3.544   6.114 -0.9352 -1.2345  0.0479
 5313SOL    HW216848   4.970   3.624   6.081 -0.4607 -0.1631  0.7753
 5314SOL     OW16849   1.142   5.551   4.479 -0.0971  0.1629 -0.2226
 5314SOL    HW116850   1.164   5.564   4.571  0.5949 -0.3602 -0.3062
 5314SOL    HW216851   1.048   5.570   4.473  0.2349  2.1313  0.2056
 5315SOL     OW16852   1.749   0.706   0.473 -0.5330 -0.3963 -0.2768
 5315SOL    HW116853   1.780   0.668   0.556 -2.4340 -2.6303 -0.4918
 5315SOL    HW216854   1.695   0.780   0.499  0.2002 -0.0727  0.3752
 5316SOL     OW16855   2.975   4.690   1.094 -0.2692  0.2271  0.5259
 5316SOL    HW116856   2.957   4.675   1.187  1.4332  0.9444  1.0096
 5316SOL    HW216857   2.998   4.782   1.089  0.0349  0.1016 -0.5558
 5317SOL     OW16858   0.501   6.164   0.373 -0.0735 -0.5424  0.2301
 5317SOL    HW116859   0.452   6.150   0.454 -0.5487  0.8665  0.2121
 5317SOL    HW216860   0.588   6.193   0.403 -0.7012  1.4564  0.2900
 5318SOL     OW16861   0.560   5.617   6.474 -0.5069  0.2890 -0.2445
 5318SOL    HW116862   0.644   5.639   6.433  0.8242 -0.4048  1.9737
 5318SOL    HW216863   0.577   5.535   6.521 -1.6834  1.4007  2.2764
 5319SOL     OW16864   3.404   6.837   1.435  0.1439  0.2842  0.8295
 5319SOL    HW116865   3.490   6.878   1.430  0.2036  0.0600  0.0171
 5319SOL    HW216866   3.404   6.772   1.365 -0.3777 -0.3035  1.3662
 5320SOL     OW16867   2.614   1.710   0.839 -0.1006  0.2262 -0.9093
 5320SOL    HW116868   2.639   1.704   0.931 -0.0097  1.8653 -0.7997
 5320SOL    HW216869   2.524   1.742   0.841 -0.0793  0.3231 -1.3999
 5321SOL     OW16870   4.979   3.061   1.619  0.3850  0.3604 -0.1245
 5321SOL    HW116871   4.937   2.978   1.642 -0.8288  1.0735  0.3239
 5321SOL    HW216872   5.027   3.042   1.538  0.7268 -0.9496  0.3580
 5322SOL     OW16873   5.669   1.124   1.396 -0.1013 -0.5137  0.1184
 5322SOL    HW116874   5.704   1.125   1.485 -0.3068  0.0298  0.1973
 5322SOL    HW216875   5.600   1.190   1.397 -0.0191 -0.4151 -0.4803
 5323SOL     OW16876   4.613   0.881   5.016 -0.5304  0.4389  0.7208
 5323SOL    HW116877   4.547   0.819   5.047  0.8001 -1.4080  0.0423
 5323SOL    HW216878   4.583   0.908   4.930  0.0541 -1.2097 -0.0384
 5324SOL     OW16879   3.315   3.997   1.598  0.7238 -0.0233 -0.5940
 5324SOL    HW116880   3.334   4.046   1.678  1.9797  0.0066 -0.8900
 5324SOL    HW216881   3.251   4.050   1.552 -0.9054 -0.5982  0.9117
 5325SOL     OW16882   3.156   6.966   1.797 -0.2073 -0.6297 -0.1009
 5325SOL    HW116883   3.153   6.885   1.746  1.1898 -0.6537 -0.1710
 5325SOL    HW216884   3.168   7.035   1.732  0.9735 -0.6017  0.1321
 5326SOL     OW16885   6.817   1.646   6.100  0.2534 -0.7031  0.2258
 5326SOL    HW116886   6.835   1.690   6.184  0.1881 -2.2998  1.1097
 5326SOL    HW216887   6.791   1.558   6.124 -3.0437 -0.3039 -1.3220
 5327SOL     OW16888   7.387   2.629   3.778 -0.1070 -0.2642 -0.4669
 5327SOL    HW116889   7.395   2.612   3.684  1.2662  0.5165 -0.5109
 5327SOL    HW216890   7.296   2.654   3.791 -0.4586 -0.9651 -1.4832
 5328SOL     OW16891   3.572   3.191   4.145 -0.5594 -0.3633  0.7121
 5328SOL    HW116892   3.533   3.254   4.206 -1.7753 -0.0916 -0.3155
 5328SOL    HW216893   3.625   3.245   4.086 -0.0962 -0.5253  0.9763
 5329SOL     OW16894   6.129   2.702   4.006 -0.2284 -0.2453  0.1328
 5329SOL    HW116895   6.058   2.643   3.980  0.6487 -1.9042  1.3233
 5329SOL    HW216896   6.106   2.729   4.095 -0.1013  0.3975 -0.0253
 5330SOL     OW16897   5.792   1.524   2.757  0.1199  0.1418 -0.1235
 5330SOL    HW116898   5.843   1.586   2.808 -1.2927  0.9473  0.3750
 5330SOL    HW216899   5.854   1.488   2.693  1.4337  0.5942  0.8588
 5331SOL     OW16900   2.510   4.779   2.439 -0.0860  0.1155  0.5867
 5331SOL    HW116901   2.497   4.720   2.365  1.7194  0.8380 -0.3621
 5331SOL    HW216902   2.553   4.726   2.506 -0.8710 -0.2989  0.7732
 5332SOL     OW16903   1.599   2.784   6.584 -0.3223 -0.0902  0.2450
 5332SOL    HW116904   1.651   2.855   6.622  0.7957 -0.7413 -0.0061
 5332SOL    HW216905   1.572   2.816   6.499 -1.3385  0.6979  0.8409
 5333SOL     OW16906   2.617   4.879   2.018 -0.3177 -0.3884 -0.6944
 5333SOL    HW116907   2.634   4.797   1.972  0.2367  0.3010 -1.7558
 5333SOL    HW216908   2.601   4.853   2.109 -0.4443 -1.6862 -1.0753
 5334SOL     OW16909   0.651   5.959   6.348  0.0028 -0.9291  0.1794
 5334SOL    HW116910   0.686   6.041   6.381  0.3427 -0.4331 -1.3228
 5334SOL    HW216911   0.556   5.971   6.348  0.0948  0.1316 -1.5669
 5335SOL     OW16912   5.308   4.982   7.000 -0.0064  0.1662 -0.0689
 5335SOL    HW116913   5.316   4.906   6.941  0.9814  0.1602  0.0548
 5335SOL    HW216914   5.329   4.947   7.086  0.9996  0.6812 -0.0919
 5336SOL     OW16915   0.828   0.965   0.241  0.0622 -0.0905 -0.3602
 5336SOL    HW116916   0.812   1.021   0.164  4.5647  0.2440 -1.3784
 5336SOL    HW216917   0.816   1.024   0.316  2.8635  1.9596 -1.3308
 5337SOL     OW16918   1.140   7.087   3.775  0.0174 -0.8531 -0.5361
 5337SOL    HW116919   1.174   7.176   3.788  0.4912 -0.8131 -1.8772
 5337SOL    HW216920   1.147   7.046   3.861 -1.4320  0.8063  0.4473
 5338SOL     OW16921   0.900   0.121   5.462 -0.1456 -0.1284 -0.0722
 5338SOL    HW116922   0.946   0.160   5.536 -3.1455  0.6754  1.5213
 5338SOL    HW216923   0.948   0.040   5.443  1.3808  0.2288  1.9664
 5339SOL     OW16924   3.653   0.586   2.575 -0.3099 -0.0862 -0.6684
 5339SOL    HW116925   3.600   0.525   2.524  0.2816 -0.5580 -0.7346
 5339SOL    HW216926   3.743   0.565   2.551  0.0163 -0.6422  0.9179
 5340SOL     OW16927   6.278   2.837   1.934 -0.0517 -0.2420  0.2078
 5340SOL    HW116928   6.228   2.771   1.887  0.7365 -0.3818 -0.4510
 5340SOL    HW216929   6.270   2.916   1.881 -1.5152  0.4094  1.3066
 5341SOL     OW16930   5.960   1.034   1.625 -0.0398 -0.6554 -0.3726
 5341SOL    HW116931   5.964   1.073   1.538  2.0482  4.1206  1.5359
 5341SOL    HW216932   5.890   1.081   1.670 -2.0993 -4.0423  0.3325
 5342SOL     OW16933   6.555   7.470   4.807 -0.5090 -0.1774 -0.3699
 5342SOL    HW116934   6.582   7.514   4.887  1.7555 -1.9312 -0.0581
 5342SOL    HW216935   6.558   7.539   4.740 -1.7035  1.1400  0.8751
 5343SOL     OW16936   2.864   7.671   3.872  0.2498 -0.5648 -0.1027
 5343SOL    HW116937   2.864   7.707   3.784  1.5673  0.5807  0.3315
 5343SOL    HW216938   2.806   7.729   3.922 -0.3180 -1.0804 -0.1465
 5344SOL     OW16939   2.861   6.095   1.153 -0.4215  0.1806 -0.1867
 5344SOL    HW116940   2.865   6.174   1.100 -0.9462 -1.1095 -2.2528
 5344SOL    HW216941   2.949   6.084   1.187  0.1772  0.5719 -1.5571
 5345SOL     OW16942   4.591   4.621   3.301 -0.3148 -0.2436  0.4945
 5345SOL    HW116943   4.653   4.630   3.372  0.6972 -0.4178 -0.3456
 5345SOL    HW216944   4.568   4.528   3.301 -0.2063 -0.2704  0.5017
 5346SOL     OW16945   5.836   3.842   6.395 -0.3342  0.1460 -0.0098
 5346SOL    HW116946   5.848   3.867   6.303  1.6824 -2.2968 -0.5183
 5346SOL    HW216947   5.873   3.915   6.445  1.4399  0.1703 -1.2648
 5347SOL     OW16948   6.574   3.018   3.280 -0.1924 -0.6656  0.0459
 5347SOL    HW116949   6.595   3.105   3.248 -0.2158  0.3060  2.4543
 5347SOL    HW216950   6.636   2.960   3.236 -0.1740  0.5397 -1.5780
 5348SOL     OW16951   6.759   7.681   4.722  0.7188  0.1555 -0.4943
 5348SOL    HW116952   6.845   7.694   4.760  1.1198 -2.8187 -0.1766
 5348SOL    HW216953   6.698   7.721   4.784  1.6264 -1.3223  1.4256
 5349SOL     OW16954   5.333   2.511   4.130  0.2973  0.4473  0.6825
 5349SOL    HW116955   5.398   2.460   4.180  0.4432  0.7716  0.8253
 5349SOL    HW216956   5.383   2.583   4.093 -0.2180  1.4693  1.8890
 5350SOL     OW16957   1.478   0.265   1.870 -0.0792  0.2147 -0.2140
 5350SOL    HW116958   1.463   0.307   1.786 -3.0473 -0.2898 -0.0383
 5350SOL    HW216959   1.544   0.197   1.852 -1.7803 -0.9396 -2.5419
 5351SOL     OW16960   0.379   7.537   6.717 -0.6131 -0.3447 -0.0559
 5351SOL    HW116961   0.287   7.537   6.689 -0.4057 -1.3491 -0.8049
 5351SOL    HW216962   0.417   7.461   6.673  0.1966 -0.8846  1.4998
 5352SOL     OW16963   4.600   6.824   5.598  0.1237 -0.3586 -0.3823
 5352SOL    HW116964   4.545   6.794   5.525  1.2028 -2.2246 -0.4848
 5352SOL    HW216965   4.582   6.762   5.668  1.7425 -0.7479 -0.2778
 5353SOL     OW16966   5.910   4.962   3.800  0.0968  0.2033 -0.0755
 5353SOL    HW116967   5.947   4.967   3.888  1.9032  0.9687 -0.8184
 5353SOL    HW216968   5.961   5.026   3.750  0.3408 -1.4811 -2.0958
 5354SOL     OW16969   0.073   3.540   2.821 -0.7095 -0.1609 -0.3161
 5354SOL    HW116970   0.117   3.593   2.887 -0.4854 -0.3817 -0.2869
 5354SOL    HW216971   0.058   3.455   2.864 -2.1999  0.2706  0.0744
 5355SOL     OW16972   2.011   5.525   1.843 -0.0317 -0.0916  0.2085
 5355SOL    HW116973   2.058   5.482   1.915  0.1031 -0.9594 -0.3890
 5355SOL    HW216974   2.073   5.589   1.809  0.9357 -1.5520 -0.8836
 5356SOL     OW16975   5.508   5.730   6.731 -0.4005 -0.6683 -0.5066
 5356SOL    HW116976   5.524   5.744   6.637 -2.0047  0.6334 -0.6367
 5356SOL    HW216977   5.424   5.683   6.733 -0.6444 -0.1983  0.2917
 5357SOL     OW16978   2.390   6.374   3.953  0.2682 -0.2611  0.4937
 5357SOL    HW116979   2.476   6.340   3.927 -0.0065 -1.7585  1.4818
 5357SOL    HW216980   2.333   6.297   3.956 -0.0189 -0.0934  4.2741
 5358SOL     OW16981   2.243   1.003   4.463 -0.2624  0.0762  0.0533
 5358SOL    HW116982   2.236   0.956   4.547  0.5225  1.7316  1.0854
 5358SOL    HW216983   2.157   0.991   4.422 -0.7654 -0.5031  1.2185
 5359SOL     OW16984   3.086   0.342   5.677 -0.3720 -0.0729 -0.3971
 5359SOL    HW116985   3.160   0.397   5.652 -1.2920  0.1925 -2.8406
 5359SOL    HW216986   3.116   0.252   5.662  0.1151 -0.0936  0.6338
 5360SOL     OW16987   1.867   5.788   3.903 -0.4542  0.3896  0.0919
 5360SOL    HW116988   1.891   5.697   3.885 -0.9402  0.1085  0.7866
 5360SOL    HW216989   1.872   5.795   3.998  0.4752  1.3575 -0.0156
 5361SOL     OW16990   2.777   5.803   3.581 -0.0368 -0.6427  0.2756
 5361SOL    HW116991   2.861   5.771   3.616  0.4270 -0.2546 -0.4367
 5361SOL    HW216992   2.720   5.727   3.584  1.3271 -1.9064 -2.2756
 5362SOL     OW16993   1.349   0.877   6.259  0.6284 -0.1408  0.2029
 5362SOL    HW116994   1.274   0.891   6.316 -0.7304 -0.2042 -1.4627
 5362SOL    HW216995   1.315   0.822   6.188  1.4968  1.9386 -1.9984
 5363SOL     OW16996   6.939   2.100   0.485 -0.1497 -0.1470  0.1940
 5363SOL    HW116997   6.906   2.190   0.479 -0.5199 -0.2882  0.0873
 5363SOL    HW216998   6.908   2.069   0.571 -0.3829 -0.3133  0.0506
 5364SOL     OW16999   7.580   4.830   3.876  0.4361 -0.1166 -0.1448
 5364SOL    HW117000   7.619   4.853   3.791 -2.2527  0.8325 -1.2097
 5364SOL    HW217001   7.492   4.867   3.874 -1.5227 -4.0595  1.1320
 5365SOL     OW17002   0.134   7.111   1.978  0.4096 -0.0880  0.4798
 5365SOL    HW117003   0.115   7.186   1.922 -1.6042 -0.6066  0.4133
 5365SOL    HW217004   0.224   7.125   2.007  0.7920  1.2512 -1.2161
 5366SOL     OW17005   4.716   6.156   6.964 -0.0898  0.2870 -0.1644
 5366SOL    HW117006   4.773   6.080   6.951 -0.0755  0.2757 -0.0305
 5366SOL    HW217007   4.742   6.192   7.049 -1.8447 -1.0805  1.0273
 5367SOL     OW17008   6.583   5.498   3.741  0.1359  0.1863  0.1708
 5367SOL    HW117009   6.493   5.528   3.746  0.4812  1.1539  1.0385
 5367SOL    HW217010   6.634   5.570   3.779  1.6237  1.2157 -3.3529
 5368SOL     OW17011   2.433   0.423   3.233 -0.6403  0.1918  0.4508
 5368SOL    HW117012   2.365   0.356   3.232 -2.0515  1.4898  2.0255
 5368SOL    HW217013   2.435   0.458   3.144 -0.8618 -0.9754 -0.0208
 5369SOL     OW17014   4.236   3.023   3.071 -0.3187 -0.2768  0.4636
 5369SOL    HW117015   4.283   3.024   2.988 -0.4960 -0.5936  0.3568
 5369SOL    HW217016   4.293   3.070   3.132 -1.1768  1.9675 -0.3633
 5370SOL     OW17017   2.159   0.704   6.933 -0.2468 -0.7364 -0.2279
 5370SOL    HW117018   2.177   0.777   6.875 -0.6828 -0.1044  0.4085
 5370SOL    HW217019   2.071   0.720   6.965  0.7151  0.1126  2.2482
 5371SOL     OW17020   4.952   0.618   3.435  0.0403  0.4871  0.6342
 5371SOL    HW117021   4.894   0.543   3.449 -0.3764  1.2924  3.9581
 5371SOL    HW217022   4.897   0.695   3.452  0.9131  1.5051 -0.9299
 5372SOL     OW17023   3.286   7.118   1.542 -0.3269  0.3059 -0.3315
 5372SOL    HW117024   3.378   7.097   1.559 -0.7574 -0.7729  0.9457
 5372SOL    HW217025   3.274   7.101   1.449  1.1347  2.0406 -0.8757
 5373SOL     OW17026   7.620   3.046   2.849  0.4376 -0.0770  0.2935
 5373SOL    HW117027   7.666   2.969   2.881  1.3303  0.2730 -0.1044
 5373SOL    HW217028   7.660   3.064   2.763 -0.7514 -0.0226 -0.2667
 5374SOL     OW17029   3.779   1.237   2.086 -0.4853 -0.7493  0.0786
 5374SOL    HW117030   3.791   1.152   2.045  0.3411 -0.1596 -0.9401
 5374SOL    HW217031   3.827   1.230   2.169  0.8852 -0.7896 -0.6967
 5375SOL     OW17032   7.389   1.171   1.576 -0.3152  0.2406  0.7385
 5375SOL    HW117033   7.410   1.120   1.655 -2.2869 -0.9987  0.5406
 5375SOL    HW217034   7.366   1.258   1.609  2.2904  0.8311  1.1607
 5376SOL     OW17035   7.497   4.778   2.995 -0.4173  0.1281  0.1162
 5376SOL    HW117036   7.587   4.797   3.022 -0.4532  0.2313  0.1682
 5376SOL    HW217037   7.466   4.714   3.059 -0.3330 -0.0148  0.0121
 5377SOL     OW17038   2.620   0.817   7.079 -0.1831 -0.1977 -0.3231
 5377SOL    HW117039   2.610   0.804   6.985  0.6586 -0.0587 -0.4463
 5377SOL    HW217040   2.622   0.729   7.116 -1.0981 -0.2375 -0.3643
 5378SOL     OW17041   3.844   0.830   1.022  0.2689 -0.0001  0.3165
 5378SOL    HW117042   3.820   0.834   0.929 -0.1675 -1.6535  0.3387
 5378SOL    HW217043   3.863   0.921   1.045 -1.9610  0.8270 -0.7834
 5379SOL     OW17044   1.144   2.221   1.957  0.7856  0.4663  0.6072
 5379SOL    HW117045   1.166   2.189   2.044 -0.5572  0.3976  0.9305
 5379SOL    HW217046   1.090   2.298   1.972  0.8611  0.6805 -0.1671
 5380SOL     OW17047   1.519   6.695   6.759 -0.1661  0.0501  0.3063
 5380SOL    HW117048   1.579   6.727   6.692 -0.9556 -0.3212 -0.5885
 5380SOL    HW217049   1.527   6.600   6.755 -1.2977 -0.0327 -0.2826
 5381SOL     OW17050   5.578   5.618   3.354  0.3945 -0.5219  0.2002
 5381SOL    HW117051   5.545   5.701   3.389  1.9347  0.0708  0.3086
 5381SOL    HW217052   5.499   5.565   3.340 -0.5255  0.5316  1.1962
 5382SOL     OW17053   1.026   1.689   2.612  0.1842 -0.0161  0.1453
 5382SOL    HW117054   1.073   1.617   2.655 -0.9632  1.4295  4.1718
 5382SOL    HW217055   0.946   1.648   2.579  1.0469 -1.1486 -0.6554
 5383SOL     OW17056   5.411   5.274   7.590  0.2908 -0.8367 -0.5257
 5383SOL    HW117057   5.345   5.339   7.611 -0.1115 -1.6526  0.8878
 5383SOL    HW217058   5.491   5.307   7.632 -0.0008 -1.4095  0.5086
 5384SOL     OW17059   1.188   7.255   4.245 -0.6277 -0.0895  0.5478
 5384SOL    HW117060   1.173   7.325   4.308 -0.7357 -1.2740  1.9098
 5384SOL    HW217061   1.133   7.277   4.170  0.2245  1.8479  0.4302
 5385SOL     OW17062   0.050   3.690   3.897 -0.3025 -0.0319 -0.4370
 5385SOL    HW117063   0.130   3.640   3.879  0.3636  0.1639  1.7082
 5385SOL    HW217064   0.031   3.736   3.816  1.3701 -0.6402 -1.2021
 5386SOL     OW17065   3.867   2.324   6.571 -0.3741  0.0187 -0.0581
 5386SOL    HW117066   3.791   2.345   6.517  0.7559 -1.4037 -2.3864
 5386SOL    HW217067   3.842   2.245   6.618 -0.8302  0.3729  0.3013
 5387SOL     OW17068   1.118   2.875   6.235  0.3675 -0.1820 -0.7075
 5387SOL    HW117069   1.181   2.830   6.291  0.3073 -1.0790 -1.3416
 5387SOL    HW217070   1.147   2.857   6.146  0.6998  1.5773 -0.9915
 5388SOL     OW17071   6.799   7.666   3.406  0.3461  0.8506  0.3380
 5388SOL    HW117072   6.850   7.611   3.466 -1.7272 -0.5967  0.8649
 5388SOL    HW217073   6.767   7.738   3.461  0.7534  1.0853  0.2800
 5389SOL     OW17074   4.593   6.563   3.409  0.0180 -0.1762  0.3189
 5389SOL    HW117075   4.655   6.596   3.344 -1.0837 -0.5713 -0.9819
 5389SOL    HW217076   4.508   6.596   3.381 -0.6079 -1.1018  1.0500
 5390SOL     OW17077   6.303   7.215   0.052 -0.0835  0.2368  0.3643
 5390SOL    HW117078   6.331   7.295   0.008 -1.1132  0.6693  0.4696
 5390SOL    HW217079   6.210   7.208   0.031 -1.0642  1.3028  3.7027
 5391SOL     OW17080   3.576   3.987   2.260  0.4436 -0.0577  0.1146
 5391SOL    HW117081   3.582   3.900   2.221 -2.6141 -0.0795 -0.5227
 5391SOL    HW217082   3.519   3.976   2.335 -0.0540  1.3982 -0.0199
 5392SOL     OW17083   0.160   7.025   4.386  0.1225  0.6787 -0.0358
 5392SOL    HW117084   0.232   6.995   4.330  1.7890  0.7075  1.9675
 5392SOL    HW217085   0.092   6.958   4.376  1.0057 -0.1331 -0.8611
 5393SOL     OW17086   7.440   3.497   1.905 -0.0612 -0.1380 -0.4011
 5393SOL    HW117087   7.354   3.520   1.939  0.2179 -1.6548  1.5403
 5393SOL    HW217088   7.425   3.418   1.853  0.3120 -1.3790  1.2887
 5394SOL     OW17089   0.939   6.554   2.786  0.0006  0.2965  0.2950
 5394SOL    HW117090   0.884   6.620   2.743  1.4382  1.1448 -0.3169
 5394SOL    HW217091   0.978   6.504   2.715 -0.7676 -1.0039  0.7471
 5395SOL     OW17092   0.464   7.038   1.972  0.4869  0.3151  0.1267
 5395SOL    HW117093   0.556   7.022   1.955 -0.1424 -0.6548 -2.9478
 5395SOL    HW217094   0.419   6.961   1.936 -1.7021  2.2749 -1.6269
 5396SOL     OW17095   3.547   4.800   2.530 -0.0810 -0.0676 -0.0238
 5396SOL    HW117096   3.627   4.750   2.514 -0.6817 -1.2575  0.5812
 5396SOL    HW217097   3.515   4.822   2.442 -0.4343 -1.8072 -0.3682
 5397SOL     OW17098   0.018   5.195   2.607  0.2679  0.0220  0.3253
 5397SOL    HW117099   0.036   5.228   2.695  2.3579  0.2878 -0.1640
 5397SOL    HW217100   0.014   5.100   2.617  2.0007 -0.0663  0.5153
 5398SOL     OW17101   5.832   5.161   5.889 -0.1531  0.4119 -0.3538
 5398SOL    HW117102   5.754   5.215   5.895  0.5890  1.3591  1.1191
 5398SOL    HW217103   5.873   5.166   5.975  0.6793 -1.3954 -0.5847
 5399SOL     OW17104   0.754   5.483   0.024  0.5437  0.7682 -0.4013
 5399SOL    HW117105   0.790   5.526  -0.053  2.9573 -1.9505 -0.9699
 5399SOL    HW217106   0.821   5.494   0.092 -1.0632  2.1709  1.0759
 5400SOL     OW17107   7.316   2.311   7.161 -0.3464  0.3190  0.4024
 5400SOL    HW117108   7.301   2.263   7.080 -1.3766  0.8654  0.2577
 5400SOL    HW217109   7.382   2.377   7.138 -1.0554  0.8482 -0.1594
 5401SOL     OW17110   0.185   0.423   6.107 -0.1731 -0.0978 -0.2206
 5401SOL    HW117111   0.091   0.439   6.115 -0.0700 -0.2195  1.7317
 5401SOL    HW217112   0.194   0.328   6.105 -0.0635 -0.0988  0.2061
 5402SOL     OW17113   5.261   1.838   2.072  0.1456  0.0420  0.4763
 5402SOL    HW117114   5.284   1.764   2.016 -1.1291 -1.1561  1.4618
 5402SOL    HW217115   5.196   1.887   2.021  0.6836  0.2776 -0.0026
 5403SOL     OW17116   1.535   6.163   1.334 -0.5753 -0.0005  0.0755
 5403SOL    HW117117   1.551   6.173   1.240 -0.5235 -0.1775  0.0632
 5403SOL    HW217118   1.582   6.082   1.357  0.7580  0.8708  0.5734
 5404SOL     OW17119   4.534   7.056   7.269  0.2466 -0.3708 -0.2288
 5404SOL    HW117120   4.546   7.127   7.207  0.9238  0.7986  1.1778
 5404SOL    HW217121   4.592   7.077   7.342 -1.9506 -0.6028  1.7157
 5405SOL     OW17122   3.421   4.069   7.159  0.1978 -0.1586  0.3563
 5405SOL    HW117123   3.404   4.041   7.249  0.2531 -0.2862  0.3271
 5405SOL    HW217124   3.494   4.015   7.131 -1.9518 -2.5976 -0.9305
 5406SOL     OW17125   1.516   1.810   3.855 -0.2747  0.2032 -0.5859
 5406SOL    HW117126   1.474   1.782   3.937 -0.4242  1.5829 -0.1770
 5406SOL    HW217127   1.604   1.774   3.860  0.2062  1.4935  0.8790
 5407SOL     OW17128   2.953   1.631   2.604 -1.3152 -0.1917 -0.3416
 5407SOL    HW117129   2.953   1.666   2.515  0.8134  0.0312 -0.3007
 5407SOL    HW217130   3.037   1.657   2.640 -0.9309 -2.7053  0.7667
 5408SOL     OW17131   1.188   7.375   3.600  0.3732 -0.4508 -0.6572
 5408SOL    HW117132   1.195   7.457   3.552 -0.6940 -0.3565 -0.6634
 5408SOL    HW217133   1.099   7.344   3.582  0.6141 -1.3828 -0.2958
 5409SOL     OW17134   2.318   7.329   1.179 -0.0094  0.0137 -0.0768
 5409SOL    HW117135   2.306   7.237   1.157  1.0828 -0.2402  0.3044
 5409SOL    HW217136   2.410   7.347   1.156 -0.6331  1.4556 -1.7125
 5410SOL     OW17137   0.053   7.141   0.751 -0.6893 -0.5923 -0.2800
 5410SOL    HW117138   0.073   7.063   0.699  1.4551  1.5327 -2.9294
 5410SOL    HW217139   0.088   7.121   0.838 -0.2551 -2.5951 -0.8606
 5411SOL     OW17140   2.985   0.253   6.554  0.0465  0.0671 -0.1582
 5411SOL    HW117141   2.932   0.185   6.595  0.2270  0.3540  0.5716
 5411SOL    HW217142   3.011   0.216   6.470 -1.2204 -0.1141 -0.4881
 5412SOL     OW17143   4.921   4.703   3.302 -0.0405  0.6291  0.4733
 5412SOL    HW117144   5.002   4.729   3.346 -1.1454  4.3638  0.6119
 5412SOL    HW217145   4.853   4.714   3.368 -0.7459 -3.0167  0.5373
 5413SOL     OW17146   3.397   4.027   4.604  0.3723  0.3887  0.1140
 5413SOL    HW117147   3.489   4.027   4.575  0.5114 -0.1725  0.5356
 5413SOL    HW217148   3.384   4.115   4.640  0.6372  0.5907 -0.2642
 5414SOL     OW17149   3.441   6.210   3.905  0.4007 -0.3457 -0.2716
 5414SOL    HW117150   3.491   6.128   3.908  1.6545  0.3347 -1.2093
 5414SOL    HW217151   3.508   6.279   3.901 -0.5418  0.5667 -2.7299
 5415SOL     OW17152   4.115   2.167   6.676 -0.0505  0.1037  0.6724
 5415SOL    HW117153   4.050   2.229   6.643  1.0594 -0.4098 -2.7932
 5415SOL    HW217154   4.069   2.083   6.677  0.1379 -0.0314 -0.5379
 5416SOL     OW17155   0.096   1.524   3.597  0.4525  0.1186  0.4642
 5416SOL    HW117156   0.120   1.545   3.687  0.9252  0.7422  0.1923
 5416SOL    HW217157   0.065   1.606   3.560 -1.9964 -0.6090  0.7474
 5417SOL     OW17158   5.334   3.863   3.377 -0.4665 -0.3681  0.3193
 5417SOL    HW117159   5.270   3.920   3.333 -0.2443  0.5630  1.1591
 5417SOL    HW217160   5.369   3.918   3.447  0.9701 -1.0090  0.1223
 5418SOL     OW17161   6.957   1.690   4.160 -0.4107  0.2588  0.0017
 5418SOL    HW117162   7.037   1.721   4.118  1.3910  0.9168  3.4925
 5418SOL    HW217163   6.960   1.595   4.149  1.1266  0.2257  0.3500
 5419SOL     OW17164   7.235   4.759   2.521  0.1651  0.3061 -0.1614
 5419SOL    HW117165   7.290   4.681   2.523  1.0251  0.8716 -0.7388
 5419SOL    HW217166   7.254   4.799   2.436 -1.9272 -0.0169 -0.8300
 5420SOL     OW17167   1.508   6.976   4.868 -0.1350 -0.3417 -0.3911
 5420SOL    HW117168   1.478   6.885   4.867 -0.9580 -0.0781 -0.7145
 5420SOL    HW217169   1.603   6.971   4.879  0.0447 -1.2973 -2.0903
 5421SOL     OW17170   2.652   0.667   3.919  0.3866  0.2692 -0.4274
 5421SOL    HW117171   2.658   0.661   3.824  0.4435 -1.1334 -0.3555
 5421SOL    HW217172   2.664   0.577   3.949  1.2627  0.8194  0.9611
 5422SOL     OW17173   0.659   6.128   3.197 -0.3120 -0.2290  0.8094
 5422SOL    HW117174   0.587   6.087   3.245  0.7724 -1.8677  1.1146
 5422SOL    HW217175   0.691   6.196   3.256 -0.7230 -0.4105  1.2514
 5423SOL     OW17176   6.656   2.576   2.960 -0.4909  0.4555 -0.0239
 5423SOL    HW117177   6.663   2.672   2.959 -0.2704  0.4401 -0.1158
 5423SOL    HW217178   6.716   2.547   2.891 -1.7400  0.3096 -1.0861
 5424SOL     OW17179   5.702   5.591   2.644  0.2068 -0.2531 -0.1212
 5424SOL    HW117180   5.655   5.625   2.720  1.3934 -0.0615  0.5427
 5424SOL    HW217181   5.656   5.629   2.569 -3.4715 -3.4212  0.1838
 5425SOL     OW17182   4.784   2.965   1.392 -0.4297 -0.9647  0.4261
 5425SOL    HW117183   4.719   3.021   1.435 -1.7627 -1.2292 -1.1097
 5425SOL    HW217184   4.747   2.877   1.396  0.2819 -1.2787  0.3316
 5426SOL     OW17185   2.730   5.761   2.921  0.1536  0.3319 -0.7886
 5426SOL    HW117186   2.773   5.675   2.920 -0.3961  0.0430 -2.3023
 5426SOL    HW217187   2.643   5.744   2.955 -0.7438 -0.1688 -3.1566
 5427SOL     OW17188   0.375   1.071   3.057 -0.0786 -0.2473 -0.0929
 5427SOL    HW117189   0.463   1.078   3.095 -0.4144 -2.2252  1.2048
 5427SOL    HW217190   0.334   1.155   3.076  0.7821 -0.1079  1.3411
 5428SOL     OW17191   3.522   0.024   5.908  0.2730  0.1719  0.1713
 5428SOL    HW117192   3.566   0.096   5.954  2.6125 -1.4707  0.6880
 5428SOL    HW217193   3.557   0.028   5.819 -0.7666  0.5612 -0.2353
 5429SOL     OW17194   3.930   6.351   5.729 -0.0094 -0.2842  0.0350
 5429SOL    HW117195   3.897   6.406   5.800  2.7558  1.0364  0.4188
 5429SOL    HW217196   3.968   6.275   5.773 -1.6007 -1.3552 -0.3482
 5430SOL     OW17197   2.954   6.271   1.396  0.7564  0.1796  0.3917
 5430SOL    HW117198   2.868   6.262   1.356 -0.2250  0.9542  2.2111
 5430SOL    HW217199   2.966   6.365   1.408  1.4507  0.0318  0.9867
 5431SOL     OW17200   0.925   2.329   5.193  0.5365  1.0638 -0.6482
 5431SOL    HW117201   0.867   2.300   5.123  0.0497 -1.2343  0.5926
 5431SOL    HW217202   1.011   2.293   5.169  0.3446  0.1720 -0.0659
 5432SOL     OW17203   0.488   3.342   1.819 -0.4924  0.5730  0.0121
 5432SOL    HW117204   0.528   3.421   1.856 -1.0968  0.4145  1.0446
 5432SOL    HW217205   0.434   3.307   1.890 -1.9463  0.4182 -1.1334
 5433SOL     OW17206   1.468   3.422   4.078 -0.1272 -0.3280  0.0307
 5433SOL    HW117207   1.496   3.467   4.158  0.9945 -0.3042 -0.3586
 5433SOL    HW217208   1.374   3.409   4.090 -0.1028  0.2880  1.0509
 5434SOL     OW17209   7.564   1.795   4.854 -0.1643  0.1565  0.2489
 5434SOL    HW117210   7.565   1.738   4.931  0.4232  1.5184  1.2936
 5434SOL    HW217211   7.481   1.843   4.862 -0.6954 -0.5867 -0.6678
 5435SOL     OW17212   1.931   5.731   5.451 -0.1041  0.8502 -0.0500
 5435SOL    HW117213   1.943   5.824   5.470  1.1604  0.8000 -0.5190
 5435SOL    HW217214   2.018   5.700   5.424 -0.2652 -0.6856  1.0330
 5436SOL     OW17215   2.833   3.436   2.611 -0.2777 -0.2889 -0.4096
 5436SOL    HW117216   2.793   3.522   2.609 -0.7884 -0.5092  0.1313
 5436SOL    HW217217   2.911   3.447   2.666 -0.6734 -0.3026  0.1657
 5437SOL     OW17218   0.595   6.414   2.268 -0.2436  0.3302  0.7603
 5437SOL    HW117219   0.612   6.449   2.181 -3.7458  1.0463  0.2410
 5437SOL    HW217220   0.639   6.328   2.267 -0.7202  0.0094 -1.9744
 5438SOL     OW17221   6.849   4.971   1.032  0.2048 -0.2814 -0.1065
 5438SOL    HW117222   6.791   4.898   1.012  1.7690 -1.4551 -0.5505
 5438SOL    HW217223   6.932   4.930   1.054  0.8186  1.3418  0.7173
 5439SOL     OW17224   4.863   4.198   3.195 -0.2502  0.2191  0.3275
 5439SOL    HW117225   4.864   4.104   3.181  1.0274 -0.1377  2.3830
 5439SOL    HW217226   4.822   4.234   3.116 -0.6579 -2.0197 -0.5503
 5440SOL     OW17227   4.329   3.531   1.782 -0.3906 -0.3706 -0.1652
 5440SOL    HW117228   4.317   3.556   1.691 -0.3555  0.4678  0.0434
 5440SOL    HW217229   4.421   3.507   1.789  0.0663  1.3001  0.0137
 5441SOL     OW17230   1.268   6.227   5.548 -0.1287 -0.0694  0.0091
 5441SOL    HW117231   1.334   6.235   5.617  0.1942 -1.8128 -0.0672
 5441SOL    HW217232   1.188   6.202   5.594  0.4180 -2.6526 -0.3203
 5442SOL     OW17233   1.042   6.677   5.884 -0.4080 -0.3723  0.1371
 5442SOL    HW117234   0.958   6.714   5.912 -0.0201 -1.2966  2.7635
 5442SOL    HW217235   1.108   6.732   5.925  0.1949 -1.6248  0.9255
 5443SOL     OW17236   5.282   1.656   6.435  0.1267 -0.0458 -0.3818
 5443SOL    HW117237   5.206   1.713   6.447  0.0242 -0.6073  2.0650
 5443SOL    HW217238   5.246   1.577   6.395 -0.3391  0.1998 -0.4564
 5444SOL     OW17239   1.007   2.018   1.735  0.2361  0.0684 -0.1591
 5444SOL    HW117240   1.078   2.080   1.721 -0.3285  0.4710 -1.3405
 5444SOL    HW217241   0.991   2.019   1.829  0.8804  0.9920 -0.0610
 5445SOL     OW17242   0.745   4.780   4.058 -0.3492  0.6499 -0.0053
 5445SOL    HW117243   0.729   4.689   4.032  0.4860  0.2614  0.7683
 5445SOL    HW217244   0.709   4.787   4.146  1.9598  0.2349  1.0724
 5446SOL     OW17245   1.628   2.713   0.540  0.5018 -0.3984 -0.2586
 5446SOL    HW117246   1.548   2.676   0.501  0.1683  0.7989 -0.7452
 5446SOL    HW217247   1.613   2.807   0.541  0.3738 -0.3423  3.0936
 5447SOL     OW17248   0.569   6.762   0.381 -0.2904  0.0299 -0.3035
 5447SOL    HW117249   0.584   6.668   0.391  1.7576  0.0381 -2.5215
 5447SOL    HW217250   0.613   6.785   0.300 -1.0178  2.8861  0.0042
 5448SOL     OW17251   5.415   1.867   5.028  0.2730 -0.3849 -0.0074
 5448SOL    HW117252   5.341   1.810   5.009  0.3757 -0.3993 -0.3576
 5448SOL    HW217253   5.459   1.825   5.102 -0.6871  0.1923  0.9202
 5449SOL     OW17254   7.690   5.950   6.723  0.7651  0.1036  0.5737
 5449SOL    HW117255   7.681   5.883   6.656 -0.7157  0.6721  0.1502
 5449SOL    HW217256   7.781   5.978   6.718  0.8742 -0.4247 -0.6535
 5450SOL     OW17257   0.173   1.122   4.957 -0.1286 -0.9404  0.5051
 5450SOL    HW117258   0.092   1.110   5.008 -0.7378 -0.2882 -0.2819
 5450SOL    HW217259   0.240   1.140   5.023 -0.5514 -1.7952  1.1969
 5451SOL     OW17260   6.935   7.185   5.796  0.1909  0.2896 -0.0463
 5451SOL    HW117261   7.007   7.122   5.788 -1.7184 -1.8550 -1.6871
 5451SOL    HW217262   6.909   7.179   5.888 -0.0020 -1.4636 -0.1773
 5452SOL     OW17263   0.798   1.926   3.153  0.2170 -0.1525 -0.3073
 5452SOL    HW117264   0.754   1.875   3.085  0.3126 -1.2406  0.4191
 5452SOL    HW217265   0.862   1.865   3.190  1.0646  0.8334 -0.1183
 5453SOL     OW17266   4.386   5.710   0.695  0.4020 -0.1959  0.1309
 5453SOL    HW117267   4.356   5.711   0.604  1.4318 -2.6459 -0.3298
 5453SOL    HW217268   4.474   5.746   0.693 -0.4561  2.0720  0.6235
 5454SOL     OW17269   4.225   6.543   0.158 -0.2089 -0.5112 -0.1078
 5454SOL    HW117270   4.300   6.485   0.153  0.4962  0.4777 -3.3255
 5454SOL    HW217271   4.263   6.631   0.168 -0.7680  0.0964 -2.5951
 5455SOL     OW17272   5.968   5.792   0.682  0.3287  0.1301 -0.3284
 5455SOL    HW117273   6.012   5.750   0.608  0.5407 -0.9125  0.3754
 5455SOL    HW217274   6.007   5.879   0.686  1.2632 -0.2608 -0.6385
 5456SOL     OW17275   3.165   7.197   1.051 -0.2811  0.3697 -0.3134
 5456SOL    HW117276   3.144   7.144   0.974 -1.7358  0.6659 -0.1524
 5456SOL    HW217277   3.187   7.283   1.015 -0.3638  0.3419 -0.4325
 5457SOL     OW17278   0.070   0.148   7.548 -0.1541 -0.5847  0.2890
 5457SOL    HW117279  -0.021   0.167   7.524 -0.3075 -2.0747 -0.4037
 5457SOL    HW217280   0.122   0.200   7.486 -0.4889  1.2381  1.4723
 5458SOL     OW17281   2.221   5.172   2.271 -0.1360 -0.2623 -0.4879
 5458SOL    HW117282   2.233   5.077   2.272 -0.4391 -0.3121  1.6668
 5458SOL    HW217283   2.133   5.186   2.305  0.2360  0.8144  0.0839
 5459SOL     OW17284   0.879   5.324   5.160 -0.1704 -0.2368 -0.8742
 5459SOL    HW117285   0.945   5.376   5.114  0.1055 -0.0450 -0.2649
 5459SOL    HW217286   0.852   5.379   5.234 -0.8098 -0.4318 -0.9569
 5460SOL     OW17287   7.283   7.700   0.623  0.0050  0.1511 -0.0735
 5460SOL    HW117288   7.231   7.781   0.630 -0.4652 -0.0806 -0.7308
 5460SOL    HW217289   7.229   7.642   0.569  1.7625  0.5761 -2.4564
 5461SOL     OW17290   6.486   7.088   2.947  0.3201  0.4566 -1.1677
 5461SOL    HW117291   6.392   7.086   2.929 -0.4284  0.5316  2.0128
 5461SOL    HW217292   6.508   6.997   2.969  0.9735  0.4605 -1.7868
 5462SOL     OW17293   1.749   0.447   3.303 -0.1971 -0.5096  0.8011
 5462SOL    HW117294   1.767   0.533   3.264  2.7330 -1.0432  0.7867
 5462SOL    HW217295   1.702   0.399   3.234  0.4441  0.2331 -0.1736
 5463SOL     OW17296   5.383   4.338   1.188  0.1788 -0.3295 -0.0685
 5463SOL    HW117297   5.299   4.352   1.144  0.4373  3.0810  0.2050
 5463SOL    HW217298   5.444   4.317   1.118 -0.4536 -0.4365 -0.5961
 5464SOL     OW17299   3.074   1.792   5.548 -0.4862 -0.0070 -0.0223
 5464SOL    HW117300   3.107   1.851   5.480 -1.3650  1.6979  0.9488
 5464SOL    HW217301   2.982   1.816   5.557 -0.6800 -1.0402  0.9301
 5465SOL     OW17302   5.699   1.121   2.533 -0.0707  0.3370 -0.7005
 5465SOL    HW117303   5.681   1.103   2.441  0.5637  0.1762 -0.7968
 5465SOL    HW217304   5.646   1.199   2.553  0.9662  1.3110 -1.6247
 5466SOL     OW17305   5.902   2.229   3.361 -0.3861 -0.1997 -0.5763
 5466SOL    HW117306   5.985   2.251   3.402 -0.8481  0.7879 -0.1541
 5466SOL    HW217307   5.870   2.153   3.410 -0.3621  0.2340  0.1143
 5467SOL     OW17308   5.391   0.744   0.138  0.3475  0.6033  0.2772
 5467SOL    HW117309   5.347   0.829   0.139 -0.8267  0.0122  1.0824
 5467SOL    HW217310   5.358   0.699   0.216  1.8108 -0.1701  0.4837
 5468SOL     OW17311   5.706   1.769   0.429  0.2689 -0.7206  0.5037
 5468SOL    HW117312   5.759   1.712   0.372  0.0006 -0.6689  0.1972
 5468SOL    HW217313   5.632   1.714   0.456  0.5967 -0.8659  1.1204
 5469SOL     OW17314   3.884   1.737   1.828 -0.2148 -0.4694 -0.3777
 5469SOL    HW117315   3.803   1.719   1.780  0.3275 -0.3355 -1.3689
 5469SOL    HW217316   3.858   1.734   1.920 -1.5164  0.3927 -0.6900
 5470SOL     OW17317   4.171   3.368   3.543 -0.6278  0.6169  0.0255
 5470SOL    HW117318   4.124   3.350   3.625  0.7316  2.2839  1.2319
 5470SOL    HW217319   4.164   3.462   3.531 -0.6208  0.4235 -1.6984
 5471SOL     OW17320   5.739   1.789   0.015 -0.2556 -0.8131  0.4354
 5471SOL    HW117321   5.751   1.748  -0.070 -0.1053 -0.5877  0.3472
 5471SOL    HW217322   5.818   1.842   0.028 -0.0737 -1.1851  0.9078
 5472SOL     OW17323   1.284   1.674   5.814  0.3156 -0.0167  0.0117
 5472SOL    HW117324   1.311   1.750   5.763  0.2279 -0.8542 -1.3487
 5472SOL    HW217325   1.229   1.710   5.883  0.4998  1.1818 -0.4342
 5473SOL     OW17326   3.387   7.355   1.291 -0.3181  0.0527 -0.1419
 5473SOL    HW117327   3.405   7.266   1.261  0.9580 -0.4151  1.8268
 5473SOL    HW217328   3.358   7.401   1.213  0.9080 -1.5811 -1.6452
 5474SOL     OW17329   3.454   0.557   6.766  0.1970  0.4772 -0.4021
 5474SOL    HW117330   3.542   0.519   6.768  0.9328  2.1157  0.9754
 5474SOL    HW217331   3.405   0.509   6.832  0.8681  1.3134  0.7278
 5475SOL     OW17332   2.109   2.249   4.311 -0.2821  0.3053  0.4258
 5475SOL    HW117333   2.031   2.246   4.255  0.6509 -1.2937 -0.8632
 5475SOL    HW217334   2.129   2.157   4.330  2.8256  0.4064 -1.5701
 5476SOL     OW17335   5.891   3.001   4.598  0.2277  0.3922 -0.0720
 5476SOL    HW117336   5.874   2.913   4.633  0.6844  0.2553 -0.1790
 5476SOL    HW217337   5.852   3.060   4.662  0.5364  0.1275  0.3732
 5477SOL     OW17338   4.767   4.969   2.473  0.3021  0.3032 -0.2522
 5477SOL    HW117339   4.745   4.928   2.557 -1.5320 -1.3383 -1.4447
 5477SOL    HW217340   4.845   4.923   2.443  0.1280 -0.0999 -0.0907
 5478SOL     OW17341   6.024   7.589   5.727 -0.3452 -0.0486 -0.4589
 5478SOL    HW117342   6.012   7.560   5.818  1.3901 -0.4356 -0.3056
 5478SOL    HW217343   6.027   7.509   5.676  1.0568  0.0137 -0.5085
 5479SOL     OW17344   3.688   6.767   5.819  0.2305  0.2688  0.2001
 5479SOL    HW117345   3.775   6.757   5.781  1.1342  0.0886  2.2378
 5479SOL    HW217346   3.689   6.854   5.859  0.4319 -0.7023  2.4595
 5480SOL     OW17347   6.506   2.771   4.831 -0.3803 -0.4268  0.5338
 5480SOL    HW117348   6.524   2.785   4.738  0.5831 -0.4636  0.7111
 5480SOL    HW217349   6.482   2.858   4.864  2.3680  0.2735  0.9181
 5481SOL     OW17350   4.360   0.441   7.146 -0.3016  0.0004  0.1804
 5481SOL    HW117351   4.289   0.455   7.083  1.8288 -1.2592 -2.7380
 5481SOL    HW217352   4.440   0.450   7.094  1.6216 -1.3362  2.6817
 5482SOL     OW17353   0.324   0.664   6.071  0.0347 -0.2362  0.2036
 5482SOL    HW117354   0.258   0.709   6.019 -2.0898 -0.0104  2.8577
 5482SOL    HW217355   0.289   0.576   6.083  1.1199 -0.6869  0.1718
 5483SOL     OW17356   5.670   4.231   0.449 -0.6624 -0.3737 -0.2615
 5483SOL    HW117357   5.763   4.252   0.463 -1.1378  0.2395  2.5065
 5483SOL    HW217358   5.670   4.139   0.422  0.7493 -0.2367 -0.8269
 5484SOL     OW17359   1.802   2.564   6.520 -0.5575 -0.8113  0.3902
 5484SOL    HW117360   1.714   2.601   6.530 -0.2412  0.0920 -0.0708
 5484SOL    HW217361   1.788   2.482   6.473 -1.0131  0.1760 -1.2880
 5485SOL     OW17362   0.885   5.022   4.159  0.0887 -0.2896  0.3133
 5485SOL    HW117363   0.874   4.937   4.118  0.8419  0.4399 -1.4972
 5485SOL    HW217364   0.977   5.045   4.144 -0.1526  0.9367  0.5521
 5486SOL     OW17365   1.965   6.668   4.101  0.2194  0.0348 -0.1564
 5486SOL    HW117366   1.995   6.581   4.128  1.6398  0.2559 -0.9556
 5486SOL    HW217367   1.928   6.705   4.181  0.8282 -0.7864  0.5274
 5487SOL     OW17368   6.452   7.507   0.184 -0.2868 -0.4123 -0.0067
 5487SOL    HW117369   6.441   7.461   0.100  1.7300  1.4547 -1.4312
 5487SOL    HW217370   6.522   7.571   0.166  0.3348 -0.0565  3.1830
 5488SOL     OW17371   0.343   3.065   0.936  0.2664 -0.5592  0.2964
 5488SOL    HW117372   0.376   3.072   0.847  0.5816 -1.1987  0.3515
 5488SOL    HW217373   0.357   2.973   0.959 -0.4982 -0.5747  0.7357
 5489SOL     OW17374   7.393   4.575   6.584  0.2094 -0.3400 -0.1693
 5489SOL    HW117375   7.486   4.597   6.581  0.0746  0.1688 -1.9233
 5489SOL    HW217376   7.388   4.488   6.545  0.1377 -1.2369  1.7527
 5490SOL     OW17377   4.728   2.559   3.606  0.0874  0.3470  0.2080
 5490SOL    HW117378   4.761   2.471   3.588 -0.8175  0.1772 -0.6521
 5490SOL    HW217379   4.634   2.554   3.590 -0.2489  1.0697  1.7137
 5491SOL     OW17380   7.361   4.335   6.456  0.0966  0.1865 -0.6368
 5491SOL    HW117381   7.388   4.296   6.374  0.5815 -0.5158 -0.1507
 5491SOL    HW217382   7.280   4.289   6.480 -2.4987  3.1793 -2.7644
 5492SOL     OW17383   2.144   2.426   4.508  0.3067 -0.0117  0.0582
 5492SOL    HW117384   2.130   2.345   4.458  0.7851 -0.6017  0.8565
 5492SOL    HW217385   2.190   2.398   4.588  0.1506  0.9969  0.5241
 5493SOL     OW17386   6.582   2.394   2.293 -0.0258  0.3496  0.2524
 5493SOL    HW117387   6.518   2.342   2.342  0.0198  0.9244  0.9461
 5493SOL    HW217388   6.574   2.482   2.331 -0.2767  0.9151 -1.0532
 5494SOL     OW17389   7.093   2.198   3.055 -0.6893 -0.2172 -0.2079
 5494SOL    HW117390   7.029   2.269   3.056  0.5802  0.9720  0.6671
 5494SOL    HW217391   7.065   2.141   2.983 -0.5004  2.3939 -2.5078
 5495SOL     OW17392   1.246   0.076   4.254 -0.1134 -0.1392  0.0833
 5495SOL    HW117393   1.236   0.118   4.169  0.1865  2.9751  1.4783
 5495SOL    HW217394   1.178   0.115   4.309 -1.1622 -3.0359  1.0311
 5496SOL     OW17395   2.696   3.890   4.304  1.0267  0.3067 -0.2488
 5496SOL    HW117396   2.616   3.929   4.340  0.4684 -0.7436 -0.3309
 5496SOL    HW217397   2.730   3.957   4.244  2.4518  2.5177  2.7349
 5497SOL     OW17398   4.930   2.685   6.626  0.0722  0.1533 -0.1272
 5497SOL    HW117399   4.946   2.744   6.552 -0.1084 -0.2706 -0.5083
 5497SOL    HW217400   5.011   2.634   6.634  0.8567  1.5141  1.2136
 5498SOL     OW17401   0.917   0.787   3.422 -0.6042 -0.5938  0.2728
 5498SOL    HW117402   0.826   0.788   3.454 -0.4246  0.2433  0.7980
 5498SOL    HW217403   0.943   0.695   3.426 -0.8891 -0.6353  1.7313
 5499SOL     OW17404   0.599   1.119   3.212 -0.9316 -0.2056 -0.1912
 5499SOL    HW117405   0.585   1.177   3.287 -0.2110 -0.0126 -0.2026
 5499SOL    HW217406   0.636   1.176   3.144 -0.5040 -0.6174 -0.3056
 5500SOL     OW17407   6.478   2.429   2.667 -0.6037  0.0267  0.0687
 5500SOL    HW117408   6.559   2.384   2.645 -1.0622 -0.8612  0.1549
 5500SOL    HW217409   6.410   2.384   2.616 -1.0073  0.9354 -0.2174
 5501SOL     OW17410   1.580   0.299   0.094 -0.2165 -0.3384 -0.4320
 5501SOL    HW117411   1.674   0.298   0.110 -0.1602 -0.1763 -0.7426
 5501SOL    HW217412   1.568   0.368   0.029 -0.6107 -0.0007 -0.0036
 5502SOL     OW17413   5.129   4.911   6.388 -0.3116  0.5002 -0.8383
 5502SOL    HW117414   5.103   4.989   6.437 -2.5623 -0.2495 -0.7461
 5502SOL    HW217415   5.124   4.937   6.296 -2.2233  0.1905 -0.8599
 5503SOL     OW17416   6.181   3.705   5.524 -0.2774  0.7539  0.1674
 5503SOL    HW117417   6.135   3.677   5.604 -0.1408  1.4775  0.5114
 5503SOL    HW217418   6.118   3.764   5.480 -0.3469  0.3683 -0.2533
 5504SOL     OW17419   4.686   1.751   7.256  0.3077 -0.5403  0.0613
 5504SOL    HW117420   4.762   1.793   7.215  0.8206 -2.5126 -1.1708
 5504SOL    HW217421   4.698   1.764   7.350  0.4941  1.8620 -0.2399
 5505SOL     OW17422   5.078   1.442   3.811 -0.1666 -0.3476  0.1054
 5505SOL    HW117423   5.013   1.374   3.831  0.9397 -1.8161 -1.0597
 5505SOL    HW217424   5.095   1.431   3.717  0.8172  0.8734  0.1241
 5506SOL     OW17425   3.822   3.915   2.458 -0.3932  0.3932 -1.1275
 5506SOL    HW117426   3.866   3.975   2.397 -2.6376  1.5445 -1.7142
 5506SOL    HW217427   3.770   3.858   2.402  2.3299 -2.8807 -0.6708
 5507SOL     OW17428   1.972   6.334   6.713  0.1881 -0.4776  0.2115
 5507SOL    HW117429   2.066   6.314   6.717  0.0478 -1.1934 -0.0039
 5507SOL    HW217430   1.931   6.251   6.689 -0.5244 -0.2178  0.5240
 5508SOL     OW17431   7.014   3.722   0.753 -0.0887 -0.3493 -0.2719
 5508SOL    HW117432   6.928   3.679   0.747  0.3888 -1.4450  0.4506
 5508SOL    HW217433   7.068   3.660   0.801  1.6739 -0.5712 -2.3735
 5509SOL     OW17434   4.109   4.243   0.926  0.3307  0.2872 -0.7499
 5509SOL    HW117435   4.077   4.209   0.843 -1.1982 -1.5547  0.4937
 5509SOL    HW217436   4.195   4.280   0.906  1.1209 -2.3616 -2.6746
 5510SOL     OW17437   5.754   2.750   2.396 -0.0219 -0.3284 -0.5699
 5510SOL    HW117438   5.711   2.798   2.466 -0.5920  0.3855 -1.3906
 5510SOL    HW217439   5.846   2.745   2.422  0.1126  1.4939 -0.6175
 5511SOL     OW17440   3.861   0.918   5.321 -0.0477 -0.0511  0.4739
 5511SOL    HW117441   3.823   0.834   5.348 -0.3172 -0.4006 -0.8991
 5511SOL    HW217442   3.955   0.903   5.324 -0.0836 -0.2005  0.8590
 5512SOL     OW17443   3.680   4.225   6.190  0.0034 -0.1879  0.0231
 5512SOL    HW117444   3.594   4.227   6.232 -0.3486 -0.4663 -0.6576
 5512SOL    HW217445   3.677   4.148   6.133  0.4499  0.1933 -0.5337
 5513SOL     OW17446   5.580   4.467   2.420  0.6735 -0.1197  0.0319
 5513SOL    HW117447   5.597   4.443   2.329 -0.7276 -1.4054  0.0673
 5513SOL    HW217448   5.644   4.418   2.471  1.9681  1.1850 -0.2596
 5514SOL     OW17449   6.055   4.444   4.904  0.0026  0.6894 -0.1048
 5514SOL    HW117450   5.980   4.503   4.903  0.8419  1.8726 -2.6489
 5514SOL    HW217451   6.088   4.446   4.814  2.6414 -0.3406  0.7474
 5515SOL     OW17452   7.436   7.455   4.358  0.5690  0.2564  0.5502
 5515SOL    HW117453   7.443   7.477   4.265 -1.5766 -0.3030  0.2063
 5515SOL    HW217454   7.527   7.446   4.387  1.3014  1.1101 -1.3115
 5516SOL     OW17455   1.662   6.173   6.296 -0.1596 -0.0389  0.0821
 5516SOL    HW117456   1.750   6.154   6.329  0.4148 -0.1197 -1.4405
 5516SOL    HW217457   1.616   6.089   6.304  0.6553 -0.6669 -1.3329
 5517SOL     OW17458   5.667   4.514   1.308 -0.3843  0.2478 -0.3793
 5517SOL    HW117459   5.685   4.420   1.315 -0.2853  0.0688 -2.4310
 5517SOL    HW217460   5.710   4.552   1.384  0.6932 -1.2254 -0.2014
 5518SOL     OW17461   7.691   6.012   2.443  0.0533 -0.2382 -0.1015
 5518SOL    HW117462   7.727   6.056   2.520 -0.1990 -1.5721  0.8238
 5518SOL    HW217463   7.755   5.944   2.421  0.3847  0.4739 -1.4241
 5519SOL     OW17464   4.011   1.477   1.034 -0.2147 -0.0248  0.1631
 5519SOL    HW117465   4.062   1.446   1.109  1.8089  0.7545 -0.8046
 5519SOL    HW217466   4.076   1.494   0.967 -1.9831 -1.0765 -1.9588
 5520SOL     OW17467   4.499   3.303   2.878  0.2606 -0.0284  0.2500
 5520SOL    HW117468   4.433   3.320   2.811  0.3300 -1.0717 -0.0917
 5520SOL    HW217469   4.468   3.227   2.926 -0.0505  1.0053  1.7866
 5521SOL     OW17470   2.820   7.656   0.479  0.1731 -0.2412 -0.4778
 5521SOL    HW117471   2.792   7.637   0.568 -0.9725 -0.2653 -0.8247
 5521SOL    HW217472   2.797   7.576   0.430  0.2538 -0.0031 -0.9053
 5522SOL     OW17473   3.072   6.843   2.595  0.1133 -0.1024 -0.0588
 5522SOL    HW117474   3.158   6.811   2.622  0.8448  0.5266 -1.4998
 5522SOL    HW217475   3.046   6.784   2.524  0.3326  0.9393 -1.0335
 5523SOL     OW17476   7.601   1.696   0.330  0.0884 -0.2916  0.7564
 5523SOL    HW117477   7.629   1.758   0.263 -0.2800 -0.2226  0.6627
 5523SOL    HW217478   7.507   1.713   0.341 -0.1374 -1.2135  0.3240
 5524SOL     OW17479   3.453   0.328   5.658  0.0543  0.2335  0.4678
 5524SOL    HW117480   3.425   0.309   5.747  0.5871 -1.2109  0.3482
 5524SOL    HW217481   3.531   0.384   5.668  0.6410 -0.6473  0.9465
 5525SOL     OW17482   2.962   4.035   3.190 -0.6050 -0.6334 -0.4259
 5525SOL    HW117483   2.972   3.989   3.273 -0.0128 -0.4137 -0.3746
 5525SOL    HW217484   3.004   3.978   3.125  1.5693  0.5338 -0.1278
 5526SOL     OW17485   5.667   0.761   6.644  0.6521 -0.1352 -0.2691
 5526SOL    HW117486   5.710   0.825   6.701 -0.4454  0.0879  0.3211
 5526SOL    HW217487   5.717   0.681   6.657 -0.9214 -0.7743  2.8628
 5527SOL     OW17488   5.793   2.720   4.148 -0.8505 -0.0238  0.2912
 5527SOL    HW117489   5.811   2.740   4.240 -0.5507 -0.8573  0.4184
 5527SOL    HW217490   5.835   2.791   4.099 -1.1817  0.5292  0.7993
 5528SOL     OW17491   4.680   2.697   1.392 -0.2279 -0.4757  0.2513
 5528SOL    HW117492   4.600   2.663   1.353  0.1023  0.5753 -1.4531
 5528SOL    HW217493   4.691   2.646   1.472 -2.4440 -0.8181  0.3990
 5529SOL     OW17494   6.103   1.004   1.912 -0.0780  0.1418 -0.3207
 5529SOL    HW117495   6.194   1.033   1.912  1.3946 -3.7099 -2.3477
 5529SOL    HW217496   6.075   1.011   1.821 -1.5434  0.4780  0.1268
 5530SOL     OW17497   7.598   3.003   0.929  0.2502 -0.2312  0.2734
 5530SOL    HW117498   7.581   3.022   0.837 -0.9336 -0.0413  0.5156
 5530SOL    HW217499   7.686   3.036   0.944 -0.3768  1.8790 -0.2311
 5531SOL     OW17500   6.599   3.320   1.549 -0.2177 -0.4248 -0.0103
 5531SOL    HW117501   6.666   3.344   1.613  0.8191 -0.3366 -1.0824
 5531SOL    HW217502   6.580   3.402   1.502  0.8327 -0.9452 -1.4126
 5532SOL     OW17503   4.335   7.701   1.228 -0.0725 -0.4336 -0.3796
 5532SOL    HW117504   4.297   7.617   1.255 -1.6223  0.9829  2.2657
 5532SOL    HW217505   4.260   7.756   1.208  0.8557  0.6970 -0.8831
 5533SOL     OW17506   7.206   0.622   6.584 -0.0934  0.5970  0.7217
 5533SOL    HW117507   7.246   0.545   6.544  2.6079  2.8851 -1.4842
 5533SOL    HW217508   7.150   0.588   6.653 -0.3197 -3.3556 -1.1716
 5534SOL     OW17509   1.747   0.219   6.025 -0.1924 -0.1537  0.2534
 5534SOL    HW117510   1.663   0.250   6.058 -0.0067 -0.5852  1.1615
 5534SOL    HW217511   1.778   0.290   5.968  0.2226  1.3839  2.2667
 5535SOL     OW17512   5.084   3.609   4.205 -0.2269  0.2728 -0.0544
 5535SOL    HW117513   5.158   3.662   4.176 -1.5244  2.3199  0.1654
 5535SOL    HW217514   5.022   3.612   4.132 -1.8822  2.2455  1.3233
 5536SOL     OW17515   4.006   7.439   4.731 -0.7113  0.4668  0.0739
 5536SOL    HW117516   4.013   7.477   4.819 -0.5061  0.7349 -0.0574
 5536SOL    HW217517   4.082   7.473   4.684 -0.4709 -0.1871 -0.0186
 5537SOL     OW17518   2.366   4.563   3.521 -0.0357 -0.2428 -0.2994
 5537SOL    HW117519   2.315   4.483   3.504 -1.8618  0.2304  2.3308
 5537SOL    HW217520   2.330   4.597   3.603  2.3736  1.9709 -0.0472
 5538SOL     OW17521   4.894   6.411   4.224 -0.3119  0.4046  0.1549
 5538SOL    HW117522   4.930   6.371   4.303  0.6072  1.9328  0.5411
 5538SOL    HW217523   4.949   6.378   4.153 -2.5285 -2.8097 -0.2634
 5539SOL     OW17524   1.289   4.272   1.533  0.0664  0.1137  0.8204
 5539SOL    HW117525   1.365   4.330   1.537  0.1527  0.0229  0.5278
 5539SOL    HW217526   1.220   4.320   1.580  0.5005 -0.1129  1.7001
 5540SOL     OW17527   3.834   4.456   4.718 -0.2129  0.3012  0.3199
 5540SOL    HW117528   3.863   4.366   4.734  1.1879  0.9955  1.8794
 5540SOL    HW217529   3.910   4.510   4.737 -1.6776  2.0045  1.7157
 5541SOL     OW17530   6.660   2.330   3.520  0.5720 -0.2353 -0.6632
 5541SOL    HW117531   6.612   2.315   3.602  1.2985  1.8740  0.2196
 5541SOL    HW217532   6.716   2.252   3.510  1.1460 -0.1364  1.3559
 5542SOL     OW17533   0.362   6.117   3.137 -0.2957 -0.1016  0.3110
 5542SOL    HW117534   0.403   6.137   3.222  2.7093 -0.5341 -0.9232
 5542SOL    HW217535   0.399   6.033   3.112  1.7187  1.5514 -2.9501
 5543SOL     OW17536   5.970   2.024   4.618  0.6356 -0.5132  0.3009
 5543SOL    HW117537   5.904   2.069   4.564 -0.2416 -1.1999  0.7641
 5543SOL    HW217538   6.044   2.085   4.622 -0.0313  0.3480 -0.1161
 5544SOL     OW17539   4.881   3.695   5.756  0.4112 -0.2539  0.1605
 5544SOL    HW117540   4.791   3.671   5.732  0.1956  1.3009 -0.7670
 5544SOL    HW217541   4.870   3.765   5.821  0.9546 -0.3924  0.4029
 5545SOL     OW17542   5.324   7.088   0.902  0.3400 -0.4611 -0.3122
 5545SOL    HW117543   5.389   7.019   0.890 -0.5009 -1.4428  0.5610
 5545SOL    HW217544   5.357   7.139   0.976 -0.6979 -2.0031  1.2718
 5546SOL     OW17545   5.257   2.604   6.601 -0.2624  0.2869  0.4395
 5546SOL    HW117546   5.331   2.587   6.543  0.2230  3.3720  0.0175
 5546SOL    HW217547   5.239   2.697   6.591 -3.8691 -0.2118  0.9705
 5547SOL     OW17548   2.775   6.991   6.867 -0.0138 -0.0605  0.7885
 5547SOL    HW117549   2.780   7.065   6.807  0.4151 -0.7135  0.0006
 5547SOL    HW217550   2.685   6.993   6.900 -0.2266  0.3635  0.1997
 5548SOL     OW17551   4.941   4.740   0.664 -0.5954 -0.5140  0.1172
 5548SOL    HW117552   4.924   4.756   0.571 -1.2402  0.8154  0.4397
 5548SOL    HW217553   4.883   4.667   0.687  0.0686 -1.3131 -0.6634
 5549SOL     OW17554   3.284   2.959   7.267 -0.2488 -0.2247  0.0493
 5549SOL    HW117555   3.304   3.052   7.283 -0.0958  0.1999 -2.2712
 5549SOL    HW217556   3.195   2.959   7.232 -0.7099 -1.1130  1.1737
 5550SOL     OW17557   5.807   6.072   0.456 -0.1707 -0.1262  0.4388
 5550SOL    HW117558   5.860   6.018   0.398  0.1029  0.9547 -0.3488
 5550SOL    HW217559   5.718   6.040   0.443 -0.0363 -0.2799 -0.1403
 5551SOL     OW17560   4.570   3.005   4.324  0.0465  0.1857  0.1674
 5551SOL    HW117561   4.492   3.059   4.309  0.1933  0.9420  1.8533
 5551SOL    HW217562   4.644   3.063   4.302  0.1699 -0.1116 -0.2150
 5552SOL     OW17563   3.769   6.571   2.275 -0.0320 -0.1803  0.4721
 5552SOL    HW117564   3.763   6.667   2.284 -0.0341 -0.1417  0.0825
 5552SOL    HW217565   3.683   6.539   2.301 -0.5219  0.0372 -0.8173
 5553SOL     OW17566   1.297   7.186   7.472  0.2958  0.0346  0.9288
 5553SOL    HW117567   1.390   7.182   7.496  1.2356  2.7685 -1.5795
 5553SOL    HW217568   1.287   7.119   7.405  0.9279  0.8046  0.0403
 5554SOL     OW17569   4.877   1.243   0.670  0.3137  0.0289 -0.5385
 5554SOL    HW117570   4.832   1.256   0.587  1.1244 -0.2246 -1.0367
 5554SOL    HW217571   4.864   1.324   0.718  2.1087  1.3020 -2.0454
 5555SOL     OW17572   5.835   0.709   7.600 -0.0963 -0.2030  0.6145
 5555SOL    HW117573   5.745   0.734   7.624 -0.1934  0.6019 -0.5343
 5555SOL    HW217574   5.837   0.714   7.505  0.1595 -3.7116  0.2841
 5556SOL     OW17575   6.183   2.881   1.164 -0.3953 -0.2041  0.0961
 5556SOL    HW117576   6.183   2.938   1.241  0.4116 -0.7084  0.4887
 5556SOL    HW217577   6.141   2.800   1.194 -0.4697 -0.2455 -0.1176
 5557SOL     OW17578   0.855   4.363   0.292  0.1389  0.0271 -0.0612
 5557SOL    HW117579   0.867   4.338   0.384 -0.0836 -0.8294 -0.2561
 5557SOL    HW217580   0.779   4.313   0.263  1.1932 -0.9951 -1.1689
 5558SOL     OW17581   3.153   5.981   4.995  0.0248  0.1030 -0.2783
 5558SOL    HW117582   3.180   6.054   5.052  0.2436 -1.0003  1.0759
 5558SOL    HW217583   3.115   6.024   4.919  0.7223  1.6523  0.1986
 5559SOL     OW17584   2.264   1.969   4.247  0.1600 -0.6473 -0.0390
 5559SOL    HW117585   2.268   1.945   4.339 -1.7378 -0.9658  0.0181
 5559SOL    HW217586   2.280   1.887   4.200  1.2442 -0.4620 -0.0172
 5560SOL     OW17587   2.218   4.452   2.272  0.1675 -0.3849  0.3739
 5560SOL    HW117588   2.221   4.357   2.268  1.3717 -0.3284 -1.0255
 5560SOL    HW217589   2.294   4.477   2.324 -0.1040 -0.1704  0.6765
 5561SOL     OW17590   2.173   4.518   4.843 -0.3560 -0.5143 -0.1197
 5561SOL    HW117591   2.134   4.577   4.907 -1.5914 -0.8224 -0.5397
 5561SOL    HW217592   2.119   4.530   4.764  1.4262  0.2175 -1.2679
 5562SOL     OW17593   0.642   1.153   5.333  0.0999 -0.1873  0.0554
 5562SOL    HW117594   0.640   1.237   5.379  0.7374  0.1653 -0.5360
 5562SOL    HW217595   0.722   1.157   5.280  0.0078 -1.0682 -0.1667
 5563SOL     OW17596   5.298   4.206   0.693  0.0742 -0.2834  0.0550
 5563SOL    HW117597   5.386   4.176   0.717 -0.4599 -0.3623  2.0158
 5563SOL    HW217598   5.275   4.151   0.618  1.5291 -0.5272 -0.2510
 5564SOL     OW17599   2.861   6.283   6.970 -0.0144 -0.1219 -0.3765
 5564SOL    HW117600   2.808   6.361   6.983  1.1160  0.2713  2.6777
 5564SOL    HW217601   2.939   6.314   6.925  0.7336  0.7286  1.4062
 5565SOL     OW17602   0.986   6.618   6.948  0.1142 -0.2270  0.2681
 5565SOL    HW117603   0.923   6.598   7.017 -0.2932  1.0537  0.2996
 5565SOL    HW217604   0.965   6.709   6.923  1.2348 -0.1650 -0.4854
 5566SOL     OW17605   1.821   6.380   3.448 -0.1825 -0.2691 -0.2289
 5566SOL    HW117606   1.851   6.459   3.492 -1.1282  0.4749 -0.8549
 5566SOL    HW217607   1.750   6.410   3.391 -2.5850 -1.9770  1.6395
 5567SOL     OW17608   1.221   0.791   1.242  0.4484 -0.1750 -0.2846
 5567SOL    HW117609   1.305   0.754   1.215  0.0410 -1.4989  0.1658
 5567SOL    HW217610   1.200   0.855   1.174  1.3846 -0.4774 -0.8822
 5568SOL     OW17611   5.434   3.594   3.693 -0.8150  0.5084 -0.1552
 5568SOL    HW117612   5.518   3.621   3.657 -0.6936  0.6989  0.2693
 5568SOL    HW217613   5.451   3.579   3.786 -1.6380  2.3330  0.3407
 5569SOL     OW17614   0.343   0.737   5.068 -0.0579  0.7163 -0.7910
 5569SOL    HW117615   0.438   0.748   5.071  0.0416 -0.2392 -0.1971
 5569SOL    HW217616   0.324   0.718   4.976  0.6866 -1.9064 -0.4790
 5570SOL     OW17617   4.354   4.005   4.957  0.0973  0.4109  1.3198
 5570SOL    HW117618   4.386   4.083   5.002 -0.0083  0.9475  0.4887
 5570SOL    HW217619   4.416   3.936   4.981  0.2004  0.7516  2.0488
 5571SOL     OW17620   4.647   0.454   5.317  0.0508 -0.9589 -0.2160
 5571SOL    HW117621   4.726   0.507   5.309 -0.7196  0.1380 -0.8744
 5571SOL    HW217622   4.653   0.416   5.405 -0.3665  1.9911  1.2408
 5572SOL     OW17623   7.721   3.187   4.664  0.1553 -0.0727 -0.5344
 5572SOL    HW117624   7.751   3.239   4.589 -0.2523  1.9920  0.6702
 5572SOL    HW217625   7.730   3.096   4.634 -0.3673  0.6605 -3.2205
 5573SOL     OW17626   6.513   0.007   7.728 -0.1375  0.0243 -0.1558
 5573SOL    HW117627   6.589   0.044   7.773 -0.7849  0.5077  0.5650
 5573SOL    HW217628   6.438   0.047   7.771 -0.8268 -1.1297 -0.2605
 5574SOL     OW17629   1.443   6.703   3.287 -0.1427  0.0395  0.1001
 5574SOL    HW117630   1.428   6.731   3.377 -1.1663  0.8290 -0.2920
 5574SOL    HW217631   1.534   6.725   3.269 -0.2535  0.8980  0.5877
 5575SOL     OW17632   1.752   7.195   1.208 -0.2201  0.2841 -0.0524
 5575SOL    HW117633   1.679   7.133   1.205  0.5130 -0.5516 -1.3096
 5575SOL    HW217634   1.738   7.253   1.133  0.0647  0.5300  0.0844
 5576SOL     OW17635   0.044   7.344   2.659  0.1744  0.4227 -0.1124
 5576SOL    HW117636   0.107   7.285   2.698 -0.7797 -0.7047 -0.2316
 5576SOL    HW217637   0.046   7.323   2.565  0.5252  1.2597 -0.3018
 5577SOL     OW17638   7.319   4.799   0.900  0.4401 -0.4144 -0.0850
 5577SOL    HW117639   7.366   4.791   0.817 -0.0440 -1.0364 -0.3018
 5577SOL    HW217640   7.281   4.713   0.915  2.5867 -1.1192  2.0411
 5578SOL     OW17641   2.030   5.764   0.603  0.5297 -0.0287  0.7125
 5578SOL    HW117642   2.094   5.695   0.587 -0.0278 -0.8360  1.7990
 5578SOL    HW217643   1.953   5.738   0.552  0.5084  0.0685  0.6951
 5579SOL     OW17644   0.457   0.840   5.583 -0.1889 -0.0596 -0.2332
 5579SOL    HW117645   0.448   0.745   5.574 -0.8306  0.0595 -0.9611
 5579SOL    HW217646   0.411   0.876   5.507 -1.7888  0.8769  1.1127
 5580SOL     OW17647   4.503   1.081   7.561 -0.0681 -0.3168  0.3844
 5580SOL    HW117648   4.513   1.158   7.504  0.4676 -1.6909 -1.4424
 5580SOL    HW217649   4.410   1.058   7.554 -0.3481  0.4344  1.3538
 5581SOL     OW17650   0.486   6.040   0.638  0.1745  0.4817 -0.2275
 5581SOL    HW117651   0.555   5.975   0.650  0.4769  1.0531  1.4661
 5581SOL    HW217652   0.413   6.009   0.692 -0.9028 -0.0713 -1.9361
 5582SOL     OW17653   7.702   3.849   5.701  0.2454 -0.4834 -0.4506
 5582SOL    HW117654   7.737   3.761   5.685 -0.0245 -0.5648 -0.6052
 5582SOL    HW217655   7.750   3.905   5.641  0.5575 -0.4949 -0.2125
 5583SOL     OW17656   3.472   5.699   4.758  0.1767  0.3286 -0.8570
 5583SOL    HW117657   3.487   5.756   4.682  2.5571 -1.0795 -1.5503
 5583SOL    HW217658   3.545   5.638   4.757 -0.4963 -0.6615  1.7836
 5584SOL     OW17659   2.265   6.281   5.844 -1.2382  0.2296 -0.3038
 5584SOL    HW117660   2.357   6.308   5.846 -1.1754  0.0229  1.2586
 5584SOL    HW217661   2.219   6.350   5.893 -1.7915 -0.0644 -0.4006
 5585SOL     OW17662   6.557   4.979   7.620  0.5666 -0.1399 -0.1384
 5585SOL    HW117663   6.572   4.889   7.651 -0.0543 -0.5515 -0.9802
 5585SOL    HW217664   6.643   5.021   7.624  0.9737 -0.9455 -0.2438
 5586SOL     OW17665   7.083   1.581   5.061 -0.3687 -0.3074  0.4169
 5586SOL    HW117666   6.994   1.587   5.024 -0.1686 -2.1052 -0.4606
 5586SOL    HW217667   7.140   1.573   4.984  0.3816 -0.7561  1.0105
 5587SOL     OW17668   0.844   2.937   6.303 -0.4749 -0.2727 -0.4062
 5587SOL    HW117669   0.936   2.961   6.311 -0.1330 -0.8598 -2.0618
 5587SOL    HW217670   0.833   2.915   6.210 -2.0698 -1.0931 -0.0659
 5588SOL     OW17671   3.238   6.653   4.472 -0.1865 -0.2215 -0.3095
 5588SOL    HW117672   3.173   6.700   4.420  0.6505  0.4705 -0.7598
 5588SOL    HW217673   3.219   6.560   4.455 -1.4090 -0.0532  0.0324
 5589SOL     OW17674   5.055   3.344   2.098  0.3070 -0.6936 -0.1126
 5589SOL    HW117675   5.035   3.410   2.165  0.4683 -0.7262 -0.0295
 5589SOL    HW217676   5.141   3.310   2.124 -0.2383 -1.6780  0.4373
 5590SOL     OW17677   6.164   2.109   4.219 -0.0238 -0.7461 -0.6219
 5590SOL    HW117678   6.254   2.129   4.194  0.4881 -1.3464  0.6344
 5590SOL    HW217679   6.161   2.126   4.313 -1.7617  1.0890 -0.9436
 5591SOL     OW17680   1.704   3.897   4.300 -0.7260 -0.0068 -0.3720
 5591SOL    HW117681   1.773   3.936   4.246  1.1343  1.6951  2.8897
 5591SOL    HW217682   1.744   3.819   4.338 -1.0447  0.2155  0.4580
 5592SOL     OW17683   4.139   5.517   2.013 -0.6589  0.0053 -0.4039
 5592SOL    HW117684   4.073   5.484   2.074 -1.2711  1.4383 -0.2414
 5592SOL    HW217685   4.123   5.611   2.010  1.6431  0.4542 -0.0578
 5593SOL     OW17686   0.469   6.516   7.697 -0.0283 -0.0292  0.7815
 5593SOL    HW117687   0.445   6.466   7.775 -1.9891  0.8685  0.8256
 5593SOL    HW217688   0.558   6.547   7.714 -0.5618  0.4950  2.8534
 5594SOL     OW17689   5.660   3.549   2.808 -0.1242  0.4922 -0.0479
 5594SOL    HW117690   5.685   3.616   2.745 -1.9970  0.5690 -0.7715
 5594SOL    HW217691   5.637   3.597   2.888  0.0833  0.5848 -0.0453
 5595SOL     OW17692   2.822   5.238   3.718 -0.0472  0.1147  0.5313
 5595SOL    HW117693   2.794   5.325   3.689  1.2038 -0.2967 -2.2329
 5595SOL    HW217694   2.752   5.179   3.690 -0.1994  0.0350  1.0634
 5596SOL     OW17695   1.732   1.691   7.295  0.6574 -0.1056 -0.4566
 5596SOL    HW117696   1.678   1.667   7.371  1.1435 -0.8167 -0.3322
 5596SOL    HW217697   1.674   1.746   7.242  0.2361  0.2126  0.3147
 5597SOL     OW17698   2.128   2.926   1.913  0.1790 -0.4092  0.1747
 5597SOL    HW117699   2.088   2.901   1.829 -2.3801  2.0357  0.5151
 5597SOL    HW217700   2.085   2.869   1.977  0.5926 -0.8556  0.0578
 5598SOL     OW17701   4.735   6.631   4.254 -0.0895  0.0480 -0.0780
 5598SOL    HW117702   4.774   6.718   4.267 -0.7539  0.3151  0.1396
 5598SOL    HW217703   4.811   6.572   4.249  0.3909  0.6913 -0.6985
 5599SOL     OW17704   2.926   1.005   0.583 -0.3586 -0.1095 -0.1375
 5599SOL    HW117705   2.933   0.973   0.673  0.9698 -1.6193 -0.7473
 5599SOL    HW217706   2.950   1.098   0.589  1.4307 -0.5973  0.8274
 5600SOL     OW17707   3.694   1.440   5.822 -0.2729 -0.0587  0.4641
 5600SOL    HW117708   3.667   1.397   5.903  0.7423 -1.7020 -0.0323
 5600SOL    HW217709   3.681   1.375   5.754 -0.8352  1.2025 -0.6774
 5601SOL     OW17710   3.674   1.134   0.190 -0.9873  0.4445 -0.3746
 5601SOL    HW117711   3.641   1.070   0.253 -0.6014 -1.3010 -1.8404
 5601SOL    HW217712   3.595   1.172   0.152 -1.2202  1.3697  0.9814
 5602SOL     OW17713   1.075   3.809   2.872  0.4131  0.1849 -0.0689
 5602SOL    HW117714   1.133   3.760   2.814 -1.5858 -2.0598 -0.3309
 5602SOL    HW217715   1.076   3.898   2.838  1.1534 -0.5430 -2.0748
 5603SOL     OW17716   1.317   2.097   2.879  0.1161  0.2582  0.1549
 5603SOL    HW117717   1.272   2.013   2.873  0.1841  0.2293  0.0458
 5603SOL    HW217718   1.318   2.117   2.973 -2.5101  1.5479  0.0080
 5604SOL     OW17719   5.532   2.079   4.886 -0.8096 -0.1817  0.0873
 5604SOL    HW117720   5.617   2.090   4.929 -1.6918  0.2263  1.8390
 5604SOL    HW217721   5.487   2.013   4.939 -2.4464  1.2976  0.6377
 5605SOL     OW17722   6.777   4.742   0.399 -0.1995  0.3880  0.1466
 5605SOL    HW117723   6.742   4.830   0.385 -0.9210  0.4161  1.9322
 5605SOL    HW217724   6.701   4.688   0.420  0.2478 -0.6674 -0.8097
 5606SOL     OW17725   2.744   6.411   4.368  0.4887 -0.3517 -0.3279
 5606SOL    HW117726   2.750   6.443   4.458  3.0404  0.3038 -0.6617
 5606SOL    HW217727   2.651   6.392   4.356  0.2355 -1.9736  2.9525
 5607SOL     OW17728   0.339   2.732   5.095 -0.1785  0.0223  0.0446
 5607SOL    HW117729   0.262   2.685   5.064 -0.3424  0.2664  0.0769
 5607SOL    HW217730   0.397   2.663   5.129 -0.6584 -0.1126  0.6177
 5608SOL     OW17731   0.229   7.207   5.819 -0.0658 -0.0788  0.0020
 5608SOL    HW117732   0.270   7.173   5.899 -0.6713 -0.1431  0.2914
 5608SOL    HW217733   0.178   7.134   5.786  2.0850 -0.8924 -1.8239
 5609SOL     OW17734   2.029   3.597   2.296 -0.8850  0.1120  1.0551
 5609SOL    HW117735   2.095   3.528   2.300  0.3059  0.9179 -1.9241
 5609SOL    HW217736   2.068   3.671   2.344 -0.7557 -0.2348  1.4878
 5610SOL     OW17737   6.974   4.187   4.578 -0.3798  0.3748  0.2693
 5610SOL    HW117738   7.058   4.176   4.533  0.0469  2.6314  0.3827
 5610SOL    HW217739   6.994   4.168   4.669  0.3182  1.9211  0.4739
 5611SOL     OW17740   2.950   0.141   5.509  0.1864  0.1215 -0.3097
 5611SOL    HW117741   2.910   0.134   5.596  1.0759  0.0654  0.1046
 5611SOL    HW217742   3.041   0.118   5.523  0.3537  0.1873 -1.2550
 5612SOL     OW17743   3.857   7.689   5.441 -0.4583 -0.1943 -0.5302
 5612SOL    HW117744   3.909   7.768   5.427 -0.6555 -0.0883 -0.6657
 5612SOL    HW217745   3.921   7.618   5.441 -0.0000  0.1377  1.6343
 5613SOL     OW17746   3.677   6.663   3.070 -0.6596 -0.0226 -0.2939
 5613SOL    HW117747   3.672   6.756   3.047 -0.2798 -0.4860 -2.4910
 5613SOL    HW217748   3.591   6.628   3.045 -0.6895 -0.3228  0.2284
 5614SOL     OW17749   0.249   7.081   0.329  0.0995  0.2042 -0.3511
 5614SOL    HW117750   0.308   7.154   0.311 -1.4252  1.4283 -0.6107
 5614SOL    HW217751   0.223   7.050   0.243  0.6357 -0.5702 -0.2383
 5615SOL     OW17752   5.883   5.165   1.535  0.1269  0.0049  0.0095
 5615SOL    HW117753   5.886   5.234   1.469 -1.1021  1.0041  0.9399
 5615SOL    HW217754   5.849   5.208   1.613 -0.2512 -1.5594  0.7489
 5616SOL     OW17755   5.687   0.554   0.291 -0.6274  0.1588 -0.2804
 5616SOL    HW117756   5.624   0.525   0.225 -0.7915 -0.0958 -0.0113
 5616SOL    HW217757   5.772   0.528   0.256 -0.8164 -1.3547  0.3075
 5617SOL     OW17758   6.874   3.153   0.855 -0.2564 -0.3681 -0.1085
 5617SOL    HW117759   6.817   3.096   0.803 -0.4150 -1.9647  1.7061
 5617SOL    HW217760   6.814   3.205   0.908 -0.1330 -1.7197  1.4581
 5618SOL     OW17761   3.184   2.522   2.011  0.4515  0.1306 -0.1900
 5618SOL    HW117762   3.194   2.436   2.053  0.9807 -0.7255 -1.9710
 5618SOL    HW217763   3.152   2.502   1.923  1.5564  1.7029 -0.9891
 5619SOL     OW17764   0.845   5.570   7.318 -0.4363  0.0344  0.3264
 5619SOL    HW117765   0.752   5.552   7.327 -0.2974 -1.0547 -0.2674
 5619SOL    HW217766   0.861   5.569   7.224  0.4131 -1.1774  0.4615
 5620SOL     OW17767   1.464   0.589   0.483  0.2087  0.1858 -0.3630
 5620SOL    HW117768   1.404   0.664   0.476  1.7641  1.6073  0.8212
 5620SOL    HW217769   1.507   0.601   0.568  2.3849 -0.6244 -1.2972
 5621SOL     OW17770   1.028   3.257   4.702  0.0796  0.3571  0.5053
 5621SOL    HW117771   0.952   3.206   4.672  1.5335 -2.3563  1.0929
 5621SOL    HW217772   1.000   3.294   4.786 -0.8483  0.0669  0.3349
 5622SOL     OW17773   0.723   0.863   3.130  0.1468 -0.1691  0.4202
 5622SOL    HW117774   0.669   0.784   3.135 -1.0754  0.6607  1.0298
 5622SOL    HW217775   0.685   0.921   3.196  1.1662  0.8352  0.1431
 5623SOL     OW17776   1.055   6.422   3.658 -0.4219 -0.2503  0.3605
 5623SOL    HW117777   1.033   6.515   3.653 -1.3771 -0.3914  1.3813
 5623SOL    HW217778   1.136   6.413   3.609 -0.2205  1.1541  0.4069
 5624SOL     OW17779   4.576   7.450   7.305 -0.1934 -0.3127 -0.5127
 5624SOL    HW117780   4.497   7.426   7.354 -1.5402 -0.7607 -2.7954
 5624SOL    HW217781   4.544   7.490   7.224  1.9305 -0.2512 -1.3982
 5625SOL     OW17782   0.597   5.897   7.683 -0.1981 -0.1052  0.4127
 5625SOL    HW117783   0.549   5.980   7.681  1.5528  0.9595 -1.7297
 5625SOL    HW217784   0.579   5.857   7.598  0.6059 -0.9360  0.6170
 5626SOL     OW17785   0.396   2.807   3.335  0.4828  0.2974 -0.7271
 5626SOL    HW117786   0.480   2.797   3.379 -0.2626  2.3269  1.3755
 5626SOL    HW217787   0.338   2.845   3.402 -1.9579 -0.4885 -2.2522
 5627SOL     OW17788   6.969   5.179   7.353  0.4509  0.0101 -0.2727
 5627SOL    HW117789   7.058   5.151   7.378  0.4337 -1.1128 -1.3607
 5627SOL    HW217790   6.972   5.183   7.258 -0.5076  0.5536 -0.2804
 5628SOL     OW17791   4.916   0.945   4.656 -0.4347  0.1198  0.5401
 5628SOL    HW117792   4.938   0.882   4.724  0.2809 -0.0132  0.1906
 5628SOL    HW217793   4.946   0.904   4.575  0.8249  1.2653  0.3898
 5629SOL     OW17794   0.605   0.447   1.727  0.3460  0.1162  0.0068
 5629SOL    HW117795   0.631   0.365   1.684 -0.3436  0.3085 -0.7999
 5629SOL    HW217796   0.680   0.505   1.715  0.2278  0.1124 -0.8136
 5630SOL     OW17797   3.939   2.042   1.410 -0.7068 -0.1426 -0.5505
 5630SOL    HW117798   4.024   2.047   1.455 -1.1419  1.1375  0.1824
 5630SOL    HW217799   3.956   2.078   1.323 -0.3537 -0.5388 -0.6496
 5631SOL     OW17800   5.613   4.774   4.524 -0.4328 -0.1997  0.0148
 5631SOL    HW117801   5.630   4.747   4.433  0.4083  1.0804 -0.2416
 5631SOL    HW217802   5.698   4.806   4.555 -1.2732  1.7711  0.3941
 5632SOL     OW17803   7.470   4.918   7.690 -0.3192  0.3089 -0.4440
 5632SOL    HW117804   7.513   4.916   7.776  0.8690  1.2914 -0.9754
 5632SOL    HW217805   7.391   4.969   7.703  0.9931  2.4761 -0.3515
 5633SOL     OW17806   3.192   2.272   1.064  0.3752  0.0964  0.3831
 5633SOL    HW117807   3.236   2.354   1.041  0.5776  0.5397  2.2301
 5633SOL    HW217808   3.115   2.299   1.114  0.4871 -0.8339  1.0885
 5634SOL     OW17809   5.950   1.841   2.319  0.2389  0.2375  0.3891
 5634SOL    HW117810   5.934   1.929   2.352  0.8432 -0.4368  2.6651
 5634SOL    HW217811   6.028   1.849   2.263 -1.3909  1.5869 -1.8584
 5635SOL     OW17812   7.153   3.009   7.299 -0.3425  0.1660 -0.4198
 5635SOL    HW117813   7.246   2.986   7.291 -0.4362 -0.5283  0.3831
 5635SOL    HW217814   7.151   3.079   7.365 -0.6174 -1.6723  1.6289
 5636SOL     OW17815   2.242   2.209   2.618 -0.4396 -0.7582 -0.4599
 5636SOL    HW117816   2.259   2.299   2.592 -0.9556 -0.3309  0.5837
 5636SOL    HW217817   2.326   2.165   2.610  0.3698  0.3902  1.1664
 5637SOL     OW17818   1.621   4.422   2.651 -0.5487 -0.3900 -0.3797
 5637SOL    HW117819   1.530   4.412   2.621 -0.0119  1.0076 -2.8274
 5637SOL    HW217820   1.640   4.515   2.635  1.1488 -0.5444  0.6082
 5638SOL     OW17821   2.025   3.531   4.994  0.3163  0.0974  0.2581
 5638SOL    HW117822   2.041   3.490   5.079 -1.9358  1.3051  1.3654
 5638SOL    HW217823   1.934   3.560   4.999  0.4709  1.2027 -2.1704
 5639SOL     OW17824   4.164   7.460   7.607  0.2917  0.0107 -0.0957
 5639SOL    HW117825   4.090   7.520   7.614  1.6638  1.7610  0.0507
 5639SOL    HW217826   4.223   7.487   7.677  0.9764 -1.5038 -0.0587
 5640SOL     OW17827   3.716   6.283   3.184  0.3355 -0.2886  0.0889
 5640SOL    HW117828   3.621   6.291   3.197  0.2388 -1.5085  0.3167
 5640SOL    HW217829   3.726   6.204   3.130  1.2428 -0.5537  0.6212
 5641SOL     OW17830   4.665   0.265   7.040 -0.4270 -0.1331  0.2050
 5641SOL    HW117831   4.598   0.332   7.054 -0.6445 -0.6372  1.6539
 5641SOL    HW217832   4.686   0.233   7.127  0.8586 -0.8190 -0.3321
 5642SOL     OW17833   3.347   5.247   5.212  0.0064 -0.3718 -0.2556
 5642SOL    HW117834   3.264   5.256   5.165 -1.6501 -1.4059  2.3029
 5642SOL    HW217835   3.358   5.330   5.258 -0.1671 -0.6071  0.2202
 5643SOL     OW17836   0.604   7.038   7.035 -0.2989 -0.5084 -0.0738
 5643SOL    HW117837   0.671   7.099   7.005  0.4611 -0.2589  1.9386
 5643SOL    HW217838   0.535   7.044   6.970  0.7493  0.7828 -1.1307
 5644SOL     OW17839   5.788   2.053   6.310  0.1886 -0.0220 -0.3680
 5644SOL    HW117840   5.709   2.068   6.362  0.1874 -0.2560 -0.3050
 5644SOL    HW217841   5.760   2.069   6.220  0.4755  1.5949 -0.2120
 5645SOL     OW17842   3.112   5.227   6.215 -0.0936 -0.1272 -0.0244
 5645SOL    HW117843   3.208   5.231   6.221 -0.0089 -0.4637 -0.9952
 5645SOL    HW217844   3.081   5.261   6.300  0.8394  2.2361 -0.5473
 5646SOL     OW17845   3.767   2.938   7.408  0.2914 -0.1107 -0.3641
 5646SOL    HW117846   3.807   3.022   7.383  0.4703  0.2743  1.1267
 5646SOL    HW217847   3.708   2.918   7.336 -0.5294  1.8410 -0.3134
 5647SOL     OW17848   0.652   7.420   7.156 -0.4152 -0.1964 -0.8362
 5647SOL    HW117849   0.577   7.447   7.102 -1.7908  0.1789  1.1463
 5647SOL    HW217850   0.674   7.499   7.206  1.5596 -0.2085 -1.5935
 5648SOL     OW17851   2.983   1.949   5.811  0.4219 -0.3313  0.1359
 5648SOL    HW117852   2.954   1.958   5.721 -1.2338 -2.2490  0.3923
 5648SOL    HW217853   3.070   1.987   5.813 -1.3526  4.3893 -1.0612
 5649SOL     OW17854   7.482   0.220   4.648  0.0963  0.5894  0.2743
 5649SOL    HW117855   7.571   0.251   4.634  0.4551 -0.5157  0.0563
 5649SOL    HW217856   7.428   0.299   4.644  0.8341  1.0433 -1.5042
 5650SOL     OW17857   7.184   2.801   2.072  0.0539  0.3788  0.0012
 5650SOL    HW117858   7.137   2.826   2.151 -0.2816 -1.4121  0.3971
 5650SOL    HW217859   7.140   2.722   2.041 -0.0249  1.2045 -2.1668
 5651SOL     OW17860   5.340   0.452   3.566  0.0293 -0.7421  0.1311
 5651SOL    HW117861   5.320   0.497   3.648  1.3803 -1.1792  0.7282
 5651SOL    HW217862   5.428   0.418   3.578 -0.1854 -1.8115 -1.0779
 5652SOL     OW17863   5.181   4.026   1.207 -0.3220  0.5734  0.2865
 5652SOL    HW117864   5.243   4.048   1.138 -0.3691  0.2425  0.1362
 5652SOL    HW217865   5.234   4.023   1.287 -0.5617  2.7285  0.5873
 5653SOL     OW17866   0.465   6.880   3.731  0.0564  0.2653 -0.0749
 5653SOL    HW117867   0.542   6.866   3.787 -0.3886  0.6531  0.6445
 5653SOL    HW217868   0.456   6.975   3.726 -0.2761  0.2231 -0.2998
 5654SOL     OW17869   0.013   6.365   4.543  0.0133 -0.1445  0.1524
 5654SOL    HW117870  -0.014   6.434   4.604 -0.2648  0.2178 -0.3708
 5654SOL    HW217871   0.002   6.284   4.592 -0.4255  0.1253  0.5068
 5655SOL     OW17872   4.036   5.735   0.563  0.1474  0.0306 -0.1084
 5655SOL    HW117873   3.979   5.668   0.599  0.1064 -0.3684 -0.9046
 5655SOL    HW217874   4.125   5.708   0.588  0.0978 -0.1136 -0.0891
 5656SOL     OW17875   0.323   5.898   4.981  0.0035 -0.3000  0.3138
 5656SOL    HW117876   0.305   5.805   4.997 -0.5145 -0.3424 -0.4725
 5656SOL    HW217877   0.392   5.919   5.043 -0.0959 -1.1302  0.7310
 5657SOL     OW17878   6.158   2.350   5.491  0.1981  0.3252 -0.0236
 5657SOL    HW117879   6.202   2.378   5.410 -0.0262  0.9946  0.0827
 5657SOL    HW217880   6.224   2.299   5.538  0.4007  0.1176 -0.5230
 5658SOL     OW17881   2.681   0.663   1.386 -0.4354 -0.0075 -0.4531
 5658SOL    HW117882   2.646   0.583   1.427  0.1493  0.0182  0.1201
 5658SOL    HW217883   2.775   0.660   1.405 -0.2112  0.1954 -1.5037
 5659SOL     OW17884   3.245   4.278   5.272 -0.5139  0.1158 -0.2213
 5659SOL    HW117885   3.209   4.334   5.203 -0.4072  0.7397  0.2197
 5659SOL    HW217886   3.203   4.309   5.352  1.7497  1.6117  0.4802
 5660SOL     OW17887   5.548   2.956   5.089 -0.2865  0.1703 -0.2176
 5660SOL    HW117888   5.518   3.005   5.012 -0.2363 -0.3463 -0.5738
 5660SOL    HW217889   5.578   2.872   5.054 -0.5573 -0.1954  0.4023
 5661SOL     OW17890   2.290   4.395   1.305  0.2266 -0.1783  0.3025
 5661SOL    HW117891   2.307   4.345   1.385  0.1119 -1.1130 -0.2445
 5661SOL    HW217892   2.197   4.378   1.286  0.2789 -0.0384 -0.0778
 5662SOL     OW17893   6.260   0.803   2.654 -0.3650 -0.1099 -0.1614
 5662SOL    HW117894   6.339   0.779   2.606 -0.3621 -0.7299  0.1456
 5662SOL    HW217895   6.218   0.720   2.674 -1.6820  0.2400 -1.2961
 5663SOL     OW17896   5.997   3.624   5.076  0.3245 -0.4614 -0.5352
 5663SOL    HW117897   6.085   3.615   5.113 -0.2101  1.5969  1.4435
 5663SOL    HW217898   5.941   3.571   5.132 -0.2741  1.5439  0.8587
 5664SOL     OW17899   7.557   0.686   5.165 -0.2235 -0.1210 -0.3808
 5664SOL    HW117900   7.628   0.642   5.118 -0.0228 -0.5154  0.2819
 5664SOL    HW217901   7.566   0.657   5.256  1.0695  2.6871  0.5058
 5665SOL     OW17902   1.968   5.197   2.389 -0.0248 -0.3105  0.2119
 5665SOL    HW117903   1.915   5.156   2.458  1.3351  0.0398  1.5030
 5665SOL    HW217904   1.968   5.290   2.411  0.7039 -0.2420 -0.0780
 5666SOL     OW17905   2.834   1.415   1.331 -0.7047  0.0581  0.6749
 5666SOL    HW117906   2.762   1.396   1.271  0.6933  0.9850 -1.4115
 5666SOL    HW217907   2.805   1.493   1.378 -1.2783  0.1368  0.2159
 5667SOL     OW17908   1.364   5.451   2.501 -0.1034 -0.5696  0.1507
 5667SOL    HW117909   1.437   5.513   2.492 -1.2480  0.8593  0.2416
 5667SOL    HW217910   1.312   5.465   2.422 -1.1650 -0.3452  0.8755
 5668SOL     OW17911   2.792   1.701   4.135  0.6439  0.1849  0.5089
 5668SOL    HW117912   2.738   1.708   4.214  1.9533 -0.4434  1.5008
 5668SOL    HW217913   2.764   1.618   4.095 -1.2095  1.3053 -0.6619
 5669SOL     OW17914   7.593   7.707   5.169  0.5059  0.4075  0.1156
 5669SOL    HW117915   7.663   7.752   5.122  1.2107 -0.8534 -0.0781
 5669SOL    HW217916   7.544   7.661   5.101 -1.5744  2.5542  0.0197
 5670SOL     OW17917   2.795   0.938   1.732 -0.2690 -0.4304 -0.2073
 5670SOL    HW117918   2.847   0.866   1.696  1.5510  1.1842 -0.9274
 5670SOL    HW217919   2.708   0.926   1.693  0.9056 -0.2989 -3.0819
 5671SOL     OW17920   5.668   2.375   3.390 -0.3202  0.7295 -0.8252
 5671SOL    HW117921   5.607   2.303   3.372 -0.1629  0.8644 -1.9972
 5671SOL    HW217922   5.755   2.336   3.379 -0.2137  0.7882 -0.1889
 5672SOL     OW17923   4.695   0.456   1.488 -0.0432 -0.4336  0.4528
 5672SOL    HW117924   4.644   0.532   1.458 -0.6692 -1.0277 -0.0512
 5672SOL    HW217925   4.650   0.427   1.568  0.1298 -0.3292  0.5858
 5673SOL     OW17926   6.944   1.060   2.746 -0.5313  0.4473 -0.0280
 5673SOL    HW117927   6.865   1.012   2.772 -1.9167  2.4053 -0.3803
 5673SOL    HW217928   6.953   1.042   2.652  0.4429 -1.0693  0.3147
 5674SOL     OW17929   7.511   6.880   0.699 -0.0791 -0.1626  0.7980
 5674SOL    HW117930   7.598   6.840   0.692 -0.4414 -0.9127  0.4592
 5674SOL    HW217931   7.459   6.816   0.746 -1.2785 -1.1529 -1.7052
 5675SOL     OW17932   5.208   7.511   0.004 -0.1876  0.1299  0.0313
 5675SOL    HW117933   5.249   7.598   0.008  0.1465 -0.0340  0.2809
 5675SOL    HW217934   5.147   7.516  -0.069  0.2166  0.4143 -0.2927
 5676SOL     OW17935   0.945   3.363   6.412 -0.1050  0.3848 -0.2675
 5676SOL    HW117936   0.943   3.272   6.382 -2.3425  1.0169 -2.3878
 5676SOL    HW217937   1.033   3.394   6.391  0.3757 -1.0141 -0.3784
 5677SOL     OW17938   6.453   6.355   5.567 -0.2784  0.1096  0.5137
 5677SOL    HW117939   6.421   6.370   5.656  0.8119  1.9324  0.6491
 5677SOL    HW217940   6.540   6.317   5.578 -0.3854 -0.2228  0.2204
 5678SOL     OW17941   7.300   2.919   4.609  0.3361  0.2045  0.0230
 5678SOL    HW117942   7.300   2.867   4.529 -0.0769  0.9830 -0.5023
 5678SOL    HW217943   7.345   3.000   4.585  0.3993  0.3572  0.6379
 5679SOL     OW17944   6.473   3.009   1.369 -0.0870 -0.1654 -0.5451
 5679SOL    HW117945   6.509   2.937   1.318  0.6831 -0.7925  0.8199
 5679SOL    HW217946   6.509   3.088   1.328 -0.6512 -0.5543 -1.8332
 5680SOL     OW17947   0.820   6.212   7.395 -0.5253 -0.7468  0.5799
 5680SOL    HW117948   0.748   6.272   7.416 -0.7046 -1.0274  0.7745
 5680SOL    HW217949   0.778   6.139   7.349 -0.2878 -0.6551  0.2123
 5681SOL     OW17950   4.413   4.244   2.591 -0.0732  0.5799 -0.2262
 5681SOL    HW117951   4.413   4.339   2.602 -0.9646  0.3879  1.7263
 5681SOL    HW217952   4.435   4.209   2.678  0.9753 -1.0013 -1.0701
 5682SOL     OW17953   7.310   6.048   4.988  0.1813 -0.3556  0.2823
 5682SOL    HW117954   7.277   6.037   4.899 -0.9947 -0.5651  0.7264
 5682SOL    HW217955   7.395   6.090   4.977 -0.3908  0.5548 -0.8985
 5683SOL     OW17956   6.018   4.721   2.125  0.1726 -0.1094 -0.0010
 5683SOL    HW117957   6.102   4.754   2.158  0.4743 -0.6629 -0.2005
 5683SOL    HW217958   6.041   4.642   2.077 -0.4030  0.0544 -0.5519
 5684SOL     OW17959   0.614   4.945   4.731 -0.1713  0.0413  0.9622
 5684SOL    HW117960   0.669   5.022   4.713  0.2352 -0.3754  0.3519
 5684SOL    HW217961   0.532   4.981   4.764 -0.2328  0.7732  0.0464
 5685SOL     OW17962   0.410   1.814   0.256  0.5493 -0.5711  0.0643
 5685SOL    HW117963   0.361   1.768   0.323  0.6929 -0.8714 -0.0384
 5685SOL    HW217964   0.489   1.845   0.300  0.7540 -0.9667 -0.0211
 5686SOL     OW17965   0.946   6.082   0.549 -0.3050 -0.4027 -0.1100
 5686SOL    HW117966   1.031   6.124   0.566 -0.5856 -0.2051  0.8618
 5686SOL    HW217967   0.963   5.989   0.560  0.3397 -0.6124 -2.3553
 5687SOL     OW17968   5.359   4.803   2.852 -0.2040 -0.1160  0.7565
 5687SOL    HW117969   5.351   4.797   2.757  2.6898 -0.9390  0.4713
 5687SOL    HW217970   5.430   4.866   2.866  0.1345 -0.8046  2.3384
 5688SOL     OW17971   6.622   4.925   5.671  0.1155 -1.0104  0.0484
 5688SOL    HW117972   6.537   4.964   5.690  0.4435 -0.2087 -0.1072
 5688SOL    HW217973   6.637   4.943   5.578  1.6039  1.1816  0.6347
 5689SOL     OW17974   0.251   3.234   4.957 -0.1116 -0.1104  0.3312
 5689SOL    HW117975   0.247   3.253   4.864 -1.6290 -0.8159  0.2289
 5689SOL    HW217976   0.283   3.143   4.962  0.3298  0.0491  0.5296
 5690SOL     OW17977   7.013   6.218   0.364  0.2385 -0.1904  0.7810
 5690SOL    HW117978   7.000   6.294   0.421 -0.5102 -0.4941  1.0258
 5690SOL    HW217979   7.012   6.143   0.424 -0.1124 -0.4784  0.4241
 5691SOL     OW17980   4.612   7.087   1.399 -0.0497  0.5842 -0.1735
 5691SOL    HW117981   4.589   7.069   1.308 -0.3937 -2.0929  0.3728
 5691SOL    HW217982   4.585   7.009   1.447 -0.2111  2.0611  2.3158
 5692SOL     OW17983   4.600   4.789   6.771  0.4813  0.1788 -0.4286
 5692SOL    HW117984   4.581   4.883   6.765  0.6115  0.1981 -0.5553
 5692SOL    HW217985   4.571   4.753   6.687  3.1128  0.5916 -1.6340
 5693SOL     OW17986   5.464   6.980   0.253  0.2041 -0.2105  0.0629
 5693SOL    HW117987   5.540   6.923   0.263 -1.5528 -2.6328  0.5721
 5693SOL    HW217988   5.487   7.058   0.303  1.8900 -1.3738  1.2430
 5694SOL     OW17989   5.849   6.506   6.489  0.3313  0.3308 -0.1100
 5694SOL    HW117990   5.869   6.419   6.524  2.3320 -0.0007 -1.8708
 5694SOL    HW217991   5.905   6.565   6.539  0.1822  0.3886 -0.0114
 5695SOL     OW17992   2.007   2.186   3.562  0.5030  0.1360 -0.2755
 5695SOL    HW117993   1.935   2.208   3.504  0.8902 -0.6718 -1.0964
 5695SOL    HW217994   2.084   2.183   3.505  0.8890 -0.7216  0.2528
 5696SOL     OW17995   1.970   3.543   6.293 -0.4795 -0.4856 -0.4704
 5696SOL    HW117996   1.974   3.449   6.310 -1.1902 -0.4245  0.1128
 5696SOL    HW217997   1.910   3.576   6.360 -0.0861  0.4109 -0.5537
 5697SOL     OW17998   3.062   4.871   2.820 -0.3222 -0.1178 -0.3584
 5697SOL    HW117999   3.077   4.891   2.912 -1.6126 -1.0087  0.0815
 5697SOL    HW218000   2.990   4.929   2.794 -1.4684 -1.3934 -0.1479
 5698SOL     OW18001   5.547   2.728   7.708  0.2882  0.1004 -0.4434
 5698SOL    HW118002   5.494   2.703   7.784 -1.5088  0.1618 -1.6206
 5698SOL    HW218003   5.619   2.779   7.746 -0.5935  0.2013  1.2202
 5699SOL     OW18004   3.713   4.305   0.905  0.2187  0.2591  1.2012
 5699SOL    HW118005   3.744   4.348   0.826  2.9995 -4.2706 -0.5541
 5699SOL    HW218006   3.781   4.323   0.970  1.3977 -1.2693  0.4596
 5700SOL     OW18007   3.439   5.441   5.761 -0.2618 -0.0433  0.1844
 5700SOL    HW118008   3.391   5.376   5.812  1.0273  0.2772  1.8900
 5700SOL    HW218009   3.388   5.451   5.681 -2.8408  0.0521  1.7390
 5701SOL     OW18010   2.985   1.686   5.848  0.1197  0.3637 -0.1767
 5701SOL    HW118011   2.983   1.682   5.753 -0.8860 -0.1481 -0.1449
 5701SOL    HW218012   2.984   1.780   5.869 -0.2784  0.4670 -0.6582
 5702SOL     OW18013   7.599   5.026   4.842  0.1598 -0.0329  0.9437
 5702SOL    HW118014   7.518   5.030   4.893  0.3388 -1.7980  1.4417
 5702SOL    HW218015   7.571   5.038   4.751 -0.2125  2.7747  1.3470
 5703SOL     OW18016   4.323   7.560   3.881  0.0320 -0.0687 -0.0168
 5703SOL    HW118017   4.324   7.656   3.885  0.9484 -0.1062  1.1958
 5703SOL    HW218018   4.399   7.537   3.828  1.3684 -0.1423  1.8044
 5704SOL     OW18019   1.162   5.314   5.258  0.0582  0.1121  0.4861
 5704SOL    HW118020   1.133   5.383   5.198 -0.4989  0.6966  1.4129
 5704SOL    HW218021   1.105   5.322   5.334  0.1731 -1.2034  0.7255
 5705SOL     OW18022   0.389   0.050   0.908 -0.7372 -0.5422 -0.0894
 5705SOL    HW118023   0.345   0.119   0.958  0.2492  1.0173 -1.2924
 5705SOL    HW218024   0.321   0.018   0.848 -0.6391  0.9325 -1.0274
 5706SOL     OW18025   7.313   2.970   6.851 -0.2758  0.5605  0.0236
 5706SOL    HW118026   7.290   3.031   6.921 -1.3584  0.8505 -0.5583
 5706SOL    HW218027   7.249   2.988   6.782  1.2999  0.9005 -1.4109
 5707SOL     OW18028   5.770   2.725   6.954 -0.5405  0.4620 -0.1589
 5707SOL    HW118029   5.828   2.775   7.012  0.6983 -1.1072  0.0297
 5707SOL    HW218030   5.724   2.791   6.903  0.6187  1.8030  0.4671
 5708SOL     OW18031   7.310   5.534   5.507  0.0037 -0.0026 -0.2898
 5708SOL    HW118032   7.253   5.530   5.584 -0.4701 -0.7017 -0.6719
 5708SOL    HW218033   7.314   5.627   5.486  2.8487  0.7060  2.5678
 5709SOL     OW18034   0.889   3.519   5.071  0.1199 -0.2826 -0.4695
 5709SOL    HW118035   0.810   3.522   5.017 -0.1602  0.9473 -0.0335
 5709SOL    HW218036   0.863   3.559   5.154  1.2392  0.3273 -0.3858
 5710SOL     OW18037   7.020   4.049   2.560 -0.3467  0.4977 -0.1593
 5710SOL    HW118038   7.054   4.135   2.534  0.1095  0.6238  0.8355
 5710SOL    HW218039   6.926   4.062   2.568 -0.0298  1.6234  2.5530
 5711SOL     OW18040   6.642   7.314   5.404 -0.9368 -0.6430 -0.3405
 5711SOL    HW118041   6.707   7.326   5.473 -0.1521  0.1437 -1.1972
 5711SOL    HW218042   6.638   7.219   5.391  1.2624 -0.6521 -1.3830
 5712SOL     OW18043   7.438   5.362   4.601  0.6547 -0.1563  0.0195
 5712SOL    HW118044   7.498   5.322   4.664  1.1278 -0.0859 -0.3770
 5712SOL    HW218045   7.378   5.414   4.654  2.5647  1.9297  0.2735
 5713SOL     OW18046   5.011   6.777   2.840 -0.0736  0.2673  0.4472
 5713SOL    HW118047   4.969   6.797   2.757  0.2167 -1.0987 -0.0709
 5713SOL    HW218048   4.940   6.749   2.897 -0.3569  1.8071  0.8858
 5714SOL     OW18049   6.913   7.157   6.060  0.1796 -0.3238 -0.2253
 5714SOL    HW118050   6.929   7.074   6.106 -0.2178 -0.9038 -1.0952
 5714SOL    HW218051   6.885   7.218   6.129  1.1038 -0.7237  0.5237
 5715SOL     OW18052   2.624   7.325   4.454  0.4021  0.0761  0.2853
 5715SOL    HW118053   2.688   7.306   4.522  0.4881  0.4204  0.3023
 5715SOL    HW218054   2.563   7.387   4.495  1.7876  2.1725 -0.6636
 5716SOL     OW18055   4.226   3.459   6.388 -0.0290  0.0056  0.3504
 5716SOL    HW118056   4.152   3.515   6.367  1.2310  0.9904 -1.8494
 5716SOL    HW218057   4.233   3.399   6.314  1.3183 -0.0887  0.5189
 5717SOL     OW18058   0.621   7.312   0.102  0.4913  0.5377  0.1300
 5717SOL    HW118059   0.701   7.268   0.073  0.1606  0.1445 -0.2077
 5717SOL    HW218060   0.605   7.379   0.036  0.6694  0.7675  0.3215
 5718SOL     OW18061   6.794   3.454   1.754  0.1554  0.4846  0.2154
 5718SOL    HW118062   6.854   3.418   1.820 -0.3874  1.6845  1.4126
 5718SOL    HW218063   6.816   3.547   1.749 -0.7212  0.6769 -0.3028
 5719SOL     OW18064   1.285   4.084   0.093  0.6037 -0.1184 -0.1036
 5719SOL    HW118065   1.205   4.131   0.117  0.7507 -0.5739  1.4071
 5719SOL    HW218066   1.337   4.148   0.046 -0.1700  0.5382 -0.0846
 5720SOL     OW18067   2.806   2.810   4.935  0.1762  0.0648  0.0561
 5720SOL    HW118068   2.796   2.765   4.851 -0.3754  0.9059 -0.3475
 5720SOL    HW218069   2.899   2.802   4.955 -0.1984 -3.0044  1.0443
 5721SOL     OW18070   6.747   5.747   4.428  0.1133 -0.1757 -0.1408
 5721SOL    HW118071   6.669   5.691   4.433  0.5396 -0.7482  0.2505
 5721SOL    HW218072   6.778   5.754   4.518  0.2751  0.4003 -0.2376
 5722SOL     OW18073   4.592   3.809   4.687  0.7136 -0.2711  0.1704
 5722SOL    HW118074   4.498   3.798   4.703  0.9279  0.9299  2.8260
 5722SOL    HW218075   4.608   3.902   4.706  2.1925 -0.0441 -1.9024
 5723SOL     OW18076   6.675   2.235   6.331 -0.1210 -0.6490 -0.4315
 5723SOL    HW118077   6.640   2.147   6.343 -0.9394 -0.2082  0.4390
 5723SOL    HW218078   6.659   2.255   6.239  1.4484 -1.9802 -1.0519
 5724SOL     OW18079   7.534   7.737   1.853  0.5663 -0.4254  0.2328
 5724SOL    HW118080   7.516   7.668   1.788  4.1390 -0.8271 -0.5049
 5724SOL    HW218081   7.525   7.693   1.937 -2.3225 -0.3560  0.0584
 5725SOL     OW18082   2.202   3.555   2.924  0.2399 -0.8660  0.2479
 5725SOL    HW118083   2.204   3.472   2.970 -1.2011 -1.2801 -0.3955
 5725SOL    HW218084   2.189   3.532   2.832 -0.7155  0.0602  0.1262
 5726SOL     OW18085   1.947   5.217   4.982  0.1428  0.0057 -0.1076
 5726SOL    HW118086   1.964   5.303   4.944 -0.8251  0.0964 -0.3622
 5726SOL    HW218087   2.033   5.185   5.008  0.6128  0.6988 -0.7622
 5727SOL     OW18088   7.626   7.104   6.266  0.1091  0.0119 -0.2930
 5727SOL    HW118089   7.560   7.161   6.227 -0.6901 -1.2483 -0.8205
 5727SOL    HW218090   7.678   7.162   6.322 -1.3883  1.0354  0.0692
 5728SOL     OW18091   1.852   1.445   4.044  0.0911 -0.1806 -0.1553
 5728SOL    HW118092   1.804   1.371   4.007 -0.2376  0.7814 -1.7443
 5728SOL    HW218093   1.811   1.522   4.005  1.0391  0.8029  0.7310
 5729SOL     OW18094   3.223   1.181   2.665 -0.4308 -0.4495  0.2009
 5729SOL    HW118095   3.129   1.178   2.644 -1.3038  1.6036  3.0516
 5729SOL    HW218096   3.240   1.098   2.711 -0.6127 -1.1725 -0.9979
 5730SOL     OW18097   2.365   5.199   5.962  0.6948  0.2233 -0.3536
 5730SOL    HW118098   2.354   5.144   6.040 -0.2317  0.0769 -0.5725
 5730SOL    HW218099   2.276   5.231   5.943  1.3680  2.9680  0.5902
 5731SOL     OW18100   1.631   5.458   3.669 -0.0965  0.0170  0.1216
 5731SOL    HW118101   1.651   5.537   3.619  0.4718 -0.4288 -0.3639
 5731SOL    HW218102   1.635   5.487   3.761 -0.4518  0.6741 -0.0607
 5732SOL     OW18103   1.288   1.261   7.568  0.3708 -0.2745 -0.1165
 5732SOL    HW118104   1.225   1.248   7.639  1.0880 -0.2125  0.5448
 5732SOL    HW218105   1.324   1.175   7.552  0.3913 -0.2436 -0.2354
 5733SOL     OW18106   0.029   2.534   0.498 -0.2749 -0.6750  0.3315
 5733SOL    HW118107  -0.061   2.565   0.484 -0.0269  0.8516  1.7356
 5733SOL    HW218108   0.080   2.578   0.430 -0.3309 -0.0426  0.6867
 5734SOL     OW18109   6.714   2.323   2.580  0.3030 -0.5996 -0.2804
 5734SOL    HW118110   6.712   2.383   2.505  0.7158  1.1480  1.0300
 5734SOL    HW218111   6.685   2.239   2.545  1.7450 -0.1776 -2.6722
 5735SOL     OW18112   7.489   2.107   1.342  0.2974  0.1750  0.1583
 5735SOL    HW118113   7.539   2.025   1.343  0.0063 -0.0865 -1.8552
 5735SOL    HW218114   7.535   2.163   1.405  2.9944 -0.1396 -1.3557
 5736SOL     OW18115   5.412   7.522   2.810  0.2315 -0.3630  0.1675
 5736SOL    HW118116   5.351   7.487   2.875 -1.0710  2.0234  0.3586
 5736SOL    HW218117   5.392   7.616   2.807  2.4869  0.1458 -1.3323
 5737SOL     OW18118   7.547   4.933   4.250 -0.0344  0.5738 -0.4656
 5737SOL    HW118119   7.539   4.850   4.204  1.1456 -0.5487  1.2626
 5737SOL    HW218120   7.528   4.999   4.183 -0.0049 -1.0245 -2.1234
 5738SOL     OW18121   5.101   1.418   7.017  0.6687  0.1821  0.1840
 5738SOL    HW118122   5.170   1.416   7.083 -0.4499 -2.0035  1.4502
 5738SOL    HW218123   5.094   1.509   6.990  1.1818  1.1807  3.1356
 5739SOL     OW18124   1.710   1.559   4.867  0.1735  0.5553 -0.6571
 5739SOL    HW118125   1.739   1.647   4.891  2.5668 -0.1692 -0.6262
 5739SOL    HW218126   1.775   1.501   4.907 -3.5729 -1.6425  3.0700
 5740SOL     OW18127   3.753   1.061   1.355 -0.0610 -0.4281 -0.0470
 5740SOL    HW118128   3.826   1.114   1.387 -1.0669  2.3240 -1.9201
 5740SOL    HW218129   3.675   1.111   1.378 -0.9889 -0.3187 -2.9981
 5741SOL     OW18130   1.335   7.722   7.645  0.2764  0.0904 -0.0892
 5741SOL    HW118131   1.269   7.789   7.662  0.1869 -0.7237  3.6515
 5741SOL    HW218132   1.359   7.734   7.553 -2.4951  2.6850 -0.6202
 5742SOL     OW18133   1.714   0.336   2.050 -0.1908  0.3995 -0.0451
 5742SOL    HW118134   1.808   0.351   2.046  0.3458 -2.2625  0.7071
 5742SOL    HW218135   1.688   0.321   1.959  0.2683  0.3733 -0.1746
 5743SOL     OW18136   5.360   0.748   5.402  0.7194 -0.1994 -0.4892
 5743SOL    HW118137   5.334   0.773   5.314  1.4793 -0.3250 -0.7555
 5743SOL    HW218138   5.419   0.673   5.390 -0.2733 -1.1348  0.2046
 5744SOL     OW18139   0.822   1.210   3.478  0.3889  0.6402  0.6493
 5744SOL    HW118140   0.729   1.211   3.459  0.5832  2.4457 -0.5425
 5744SOL    HW218141   0.863   1.182   3.396  0.8726 -1.5955  1.5958
 5745SOL     OW18142   4.902   6.738   5.698 -0.0595 -0.3338 -0.5015
 5745SOL    HW118143   4.818   6.766   5.734  0.8149  0.2403  1.2213
 5745SOL    HW218144   4.898   6.642   5.699 -0.2502 -0.3383  0.7849
 5746SOL     OW18145   5.588   7.612   0.963  0.5102 -0.6159  0.6178
 5746SOL    HW118146   5.659   7.566   1.008 -0.2339 -1.2818  1.1389
 5746SOL    HW218147   5.508   7.574   1.000 -0.1309  0.9314  0.8724
 5747SOL     OW18148   5.379   0.053   1.969 -0.3433 -0.2724 -0.2441
 5747SOL    HW118149   5.327   0.018   1.896  0.1748 -1.0601 -0.2498
 5747SOL    HW218150   5.326   0.033   2.047 -0.8059  0.3973 -0.3763
 5748SOL     OW18151   2.085   6.051   5.068  0.0836  0.1806  0.5048
 5748SOL    HW118152   2.108   6.131   5.114 -1.0748  0.8385  0.0033
 5748SOL    HW218153   2.041   6.082   4.988  2.7638 -0.8753 -1.5073
 5749SOL     OW18154   0.009   2.969   5.007 -0.0619  0.0996 -1.0739
 5749SOL    HW118155   0.027   2.914   4.930  1.1292 -1.5517  0.3062
 5749SOL    HW218156   0.004   3.058   4.972  1.0126 -0.5368 -2.9973
 5750SOL     OW18157   3.172   5.440   0.180 -0.0666  0.2193 -0.2537
 5750SOL    HW118158   3.199   5.393   0.259 -1.5534  0.1347  0.2357
 5750SOL    HW218159   3.151   5.372   0.116  1.4861  0.2895 -0.8774
 5751SOL     OW18160   4.809   6.262   7.237 -0.4544 -0.2202  0.3306
 5751SOL    HW118161   4.778   6.342   7.280 -0.8191  0.5410 -1.2581
 5751SOL    HW218162   4.875   6.293   7.174 -0.3968 -1.1939 -0.1082
 5752SOL     OW18163   1.140   7.664   7.240 -0.2592  0.2771 -0.4205
 5752SOL    HW118164   1.230   7.637   7.224 -0.5266 -0.9076 -0.0595
 5752SOL    HW218165   1.119   7.627   7.326 -1.9398 -1.8192 -1.6481
 5753SOL     OW18166   0.625   3.252   5.032 -0.0368  0.0101  0.2479
 5753SOL    HW118167   0.593   3.272   5.121  3.0302 -0.4717  1.5865
 5753SOL    HW218168   0.619   3.157   5.025 -0.2956  0.0495 -0.0885
 5754SOL     OW18169   2.866   7.569   6.429 -0.1576 -0.3603  0.2071
 5754SOL    HW118170   2.827   7.608   6.351 -0.3168 -0.4686  0.2301
 5754SOL    HW218171   2.799   7.507   6.460 -0.0957 -0.3187  0.4274
 5755SOL     OW18172   4.063   1.813   1.251 -0.0333  0.0332  0.9686
 5755SOL    HW118173   4.139   1.865   1.226 -0.4061 -0.0429 -0.4238
 5755SOL    HW218174   4.018   1.867   1.316 -0.2994  1.3923 -0.2810
 5756SOL     OW18175   1.248   6.436   4.254  0.5829  0.0898  0.2235
 5756SOL    HW118176   1.255   6.417   4.347  0.6638  2.4470  0.7485
 5756SOL    HW218177   1.336   6.465   4.229  0.2688  0.6002 -0.3138
 5757SOL     OW18178   6.549   0.619   5.907  1.0749 -0.3215  0.2405
 5757SOL    HW118179   6.484   0.556   5.938  0.2613  0.3433 -0.0665
 5757SOL    HW218180   6.579   0.664   5.986 -0.9774  1.3549  0.1480
 5758SOL     OW18181   4.185   6.463   0.442  0.0555  0.0709 -0.1869
 5758SOL    HW118182   4.181   6.460   0.346 -0.3142 -1.3958 -0.1420
 5758SOL    HW218183   4.105   6.420   0.471 -0.5312  1.7525  0.8040
 5759SOL     OW18184   0.501   4.390   4.661  0.2893  0.6667 -0.3980
 5759SOL    HW118185   0.503   4.342   4.743 -3.3167 -2.4520 -1.8057
 5759SOL    HW218186   0.431   4.455   4.672 -0.3863  0.0663 -0.9707
 5760SOL     OW18187   5.910   5.278   6.144 -0.2481  0.6481  0.0011
 5760SOL    HW118188   5.936   5.363   6.178 -1.4323  1.3813 -0.8375
 5760SOL    HW218189   5.962   5.215   6.193 -1.7688  1.6027  3.0840
 5761SOL     OW18190   2.901   1.054   3.827  0.2859  0.0512  0.4886
 5761SOL    HW118191   2.898   0.966   3.790 -1.6927 -0.4290  1.6469
 5761SOL    HW218192   2.941   1.042   3.913  0.1740  0.3000  0.5771
 5762SOL     OW18193   0.534   6.435   3.889 -0.1385 -0.1445 -0.0042
 5762SOL    HW118194   0.537   6.522   3.928 -0.5120 -0.0419 -0.1932
 5762SOL    HW218195   0.519   6.451   3.796 -0.8977 -0.4194  0.0576
 5763SOL     OW18196   6.701   2.691   3.478  0.2187  0.0452 -0.0310
 5763SOL    HW118197   6.795   2.679   3.489  0.6119  1.6494 -1.3130
 5763SOL    HW218198   6.681   2.653   3.393  0.1178  1.5968 -0.7182
 5764SOL     OW18199   7.108   7.027   2.227  0.1754  0.4433 -0.0108
 5764SOL    HW118200   7.171   6.979   2.281  0.2835  1.8834  1.2209
 5764SOL    HW218201   7.102   7.113   2.269 -0.6229  1.2262 -1.6520
 5765SOL     OW18202   6.660   3.215   6.154 -0.0388 -0.2125 -0.0653
 5765SOL    HW118203   6.706   3.299   6.154 -0.9048  0.4065  3.1783
 5765SOL    HW218204   6.718   3.156   6.201 -1.7060  0.1644  2.6835
 5766SOL     OW18205   1.008   1.536   4.716  0.2508 -0.0387 -0.4749
 5766SOL    HW118206   1.101   1.554   4.725  0.0211  0.3668  1.7268
 5766SOL    HW218207   0.985   1.491   4.797 -0.7825 -3.4788 -2.4792
 5767SOL     OW18208   3.624   2.184   1.716 -0.1137 -0.4357  0.4342
 5767SOL    HW118209   3.612   2.242   1.792 -1.0395  1.1556 -0.8548
 5767SOL    HW218210   3.536   2.148   1.700 -0.0880 -0.1884 -0.3055
 5768SOL     OW18211   5.810   5.469   0.879 -0.1867  0.1224  0.1976
 5768SOL    HW118212   5.837   5.560   0.884 -1.0476  0.3894  0.0691
 5768SOL    HW218213   5.723   5.467   0.917  0.0260 -0.7398  0.6567
 5769SOL     OW18214   1.498   2.946   6.196  0.0084  0.0017 -0.3446
 5769SOL    HW118215   1.538   2.877   6.143 -1.1514  0.1441 -1.4466
 5769SOL    HW218216   1.493   3.022   6.139  1.2110  1.0210  0.8418
 5770SOL     OW18217   3.436   3.144   1.951  0.1274  0.5463  0.7040
 5770SOL    HW118218   3.418   3.149   1.857  1.5438 -1.3847  0.2694
 5770SOL    HW218219   3.531   3.132   1.957  0.2760  2.0457  2.4852
 5771SOL     OW18220   0.960   0.044   0.565  0.3456 -0.1036  1.0105
 5771SOL    HW118221   0.958  -0.025   0.499  1.6798  0.3518  0.4565
 5771SOL    HW218222   1.049   0.078   0.561 -0.4573  2.1367  0.7764
 5772SOL     OW18223   0.711   1.326   4.543  0.1165  1.1287 -0.6105
 5772SOL    HW118224   0.690   1.272   4.466  1.2630 -1.2479  0.6439
 5772SOL    HW218225   0.771   1.272   4.595  0.3199  3.1385  1.3895
 5773SOL     OW18226   3.851   4.993   0.216 -0.1998 -0.2531  0.6673
 5773SOL    HW118227   3.909   4.994   0.292 -0.8610  0.7215  1.1835
 5773SOL    HW218228   3.848   5.085   0.187 -1.1424 -0.3569  0.3983
 5774SOL     OW18229   0.357   1.674   0.484 -0.0506 -0.4299  0.4652
 5774SOL    HW118230   0.436   1.621   0.474  0.1009 -0.2975  0.9529
 5774SOL    HW218231   0.286   1.616   0.459  0.2342 -0.4124 -0.4198
 5775SOL     OW18232   0.856   2.165   4.377 -0.5850  0.6442 -0.5566
 5775SOL    HW118233   0.830   2.204   4.294 -1.6954 -0.7247 -0.8900
 5775SOL    HW218234   0.789   2.098   4.394  0.5090 -0.1956  0.6260
 5776SOL     OW18235   1.430   0.496   5.397  0.6258  0.2744 -0.4153
 5776SOL    HW118236   1.335   0.492   5.392  0.4358  1.4388  1.3588
 5776SOL    HW218237   1.456   0.410   5.430  0.1249  0.2576 -0.0630
 5777SOL     OW18238   1.929   1.506   6.355  0.4503  0.3644 -0.3555
 5777SOL    HW118239   1.933   1.537   6.446  0.9830  2.2933 -0.9711
 5777SOL    HW218240   1.905   1.414   6.361  0.5688  0.4326  1.7427
 5778SOL     OW18241   3.585   5.568   0.426  0.2287 -0.1767 -0.5007
 5778SOL    HW118242   3.522   5.602   0.363 -0.9261  1.1137  1.2445
 5778SOL    HW218243   3.549   5.485   0.455 -0.6184  0.4480  0.3164
 5779SOL     OW18244   5.606   4.574   0.365  0.2777 -0.0236  0.1635
 5779SOL    HW118245   5.571   4.649   0.318 -0.4837  0.4514  1.4220
 5779SOL    HW218246   5.671   4.537   0.307  0.6674  1.6131 -0.4927
 5780SOL     OW18247   2.197   7.648   4.991  0.3274 -0.0899 -0.3115
 5780SOL    HW118248   2.190   7.564   4.946 -0.8624 -0.3206  0.2667
 5780SOL    HW218249   2.126   7.701   4.954  0.0209  0.0867  0.5162
 5781SOL     OW18250   1.311   4.684   3.928 -0.0878 -0.1173 -0.0890
 5781SOL    HW118251   1.298   4.609   3.986  1.4918  1.8866  3.1212
 5781SOL    HW218252   1.249   4.750   3.961  1.1043  1.2048 -0.4208
 5782SOL     OW18253   6.115   6.449   0.634 -0.4993 -0.2210 -0.6789
 5782SOL    HW118254   6.088   6.357   0.636 -2.3956  0.2951 -0.9757
 5782SOL    HW218255   6.156   6.463   0.720 -0.2735 -1.3112 -0.5923
 5783SOL     OW18256   3.514   3.044   7.510 -0.1665  0.4236  0.3027
 5783SOL    HW118257   3.593   2.989   7.514 -0.8664 -0.6338 -0.1654
 5783SOL    HW218258   3.536   3.113   7.447 -0.4277 -1.2454 -1.7075
 5784SOL     OW18259   3.482   1.289   0.055 -0.0539 -0.0186  0.1968
 5784SOL    HW118260   3.395   1.262   0.084  0.4050 -0.4505  1.2384
 5784SOL    HW218261   3.495   1.243  -0.028 -1.4292  1.2973 -0.7988
 5785SOL     OW18262   3.452   6.670   3.774  0.4432 -0.4664  0.6718
 5785SOL    HW118263   3.524   6.732   3.764  0.3251 -0.0613  2.1397
 5785SOL    HW218264   3.420   6.656   3.685  1.4017  0.4628  0.1616
 5786SOL     OW18265   7.578   1.765   3.048 -0.0588 -0.0312 -0.1735
 5786SOL    HW118266   7.512   1.829   3.076  0.0526  0.4088 -0.8837
 5786SOL    HW218267   7.654   1.818   3.025  1.0360 -0.6263  1.9148
 5787SOL     OW18268   3.527   4.300   4.466 -0.6375  0.1671  0.6651
 5787SOL    HW118269   3.511   4.289   4.372 -0.5326  1.4831  0.4850
 5787SOL    HW218270   3.453   4.353   4.497  0.3293  1.3923  0.9428
 5788SOL     OW18271   0.371   1.917   5.537 -0.0823 -0.1747  0.0538
 5788SOL    HW118272   0.429   1.847   5.506  1.1365  0.4719  0.7623
 5788SOL    HW218273   0.312   1.935   5.464  1.5038  0.0585 -1.2302
 5789SOL     OW18274   7.464   2.165   1.912 -0.1989 -0.0787  0.0381
 5789SOL    HW118275   7.383   2.115   1.899 -0.4180  0.3849 -0.4860
 5789SOL    HW218276   7.458   2.197   2.002  0.5373 -1.9956  0.8199
 5790SOL     OW18277   0.136   4.833   3.823 -0.3625  0.0168  0.1320
 5790SOL    HW118278   0.126   4.757   3.766 -0.5930 -0.3152  0.6120
 5790SOL    HW218279   0.075   4.817   3.895 -0.4935  0.7113  0.1776
 5791SOL     OW18280   3.259   6.901   5.626 -0.4266 -0.0917 -0.0844
 5791SOL    HW118281   3.195   6.964   5.593 -0.3056 -0.2928 -0.7164
 5791SOL    HW218282   3.218   6.864   5.704 -1.1664 -0.3492 -0.5816
 5792SOL     OW18283   3.959   6.769   7.281 -0.3693  0.6574 -0.1708
 5792SOL    HW118284   3.876   6.729   7.307  0.4048  0.0044  1.4416
 5792SOL    HW218285   3.937   6.825   7.207 -2.0619 -0.2888 -0.4308
 5793SOL     OW18286   3.520   1.597   4.151 -0.2681 -0.2753  0.0802
 5793SOL    HW118287   3.490   1.679   4.189 -2.0264 -1.6804  1.9545
 5793SOL    HW218288   3.577   1.559   4.217 -1.1624 -1.5000  0.1902
 5794SOL     OW18289   1.088   6.693   2.050 -0.3954  0.6141 -0.0727
 5794SOL    HW118290   1.033   6.730   1.982  1.0060  1.2474 -0.9103
 5794SOL    HW218291   1.142   6.628   2.005 -0.2554  0.1948  0.6724
 5795SOL     OW18292   0.330   2.533   0.484  0.0750 -0.3657 -0.3867
 5795SOL    HW118293   0.380   2.599   0.532  0.7513 -1.3079  0.2399
 5795SOL    HW218294   0.262   2.583   0.439  1.1070  0.8708 -0.6569
 5796SOL     OW18295   6.376   7.452   7.669 -0.2123  0.0085  0.3364
 5796SOL    HW118296   6.387   7.446   7.574  0.3001 -0.4707  0.4190
 5796SOL    HW218297   6.302   7.512   7.681 -0.2536  0.1073 -0.3612
 5797SOL     OW18298   3.940   0.237   7.612  0.3724  0.1156 -0.0191
 5797SOL    HW118299   4.031   0.251   7.640  0.2209  2.9792 -0.6149
 5797SOL    HW218300   3.932   0.287   7.531 -2.0181  0.8627  0.5984
 5798SOL     OW18301   2.947   0.701   0.057 -0.1680  0.3196  0.8835
 5798SOL    HW118302   2.858   0.674   0.083 -0.4854 -0.0006 -0.4847
 5798SOL    HW218303   2.933   0.768  -0.009  0.6124  0.3568  0.7525
 5799SOL     OW18304   6.378   4.344   4.519  0.3804 -0.4550 -0.1426
 5799SOL    HW118305   6.455   4.352   4.462  0.9813  0.5257  0.7728
 5799SOL    HW218306   6.358   4.433   4.546 -0.3218 -0.8265  0.6268
 5800SOL     OW18307   1.909   4.307   2.146 -0.1430  0.3827 -0.4077
 5800SOL    HW118308   1.996   4.346   2.159  0.1044 -0.3777  0.2556
 5800SOL    HW218309   1.872   4.358   2.073  0.6071  1.1247 -0.2994
 5801SOL     OW18310   1.916   5.047   3.299 -0.3871  0.2531 -0.0590
 5801SOL    HW118311   1.987   4.982   3.298 -0.1586  0.5020 -0.2181
 5801SOL    HW218312   1.960   5.129   3.322 -0.9325  0.0578  1.8329
 5802SOL     OW18313   1.889   7.205   3.162 -0.4342 -0.1095 -0.0734
 5802SOL    HW118314   1.909   7.283   3.214 -1.0420 -0.8553  1.3333
 5802SOL    HW218315   1.972   7.157   3.157 -0.3924 -0.0745  0.2902
 5803SOL     OW18316   1.747   0.995   5.680 -0.0930 -0.1754  0.0049
 5803SOL    HW118317   1.772   1.079   5.641  0.7220 -0.3858  0.0467
 5803SOL    HW218318   1.663   1.012   5.723  0.3716  0.7935  0.5658
 5804SOL     OW18319   6.752   2.685   4.919 -0.7100  0.0095 -0.3440
 5804SOL    HW118320   6.684   2.743   4.887 -1.5717 -1.1598 -0.6785
 5804SOL    HW218321   6.761   2.618   4.851  0.5117 -0.0660 -0.1310
 5805SOL     OW18322   4.727   6.085   4.889 -0.0338 -0.3806  0.3154
 5805SOL    HW118323   4.662   6.042   4.946  0.0358  0.2712  0.8997
 5805SOL    HW218324   4.701   6.060   4.800  0.4915 -2.3075  0.6545
 5806SOL     OW18325   0.078   7.095   6.552  0.2820  0.1598  0.5187
 5806SOL    HW118326  -0.009   7.055   6.551  0.1131  0.5197  0.8079
 5806SOL    HW218327   0.135   7.027   6.515 -0.5427  0.9704 -2.5424
 5807SOL     OW18328   4.174   7.545   2.947 -0.3432  0.1229  0.0191
 5807SOL    HW118329   4.226   7.589   3.015 -0.5985  0.3926  0.0399
 5807SOL    HW218330   4.223   7.561   2.866  0.5563 -1.1421  0.2820
 5808SOL     OW18331   6.356   6.254   1.464 -0.6226 -0.3565 -0.5234
 5808SOL    HW118332   6.401   6.319   1.410 -0.9081 -0.4014 -0.8208
 5808SOL    HW218333   6.288   6.218   1.407 -0.7702 -0.5815 -0.2115
 5809SOL     OW18334   7.084   0.259   4.603 -0.2490  1.0810 -0.0224
 5809SOL    HW118335   7.160   0.315   4.620 -0.3780  1.5289 -0.8518
 5809SOL    HW218336   7.121   0.181   4.562 -0.0653  0.5133  1.1658
 5810SOL     OW18337   7.285   1.906   6.058  0.6907 -0.1973 -0.1487
 5810SOL    HW118338   7.343   1.930   5.985  0.9016 -0.3812 -0.0435
 5810SOL    HW218339   7.244   1.824   6.030 -0.3481  0.4766 -0.6888
 5811SOL     OW18340   0.857   5.478   2.164  0.0261 -0.0224 -0.0007
 5811SOL    HW118341   0.923   5.410   2.174  0.2568  0.2207  0.1321
 5811SOL    HW218342   0.850   5.492   2.069 -0.4959 -0.6905 -0.0708
 5812SOL     OW18343   0.110   0.709   7.032  0.5524  0.1817 -0.0887
 5812SOL    HW118344   0.188   0.667   6.996  0.6353  0.5267 -0.3164
 5812SOL    HW218345   0.037   0.671   6.984  0.7483  1.6300 -1.6313
 5813SOL     OW18346   7.292   7.221   4.330 -0.3226  0.0891 -0.0363
 5813SOL    HW118347   7.352   7.292   4.352 -1.5578  1.0840  0.2984
 5813SOL    HW218348   7.344   7.142   4.336  1.0937  0.9661 -0.3901
 5814SOL     OW18349   6.384   4.226   7.462  0.1631 -0.0870  0.2999
 5814SOL    HW118350   6.322   4.261   7.525  2.3495  0.8715  2.0511
 5814SOL    HW218351   6.435   4.161   7.510  1.7060  0.4522 -0.5175
 5815SOL     OW18352   1.824   3.183   4.248 -0.4455 -0.1770 -0.6016
 5815SOL    HW118353   1.794   3.265   4.286 -0.2923 -0.9439  1.2681
 5815SOL    HW218354   1.831   3.201   4.154 -3.9062  0.9008 -0.7964
 5816SOL     OW18355   5.470   6.697   6.544  0.1639 -0.5348  0.3532
 5816SOL    HW118356   5.466   6.690   6.640  1.6845  0.2836  0.5047
 5816SOL    HW218357   5.400   6.758   6.522  0.8291  0.5541  1.1280
 5817SOL     OW18358   2.080   1.863   3.309  0.0263 -0.3588 -1.0589
 5817SOL    HW118359   2.104   1.934   3.369 -1.6979 -0.5734 -0.0621
 5817SOL    HW218360   2.162   1.841   3.265  0.8541  1.3971 -0.4812
 5818SOL     OW18361   7.233   0.937   2.053  0.0529  0.0334 -0.1681
 5818SOL    HW118362   7.273   0.917   2.137  0.5028 -1.1308 -0.6280
 5818SOL    HW218363   7.305   0.974   2.001  0.1514 -0.5578 -0.4720
 5819SOL     OW18364   7.282   1.393   1.409 -0.8073  0.0140  0.4064
 5819SOL    HW118365   7.321   1.306   1.399 -4.4433 -1.8637  0.9746
 5819SOL    HW218366   7.329   1.432   1.482  2.1667 -0.6151 -1.0186
 5820SOL     OW18367   3.699   1.487   4.335 -0.1702 -0.1307 -0.0473
 5820SOL    HW118368   3.675   1.406   4.380 -0.2170  0.2339  0.5932
 5820SOL    HW218369   3.703   1.553   4.404  0.5595  0.2708 -0.4602
 5821SOL     OW18370   3.824   5.224   6.533 -0.2756 -0.1708  0.4894
 5821SOL    HW118371   3.884   5.298   6.528 -1.7020  0.9820 -0.9137
 5821SOL    HW218372   3.741   5.259   6.501 -0.9443 -2.4602 -0.4682
 5822SOL     OW18373   2.558   4.524   5.851  0.5893  0.2730  0.9314
 5822SOL    HW118374   2.583   4.520   5.758 -0.3398 -2.4025  0.7269
 5822SOL    HW218375   2.542   4.617   5.866  2.0164  0.9595 -1.2324
 5823SOL     OW18376   3.572   6.949   3.740  0.0097 -0.5050  0.1258
 5823SOL    HW118377   3.658   6.991   3.745  0.5302 -1.6727  1.8329
 5823SOL    HW218378   3.551   6.926   3.831 -1.7780 -0.9245 -0.3488
 5824SOL     OW18379   6.332   3.872   7.222  0.0209 -0.5347 -0.1515
 5824SOL    HW118380   6.324   3.859   7.316  1.0363 -0.7557 -0.0822
 5824SOL    HW218381   6.365   3.962   7.213 -0.5490 -0.3362 -0.3267
 5825SOL     OW18382   5.341   4.408   2.727 -0.6778  0.0755  0.3157
 5825SOL    HW118383   5.255   4.384   2.761 -0.0604 -2.3875  0.2819
 5825SOL    HW218384   5.401   4.392   2.800  0.3088 -2.7382 -0.9892
 5826SOL     OW18385   5.268   4.839   1.553 -0.3702  0.1559 -0.2168
 5826SOL    HW118386   5.274   4.916   1.497 -0.3994  0.3713  0.0742
 5826SOL    HW218387   5.322   4.773   1.509 -0.0135  0.4707 -0.2543
 5827SOL     OW18388   3.777   3.956   6.860  0.3653  0.0970  0.0898
 5827SOL    HW118389   3.750   4.046   6.876 -0.5136 -0.2972  0.9260
 5827SOL    HW218390   3.873   3.958   6.862  0.3372  0.8259  1.1318
 5828SOL     OW18391   4.790   2.293   5.709 -0.2851 -0.7061 -0.2418
 5828SOL    HW118392   4.848   2.356   5.750 -0.7378 -1.1595  1.1508
 5828SOL    HW218393   4.847   2.221   5.682  0.1483  0.0215 -1.3171
 5829SOL     OW18394   0.959   6.570   5.488  0.2171 -0.0489  0.1393
 5829SOL    HW118395   0.991   6.511   5.556  1.0697  2.4374  2.0363
 5829SOL    HW218396   0.980   6.526   5.406  0.4512 -2.5063  1.4267
 5830SOL     OW18397   1.495   5.192   5.641  0.1357 -0.3734 -0.0367
 5830SOL    HW118398   1.444   5.209   5.562 -0.1536  1.1182  0.4255
 5830SOL    HW218399   1.473   5.103   5.667  0.4538 -0.9865 -1.7782
 5831SOL     OW18400   2.350   1.330   4.419  0.3847  0.0500 -0.3696
 5831SOL    HW118401   2.303   1.396   4.368  1.5200  0.9833 -0.2496
 5831SOL    HW218402   2.286   1.260   4.433  0.1030 -0.3669 -3.2650
 5832SOL     OW18403   6.774   1.294   3.620 -0.0231 -0.1996 -0.1193
 5832SOL    HW118404   6.685   1.277   3.649  0.1309 -0.1959  0.3607
 5832SOL    HW218405   6.806   1.210   3.587  0.6886 -0.8669  2.1026
 5833SOL     OW18406   5.630   5.693   4.486 -0.2009  0.1454  0.2276
 5833SOL    HW118407   5.714   5.691   4.439 -0.5872 -1.3836 -0.4581
 5833SOL    HW218408   5.587   5.772   4.455  1.0160  1.0245  0.6841
 5834SOL     OW18409   4.523   0.178   0.139  0.5311  0.4971  0.4274
 5834SOL    HW118410   4.485   0.118   0.074 -1.9085  2.0553  0.2917
 5834SOL    HW218411   4.580   0.235   0.088 -0.1523  0.7179 -0.1149
 5835SOL     OW18412   5.433   7.242   5.109  0.1067 -0.1458  0.1051
 5835SOL    HW118413   5.446   7.147   5.114 -0.0535 -0.2529 -1.2101
 5835SOL    HW218414   5.374   7.262   5.182  1.2824 -0.8231  1.2805
 5836SOL     OW18415   7.746   6.131   0.768 -0.2606 -0.0188  0.6081
 5836SOL    HW118416   7.735   6.113   0.861  0.1862  0.7357  0.8106
 5836SOL    HW218417   7.767   6.225   0.763 -0.3163 -0.0386 -0.2502
 5837SOL     OW18418   3.324   7.501   4.836  0.4764 -1.1599 -0.2983
 5837SOL    HW118419   3.354   7.589   4.811 -1.4183 -0.5329 -0.5350
 5837SOL    HW218420   3.357   7.443   4.768  2.1359 -0.7200  0.1002
 5838SOL     OW18421   5.500   0.352   4.068 -0.4637  0.1095 -0.2118
 5838SOL    HW118422   5.516   0.442   4.095  0.8020 -0.6335  1.6674
 5838SOL    HW218423   5.525   0.349   3.976  0.1587  1.5000 -0.0960
 5839SOL     OW18424   2.702   3.492   5.989  0.1315  0.0014 -0.0360
 5839SOL    HW118425   2.643   3.519   6.060  1.1495  1.1577  0.4037
 5839SOL    HW218426   2.780   3.460   6.034  0.2503 -0.5795 -0.6349
 5840SOL     OW18427   7.213   1.351   5.457  0.2247 -0.1921 -0.0233
 5840SOL    HW118428   7.219   1.423   5.520 -0.8929 -1.1747  1.2802
 5840SOL    HW218429   7.230   1.272   5.509 -0.4917 -1.0233 -1.0004
 5841SOL     OW18430   2.336   5.841   6.746  0.7325  0.1371 -0.0674
 5841SOL    HW118431   2.368   5.922   6.707  0.6372  1.2977  2.0742
 5841SOL    HW218432   2.245   5.860   6.768  1.2804  0.3300  2.4025
 5842SOL     OW18433   0.251   1.878   4.542  0.7560  0.2234 -0.0994
 5842SOL    HW118434   0.187   1.819   4.579  0.0780  0.4118 -0.9371
 5842SOL    HW218435   0.203   1.959   4.524  1.1686  0.3091 -0.9037
 5843SOL     OW18436   0.243   1.946   2.020  0.7991  0.2723  0.4887
 5843SOL    HW118437   0.178   1.880   2.044  2.0034 -0.9440  0.5214
 5843SOL    HW218438   0.261   1.930   1.928  1.4957  0.2083  0.6325
 5844SOL     OW18439   5.682   6.910   2.662 -0.1665  0.0834 -0.1572
 5844SOL    HW118440   5.683   6.871   2.575  0.6653 -0.3443  0.0265
 5844SOL    HW218441   5.593   6.897   2.694  0.0778 -1.7566 -0.0821
 5845SOL     OW18442   5.340   0.841   0.980 -0.4905  0.0775  0.6070
 5845SOL    HW118443   5.333   0.897   1.057 -2.2240 -0.3043  0.7576
 5845SOL    HW218444   5.327   0.901   0.906  0.1843  0.2771  0.6440
 5846SOL     OW18445   7.426   0.285   6.790 -0.4694  0.5485 -0.2962
 5846SOL    HW118446   7.443   0.262   6.698 -0.7393 -0.7601 -0.0397
 5846SOL    HW218447   7.346   0.337   6.787 -0.8950 -0.1149 -0.7386
 5847SOL     OW18448   4.835   0.582   7.605 -0.8504 -0.0889  0.0512
 5847SOL    HW118449   4.875   0.648   7.662  2.2750 -0.4278 -1.5178
 5847SOL    HW218450   4.871   0.499   7.636 -0.1826 -0.4072 -1.4889
 5848SOL     OW18451   5.875   5.025   0.632  0.1655  0.6957  0.9050
 5848SOL    HW118452   5.870   5.034   0.727 -1.1711 -0.4656  0.9713
 5848SOL    HW218453   5.786   5.005   0.605  0.3902  1.6533 -0.6919
 5849SOL     OW18454   5.431   4.733   3.523  0.3457 -0.1042  0.1007
 5849SOL    HW118455   5.493   4.806   3.521  2.2451 -1.4936  2.4790
 5849SOL    HW218456   5.483   4.656   3.501 -0.9219 -1.1130  0.5144
 5850SOL     OW18457   1.819   1.183   0.246  0.1212 -0.5145 -0.0129
 5850SOL    HW118458   1.908   1.214   0.263  0.3022 -0.3417 -1.1435
 5850SOL    HW218459   1.765   1.262   0.249 -0.2550 -0.8187  2.1451
 5851SOL     OW18460   1.157   6.191   4.592 -0.2972  0.2739 -0.2747
 5851SOL    HW118461   1.198   6.271   4.559 -0.5914  0.0627 -1.1867
 5851SOL    HW218462   1.154   6.133   4.516 -0.9157 -0.2676  0.1544
 5852SOL     OW18463   3.740   6.271   1.781 -0.5771 -0.1694 -0.1940
 5852SOL    HW118464   3.661   6.297   1.735  0.0128  0.1382 -1.0623
 5852SOL    HW218465   3.731   6.309   1.869 -2.6566 -2.4552  0.6978
 5853SOL     OW18466   6.642   5.442   0.334 -0.2103  0.1812 -0.7656
 5853SOL    HW118467   6.658   5.491   0.254 -1.2103  0.2778 -0.9153
 5853SOL    HW218468   6.556   5.471   0.363  0.2310  0.3112  0.4674
 5854SOL     OW18469   1.118   3.991   2.074 -0.1988  0.3477  0.4258
 5854SOL    HW118470   1.073   4.068   2.110 -0.2731  0.0349  1.0088
 5854SOL    HW218471   1.162   4.024   1.996 -4.0216  0.0260 -2.0674
 5855SOL     OW18472   0.203   6.026   4.472 -0.4982 -0.1481  0.2808
 5855SOL    HW118473   0.188   6.097   4.410  0.4003 -0.4946 -0.3603
 5855SOL    HW218474   0.203   5.947   4.418  0.1297 -0.4738  0.7458
 5856SOL     OW18475   7.224   1.850   1.091  0.1673  0.2122 -0.1790
 5856SOL    HW118476   7.153   1.842   1.027 -0.0242  0.7717 -0.0403
 5856SOL    HW218477   7.204   1.931   1.138  1.1066  0.5806 -0.3948
 5857SOL     OW18478   1.885   6.482   6.208  0.5435 -0.2390 -0.2842
 5857SOL    HW118479   1.862   6.389   6.201 -0.9653  0.1596 -1.2154
 5857SOL    HW218480   1.955   6.485   6.273  1.6200 -2.1749 -1.2522
 5858SOL     OW18481   6.404   2.680   3.323  0.3806  0.2674 -0.5115
 5858SOL    HW118482   6.450   2.624   3.385 -0.8682 -0.9745 -0.6572
 5858SOL    HW218483   6.382   2.759   3.373 -0.3979 -0.6078  0.5878
 5859SOL     OW18484   6.677   7.618   4.137 -0.0969 -0.0876  0.0365
 5859SOL    HW118485   6.631   7.659   4.210 -0.6414 -1.4381  0.4854
 5859SOL    HW218486   6.607   7.577   4.085  0.4539 -0.7753 -0.1772
 5860SOL     OW18487   5.046   0.901   5.177  0.4947  0.0580  0.3362
 5860SOL    HW118488   5.088   0.973   5.225  1.2838  0.2778 -0.6691
 5860SOL    HW218489   5.117   0.842   5.156 -0.0389 -0.6369  0.4601
 5861SOL     OW18490   5.908   5.334   2.856  0.4752  0.3714 -0.2845
 5861SOL    HW118491   5.912   5.409   2.915 -1.6331 -0.9673  1.7462
 5861SOL    HW218492   5.830   5.349   2.803  0.6858  0.1441 -0.6627
 5862SOL     OW18493   6.783   3.854   4.628 -0.0208 -0.3298 -0.3568
 5862SOL    HW118494   6.742   3.939   4.644  1.0495  0.7864 -3.0059
 5862SOL    HW218495   6.866   3.858   4.676 -0.0609  0.0220 -0.3156
 5863SOL     OW18496   2.186   1.710   5.202 -0.1573  0.1125 -0.2718
 5863SOL    HW118497   2.280   1.695   5.191 -0.6651 -3.1162 -1.3945
 5863SOL    HW218498   2.153   1.723   5.113 -0.8686  0.6766  0.0631
 5864SOL     OW18499   4.272   6.894   1.701 -0.0130 -0.3603 -0.5636
 5864SOL    HW118500   4.246   6.985   1.688  0.3583 -0.0535  0.6920
 5864SOL    HW218501   4.319   6.870   1.621 -0.6428  0.3449 -1.1549
 5865SOL     OW18502   7.472   1.000   1.130  0.3619 -0.2702 -0.3130
 5865SOL    HW118503   7.422   0.924   1.100  1.2376 -0.8047 -0.4484
 5865SOL    HW218504   7.517   0.969   1.209 -0.6093  0.6284  0.6327
 5866SOL     OW18505   3.738   6.780   6.928  0.3485  0.1012 -0.1449
 5866SOL    HW118506   3.678   6.724   6.879 -0.6698 -0.0115  1.1727
 5866SOL    HW218507   3.811   6.723   6.950  0.0691 -0.2814 -0.1844
 5867SOL     OW18508   7.288   5.776   1.279 -0.5291 -0.0658 -0.2691
 5867SOL    HW118509   7.273   5.689   1.241  1.7084 -0.4359 -0.4411
 5867SOL    HW218510   7.283   5.762   1.373 -0.9787 -0.2041 -0.3108
 5868SOL     OW18511   6.988   3.744   5.159 -0.1532  0.2302 -0.5406
 5868SOL    HW118512   6.963   3.790   5.239 -0.5074  1.1828 -1.1707
 5868SOL    HW218513   7.012   3.814   5.098 -0.1541 -0.4625 -1.3563
 5869SOL     OW18514   4.147   6.956   1.282 -0.2633  0.4322  0.2503
 5869SOL    HW118515   4.138   7.019   1.211  4.4505  0.5551 -0.5375
 5869SOL    HW218516   4.081   6.983   1.347 -2.2768  2.5311 -2.4237
 5870SOL     OW18517   1.439   2.478   6.985  0.2983 -0.3443  0.2211
 5870SOL    HW118518   1.432   2.556   7.040 -0.7644  0.4422 -0.9708
 5870SOL    HW218519   1.522   2.489   6.938 -0.2428  0.5178 -0.5671
 5871SOL     OW18520   0.466   6.302   4.749 -0.6371 -0.6705 -0.2367
 5871SOL    HW118521   0.455   6.332   4.659 -0.0785 -0.7411 -0.3327
 5871SOL    HW218522   0.473   6.382   4.801 -0.2066 -0.6259 -0.3567
 5872SOL     OW18523   5.129   0.695   0.832 -0.0467  0.4321 -0.3066
 5872SOL    HW118524   5.195   0.725   0.895 -0.3040 -0.1467  0.2385
 5872SOL    HW218525   5.152   0.741   0.751 -1.1680  3.1063  0.7791
 5873SOL     OW18526   6.419   2.908   6.788 -0.3602  0.0415  0.4024
 5873SOL    HW118527   6.368   2.828   6.772 -1.1357 -0.0099  2.8374
 5873SOL    HW218528   6.389   2.969   6.721 -0.6283 -1.2832 -0.7468
 5874SOL     OW18529   0.766   3.628   6.009 -0.7255  0.4887  0.7004
 5874SOL    HW118530   0.854   3.599   6.033 -0.6422  1.0948  1.1621
 5874SOL    HW218531   0.723   3.645   6.092 -1.1878  0.4761  0.4676
 5875SOL     OW18532   6.329   7.612   6.964  0.5698  0.2464 -0.6264
 5875SOL    HW118533   6.315   7.706   6.955  1.6333  0.3073 -2.1034
 5875SOL    HW218534   6.261   7.572   6.910  0.1155  0.1654  0.0040
 5876SOL     OW18535   4.297   7.357   6.396 -0.6175  0.8986 -0.6235
 5876SOL    HW118536   4.392   7.361   6.385 -0.6603 -0.9408 -2.1637
 5876SOL    HW218537   4.284   7.300   6.472 -0.4667  0.1163 -1.1672
 5877SOL     OW18538   2.203   7.598   2.496 -0.1978  0.2901 -0.3722
 5877SOL    HW118539   2.140   7.539   2.537  0.0905 -0.2228 -0.6685
 5877SOL    HW218540   2.197   7.579   2.402 -0.4995  1.1156 -0.5323
 5878SOL     OW18541   2.812   3.739   3.237  0.2965  0.5977  0.6669
 5878SOL    HW118542   2.829   3.651   3.270 -1.4190  0.5773  1.6071
 5878SOL    HW218543   2.807   3.794   3.315  0.8250  1.4539  0.1190
 5879SOL     OW18544   3.374   3.894   5.717 -0.1059  0.6347  0.0081
 5879SOL    HW118545   3.286   3.922   5.745 -0.4986  1.2100 -1.6612
 5879SOL    HW218546   3.358   3.838   5.642  0.9405 -0.0135  0.2537
 5880SOL     OW18547   2.022   5.494   4.896  0.2986  0.1243 -0.2620
 5880SOL    HW118548   2.047   5.586   4.903  0.7930 -0.0433  0.3136
 5880SOL    HW218549   2.046   5.468   4.807 -0.4856  0.7298 -0.6632
 5881SOL     OW18550   4.965   0.750   4.062  0.5114 -0.0937  0.5810
 5881SOL    HW118551   4.955   0.792   3.976 -0.1533  0.1140  0.7554
 5881SOL    HW218552   5.054   0.772   4.089  1.2859 -1.3837 -0.7046
 5882SOL     OW18553   5.505   4.522   4.543 -0.3847 -0.0425 -0.8868
 5882SOL    HW118554   5.578   4.481   4.589 -1.2144 -0.0851  0.4321
 5882SOL    HW218555   5.519   4.616   4.553 -1.4765 -0.0529  0.9829
 5883SOL     OW18556   0.395   2.164   7.145  0.7351  0.3817  0.0914
 5883SOL    HW118557   0.312   2.133   7.110  1.0243  2.0312 -2.2861
 5883SOL    HW218558   0.374   2.199   7.232 -0.4163 -1.9748  0.8471
 5884SOL     OW18559   3.075   2.344   3.572  0.0110  0.2135 -0.6585
 5884SOL    HW118560   3.124   2.399   3.634  0.8800  0.8226 -1.8488
 5884SOL    HW218561   2.999   2.397   3.550 -1.1162 -0.6343  1.0101
 5885SOL     OW18562   1.827   3.542   6.905  0.3722 -0.3363  0.1348
 5885SOL    HW118563   1.805   3.450   6.915 -0.1707 -0.3038 -0.7086
 5885SOL    HW218564   1.799   3.582   6.988  2.4764 -1.2366  1.3713
 5886SOL     OW18565   3.796   3.660   0.789 -0.1565 -0.1858  0.0223
 5886SOL    HW118566   3.712   3.625   0.819 -0.8068  2.3247  1.4492
 5886SOL    HW218567   3.799   3.749   0.825  2.6179  0.2205 -0.9655
 5887SOL     OW18568   1.772   2.432   3.127  0.5612  0.0605 -0.5997
 5887SOL    HW118569   1.722   2.499   3.173 -0.1313 -0.2115 -0.9542
 5887SOL    HW218570   1.848   2.416   3.184 -0.3567 -0.3948  0.5329
 5888SOL     OW18571   3.896   5.030   0.643 -0.0525  0.5283 -0.2482
 5888SOL    HW118572   3.805   5.027   0.613  0.2670  0.6852 -1.2457
 5888SOL    HW218573   3.946   5.061   0.568  0.7817  0.8531  0.4201
 5889SOL     OW18574   7.394   5.876   3.294 -0.0478  0.0383 -0.0375
 5889SOL    HW118575   7.457   5.821   3.341  1.1488  1.8317  0.5962
 5889SOL    HW218576   7.337   5.911   3.362 -1.2929 -0.9864 -0.5261
 5890SOL     OW18577   4.858   6.446   4.674 -0.0326  0.4458  0.0005
 5890SOL    HW118578   4.889   6.516   4.617 -1.4005  0.4045 -0.8225
 5890SOL    HW218579   4.886   6.473   4.762  0.3606  1.4901 -0.4255
 5891SOL     OW18580   6.338   7.628   5.718  0.2968 -0.3676  0.2705
 5891SOL    HW118581   6.244   7.644   5.733  0.3214 -1.1165  1.3084
 5891SOL    HW218582   6.341   7.552   5.661  0.2755 -0.1729  0.0064
 5892SOL     OW18583   1.983   7.538   5.779  0.5398  0.0828  0.1560
 5892SOL    HW118584   2.061   7.535   5.835 -0.6887  0.5376  1.9824
 5892SOL    HW218585   1.923   7.595   5.825 -1.1323 -0.7675 -0.8779
 5893SOL     OW18586   2.228   0.524   4.545 -1.0586 -0.3144 -0.5436
 5893SOL    HW118587   2.144   0.481   4.529 -1.0773 -0.7326  0.5765
 5893SOL    HW218588   2.244   0.510   4.639  1.4019 -2.3303 -1.1647
 5894SOL     OW18589   5.757   3.808   2.101  0.4533  0.3669  1.0594
 5894SOL    HW118590   5.735   3.883   2.155 -0.7871 -0.2729  1.4889
 5894SOL    HW218591   5.804   3.748   2.159 -1.2750 -0.5204  1.6205
 5895SOL     OW18592   2.432   4.817   3.955 -1.1883 -0.1764 -0.4704
 5895SOL    HW118593   2.474   4.759   4.019 -0.1078  0.9444 -0.1050
 5895SOL    HW218594   2.343   4.784   3.946 -1.5356 -0.1018  2.0080
 5896SOL     OW18595   0.076   7.239   5.114 -0.4105 -0.1177 -0.0550
 5896SOL    HW118596   0.041   7.150   5.124 -1.8671  0.4308 -0.0827
 5896SOL    HW218597   0.083   7.252   5.020 -2.2102  0.5187 -0.1371
 5897SOL     OW18598   6.670   2.957   2.830 -0.1499 -0.3698  0.5211
 5897SOL    HW118599   6.659   3.045   2.794  1.4085 -1.1570 -2.1815
 5897SOL    HW218600   6.588   2.912   2.808 -0.1640 -0.1543  0.1234
 5898SOL     OW18601   1.359   1.695   2.230 -0.0031  0.2155  0.1082
 5898SOL    HW118602   1.403   1.711   2.314 -0.2944 -1.4642  0.6175
 5898SOL    HW218603   1.266   1.699   2.251 -0.1335 -2.3340  0.4099
 5899SOL     OW18604   6.525   7.538   6.792 -0.5067  0.0913 -1.0508
 5899SOL    HW118605   6.473   7.529   6.872  1.6725  0.4972  0.4926
 5899SOL    HW218606   6.488   7.614   6.747 -2.4020 -0.7415 -0.9949
 5900SOL     OW18607   2.601   6.189   7.254 -0.1846  0.0622  0.0627
 5900SOL    HW118608   2.575   6.269   7.300 -0.1752  1.1970 -1.8088
 5900SOL    HW218609   2.529   6.173   7.192  0.4698 -0.5779 -0.5496
 5901SOL     OW18610   4.705   2.022   1.743  0.1357  0.3948  0.2831
 5901SOL    HW118611   4.717   1.993   1.652 -0.5914  0.1550  0.2594
 5901SOL    HW218612   4.774   2.088   1.756 -1.0072  1.9398 -1.0997
 5902SOL     OW18613   4.243   0.111   5.908  0.2160 -0.0416  0.1355
 5902SOL    HW118614   4.158   0.156   5.910  0.4387  0.4980 -1.4394
 5902SOL    HW218615   4.221   0.019   5.925 -0.6696  0.1146 -0.0976
 5903SOL     OW18616   3.780   0.249   0.089 -0.0560 -0.0133 -0.4684
 5903SOL    HW118617   3.734   0.331   0.073  0.2528  0.0985 -0.7929
 5903SOL    HW218618   3.827   0.231   0.007 -0.0001 -0.4320 -0.3477
 5904SOL     OW18619   0.156   1.627   1.658 -0.2691  0.3161 -0.4627
 5904SOL    HW118620   0.228   1.637   1.595 -1.4755 -0.3737 -2.0162
 5904SOL    HW218621   0.110   1.710   1.657 -2.1070 -0.6196 -2.9118
 5905SOL     OW18622   2.567   4.314   7.176 -0.3002  0.0283 -0.6737
 5905SOL    HW118623   2.661   4.303   7.160 -0.0093 -0.4406  1.1196
 5905SOL    HW218624   2.525   4.258   7.110  0.6308  0.7717 -1.9443
 5906SOL     OW18625   6.565   6.089   4.109  0.0920  0.2643 -0.3102
 5906SOL    HW118626   6.508   6.146   4.162  1.6011  1.4587  0.1021
 5906SOL    HW218627   6.533   6.100   4.019 -1.6065 -0.6985  0.1253
 5907SOL     OW18628   6.440   1.109   1.051  0.3477  0.1997  0.5438
 5907SOL    HW118629   6.470   1.198   1.070  0.3622  0.4042 -0.3932
 5907SOL    HW218630   6.478   1.089   0.966 -3.2562  0.9986 -1.4304
 5908SOL     OW18631   2.252   0.735   3.376 -0.0561  0.0957  0.0466
 5908SOL    HW118632   2.260   0.747   3.282 -0.8513 -1.8076 -0.3051
 5908SOL    HW218633   2.338   0.702   3.403 -0.5805 -1.7797 -0.4678
 5909SOL     OW18634   7.205   6.923   7.458 -0.3044 -0.3577 -0.0010
 5909SOL    HW118635   7.251   6.887   7.533 -0.5371  0.3974  0.5173
 5909SOL    HW218636   7.120   6.951   7.493 -0.1100  0.7252 -0.3684
 5910SOL     OW18637   6.279   1.819   1.470  0.5820 -0.4092  0.3494
 5910SOL    HW118638   6.249   1.759   1.401 -0.7398 -0.4536  0.9342
 5910SOL    HW218639   6.372   1.834   1.449  1.2694 -3.4318  0.7228
 5911SOL     OW18640   7.568   0.573   2.712  0.1513 -0.4960 -0.1305
 5911SOL    HW118641   7.625   0.620   2.773  0.2426 -1.6215  0.6958
 5911SOL    HW218642   7.597   0.482   2.718 -2.7165 -1.4145  1.5480
 5912SOL     OW18643   4.352   0.727   7.076 -0.1210  0.3592 -0.2240
 5912SOL    HW118644   4.421   0.663   7.059 -0.2665  0.4625 -1.2952
 5912SOL    HW218645   4.270   0.679   7.063 -0.2370  0.5606 -0.2485
 5913SOL     OW18646   7.413   2.543   7.742  0.2297  0.1662  0.0118
 5913SOL    HW118647   7.500   2.575   7.720  1.1257 -0.7188  1.9923
 5913SOL    HW218648   7.399   2.573   7.832 -1.5561  0.3400 -0.2796
 5914SOL     OW18649   3.626   1.416   6.081  0.1421  0.4940  0.4541
 5914SOL    HW118650   3.533   1.402   6.097  0.3167 -0.8846  0.3858
 5914SOL    HW218651   3.666   1.411   6.168  0.3670 -0.9093  0.2940
 5915SOL     OW18652   5.711   1.762   4.519 -0.0054 -0.0000 -0.6474
 5915SOL    HW118653   5.651   1.781   4.591  2.5483  0.0084  1.6042
 5915SOL    HW218654   5.746   1.848   4.493 -0.0513 -0.1242 -1.1342
 5916SOL     OW18655   1.635   3.879   3.192  0.2260  0.2707 -0.4054
 5916SOL    HW118656   1.713   3.824   3.183 -0.2392 -0.7248  1.2867
 5916SOL    HW218657   1.669   3.965   3.213  0.9015  0.2570 -1.3370
 5917SOL     OW18658   7.111   6.016   1.277  0.6089 -0.2360 -0.0525
 5917SOL    HW118659   7.168   5.940   1.284  0.4028 -0.3084  1.1011
 5917SOL    HW218660   7.034   5.985   1.230 -0.5102 -1.4170  2.3745
 5918SOL     OW18661   6.224   5.782   1.296  0.3794 -1.1385 -0.0391
 5918SOL    HW118662   6.160   5.744   1.357 -0.2327 -0.4806 -0.2562
 5918SOL    HW218663   6.179   5.782   1.212  0.1700  0.4774  0.0363
 5919SOL     OW18664   5.897   2.233   2.565 -0.0711 -0.3903 -0.0062
 5919SOL    HW118665   5.953   2.174   2.516  0.4096 -0.9760  1.2134
 5919SOL    HW218666   5.871   2.300   2.501  3.0646  0.6732 -0.3355
 5920SOL     OW18667   2.427   5.073   3.430  0.0626  0.4606  0.5019
 5920SOL    HW118668   2.362   5.133   3.393 -0.0009 -0.0106 -0.1650
 5920SOL    HW218669   2.376   4.996   3.456  0.3968 -0.0637 -0.3666
 5921SOL     OW18670   3.071   6.682   0.160  0.5059 -0.0923  0.3253
 5921SOL    HW118671   3.077   6.720   0.247 -0.9144  0.0908  0.3685
 5921SOL    HW218672   3.157   6.642   0.145  0.3844 -1.1655  2.2767
 5922SOL     OW18673   0.209   7.345   4.072  0.5153  0.0084  0.1112
 5922SOL    HW118674   0.208   7.363   3.978 -0.4671 -0.3881  0.0360
 5922SOL    HW218675   0.233   7.253   4.079  1.6282  0.3019  0.3097
 5923SOL     OW18676   6.598   3.756   6.821 -0.3030 -0.0320 -0.1659
 5923SOL    HW118677   6.622   3.849   6.823  2.6484 -0.6817 -0.5208
 5923SOL    HW218678   6.606   3.728   6.912  1.9858 -0.5723 -0.4821
 5924SOL     OW18679   6.546   5.719   3.056 -0.3042 -0.5798  0.1893
 5924SOL    HW118680   6.534   5.655   3.127  2.0251  0.4248  1.6371
 5924SOL    HW218681   6.586   5.669   2.985  0.9250 -0.9119  1.0768
 5925SOL     OW18682   0.561   0.910   1.598 -0.1088  0.1141  0.0887
 5925SOL    HW118683   0.479   0.867   1.571 -0.7667 -0.1899  2.3201
 5925SOL    HW218684   0.549   1.001   1.573 -1.4906  0.2254  1.0097
 5926SOL     OW18685   4.104   7.463   6.238 -0.2712  0.6973  0.7894
 5926SOL    HW118686   4.075   7.499   6.322 -0.5372 -1.4785  1.6859
 5926SOL    HW218687   4.174   7.402   6.261  0.4412  0.8893 -0.7179
 5927SOL     OW18688   1.039   1.815   3.703  0.4711  0.7554  0.5434
 5927SOL    HW118689   1.070   1.728   3.727  2.4465  1.1773 -0.3102
 5927SOL    HW218690   0.984   1.842   3.777 -0.3663 -1.2548  0.7304
 5928SOL     OW18691   2.054   2.037   5.068  0.2434  0.0718  0.1928
 5928SOL    HW118692   1.979   1.980   5.053  1.1397 -0.4409 -2.9667
 5928SOL    HW218693   2.020   2.125   5.059  0.1229 -0.1711 -2.3933
 5929SOL     OW18694   2.651   2.648   2.359  0.2287  0.5063  0.5318
 5929SOL    HW118695   2.598   2.719   2.323  1.2944  1.1147  0.1430
 5929SOL    HW218696   2.728   2.644   2.303 -0.5320 -2.0648 -0.5177
 5930SOL     OW18697   2.412   6.397   4.719 -0.2917 -0.3183  0.3166
 5930SOL    HW118698   2.341   6.445   4.677  0.6934  0.4799 -0.4733
 5930SOL    HW218699   2.473   6.464   4.750  0.6105 -1.0033  0.0939
 5931SOL     OW18700   1.981   1.286   2.495 -0.1491 -0.4325  0.4076
 5931SOL    HW118701   1.893   1.321   2.505 -0.5302 -1.5088  0.8791
 5931SOL    HW218702   2.003   1.250   2.581  1.5898  1.6532  0.9573
 5932SOL     OW18703   5.405   4.279   4.714 -0.5750  0.2280  0.5690
 5932SOL    HW118704   5.471   4.287   4.783 -1.5417 -3.1288  2.0870
 5932SOL    HW218705   5.347   4.354   4.727  0.6282  0.9904  1.8068
 5933SOL     OW18706   0.561   1.644   7.200 -0.3270 -0.5581  0.1928
 5933SOL    HW118707   0.541   1.663   7.292  2.1353 -1.5243  1.0055
 5933SOL    HW218708   0.559   1.730   7.157 -3.0979 -0.2640  0.7229
 5934SOL     OW18709   6.374   6.312   0.629 -0.4934 -0.1860 -0.3096
 5934SOL    HW118710   6.391   6.393   0.678 -1.1048  0.3519 -0.9586
 5934SOL    HW218711   6.443   6.308   0.563 -1.0550  0.3825 -0.9586
 5935SOL     OW18712   2.375   2.923   7.180  0.0826 -0.1664  0.4620
 5935SOL    HW118713   2.422   2.987   7.234  0.1055 -0.5557  0.9121
 5935SOL    HW218714   2.435   2.847   7.176 -0.5762 -0.7417  1.1975
 5936SOL     OW18715   5.369   5.013   2.238 -0.1662  0.0185  0.7301
 5936SOL    HW118716   5.312   4.969   2.175 -0.4713  1.7564 -0.2914
 5936SOL    HW218717   5.309   5.052   2.301  0.1151 -1.2764  1.8313
 5937SOL     OW18718   1.791   6.897   6.183 -0.3284 -0.4109  0.1675
 5937SOL    HW118719   1.839   6.851   6.113  1.3395 -0.5234  1.3386
 5937SOL    HW218720   1.857   6.916   6.249 -1.7543  0.2546  1.4569
 5938SOL     OW18721   4.855   1.930   4.059  0.1254  0.1882  0.1701
 5938SOL    HW118722   4.776   1.876   4.062  0.7260 -0.7407 -0.1178
 5938SOL    HW218723   4.927   1.867   4.062  0.8629  1.0261  0.6076
 5939SOL     OW18724   7.419   4.843   1.893  0.3967 -0.6970 -0.2394
 5939SOL    HW118725   7.418   4.929   1.934 -0.8657 -1.4578  1.4508
 5939SOL    HW218726   7.383   4.857   1.805  1.3891  0.6649 -0.4606
 5940SOL     OW18727   0.104   2.052   6.530 -0.0422  0.0732  0.3208
 5940SOL    HW118728   0.175   1.997   6.497 -0.3920  0.3749 -0.9758
 5940SOL    HW218729   0.033   2.040   6.468 -1.4082 -0.7401  1.9428
 5941SOL     OW18730   7.335   4.200   0.090 -0.4722  0.0262  0.6305
 5941SOL    HW118731   7.422   4.160   0.098 -0.5333 -0.7452 -1.6934
 5941SOL    HW218732   7.352   4.291   0.068 -0.2134 -0.2483 -0.3532
 5942SOL     OW18733   1.917   4.811   6.998  0.8270  0.0485  0.0132
 5942SOL    HW118734   1.859   4.888   6.998 -0.4420 -0.8856  0.2257
 5942SOL    HW218735   1.874   4.749   6.940  2.0218 -0.3900 -0.4192
 5943SOL     OW18736   4.648   0.073   7.564  0.3214 -0.1631 -0.3787
 5943SOL    HW118737   4.552   0.074   7.570  0.1617  2.2739 -2.1095
 5943SOL    HW218738   4.677   0.140   7.625  0.9850 -1.0205  0.2812
 5944SOL     OW18739   4.234   0.998   7.494  0.1922 -0.2235 -0.1925
 5944SOL    HW118740   4.192   1.045   7.422  0.2096 -0.5976 -0.4474
 5944SOL    HW218741   4.261   0.914   7.456 -0.2584 -0.6334  0.3817
 5945SOL     OW18742   6.752   2.594   1.046  0.9209  0.3336 -0.9009
 5945SOL    HW118743   6.743   2.641   0.963 -0.3300 -0.0502 -1.0047
 5945SOL    HW218744   6.711   2.651   1.110 -2.8332 -1.4810 -1.3875
 5946SOL     OW18745   4.734   2.232   2.482 -0.0231 -0.3537  0.1252
 5946SOL    HW118746   4.663   2.297   2.478  0.9423  0.7028 -0.6019
 5946SOL    HW218747   4.695   2.156   2.523 -2.2219 -0.6377 -2.2905
 5947SOL     OW18748   3.814   7.724   7.087  0.6470 -0.3467  0.4268
 5947SOL    HW118749   3.897   7.733   7.040  0.0470  1.1702 -0.3968
 5947SOL    HW218750   3.806   7.804   7.138 -1.8182  1.1697 -2.0635
 5948SOL     OW18751   3.126   0.317   4.333  0.0046  0.0606  0.1700
 5948SOL    HW118752   3.099   0.346   4.420 -1.5216  1.7368 -0.8210
 5948SOL    HW218753   3.221   0.331   4.332 -0.1599  1.4135  1.0613
 5949SOL     OW18754   2.614   0.285   0.051 -0.2193  0.1242  1.0019
 5949SOL    HW118755   2.519   0.295   0.048 -0.4017 -1.5580  0.5324
 5949SOL    HW218756   2.629   0.192   0.065  1.3730  0.0764 -0.6004
 5950SOL     OW18757   1.030   7.306   4.872  0.4803 -0.8146  0.0746
 5950SOL    HW118758   0.957   7.317   4.933  0.2158  0.4946 -0.4452
 5950SOL    HW218759   1.094   7.253   4.921  0.7014  1.0185  1.8930
 5951SOL     OW18760   0.390   3.207   6.935  0.3111  0.1687 -0.1363
 5951SOL    HW118761   0.336   3.257   6.996  0.0730  1.1031 -1.0751
 5951SOL    HW218762   0.446   3.273   6.894 -0.4135 -0.2087 -1.8296
 5952SOL     OW18763   2.431   6.363   2.922 -0.1288 -0.0415  0.0084
 5952SOL    HW118764   2.471   6.446   2.894 -2.2604  1.3389  0.8312
 5952SOL    HW218765   2.478   6.339   3.001  0.3101  0.5520 -0.0658
 5953SOL     OW18766   2.685   2.247   6.366 -0.5575  0.0340 -0.1565
 5953SOL    HW118767   2.643   2.331   6.386 -1.5546 -0.8462  1.7457
 5953SOL    HW218768   2.736   2.227   6.444  0.5378 -0.6494 -1.0221
 5954SOL     OW18769   4.372   3.624   6.757 -0.2746  0.6202  0.3831
 5954SOL    HW118770   4.428   3.634   6.679  1.0045 -0.8459  1.0578
 5954SOL    HW218771   4.316   3.549   6.737 -0.5104  0.7503  0.5597
 5955SOL     OW18772   3.146   3.486   5.290 -0.2213  0.3954 -0.1449
 5955SOL    HW118773   3.135   3.403   5.336  0.8893  1.4711  2.2491
 5955SOL    HW218774   3.235   3.483   5.257 -0.4595  0.3205 -0.7940
 5956SOL     OW18775   1.943   3.011   6.099  0.1387  0.5443 -0.0838
 5956SOL    HW118776   2.002   3.070   6.053 -1.0292 -0.5397 -3.1922
 5956SOL    HW218777   1.855   3.048   6.085 -0.4663 -1.0866 -0.8543
 5957SOL     OW18778   0.335   4.931   3.302 -0.1106 -0.0006  0.5208
 5957SOL    HW118779   0.348   4.902   3.212 -0.8019  1.0218  0.0656
 5957SOL    HW218780   0.405   4.995   3.317 -0.5480  0.5207  0.3766
 5958SOL     OW18781   4.902   5.552   1.088 -0.2807  0.1536 -0.1667
 5958SOL    HW118782   4.996   5.540   1.101 -0.1463  0.1961 -1.0052
 5958SOL    HW218783   4.889   5.646   1.091 -0.0661  0.2394 -1.3954
 5959SOL     OW18784   5.102   4.030   6.218 -0.5339 -0.2567 -0.0086
 5959SOL    HW118785   5.154   4.106   6.193  1.2867 -1.5572 -0.3632
 5959SOL    HW218786   5.106   3.971   6.143 -1.1661 -1.0905  0.5798
 5960SOL     OW18787   5.243   3.849   2.159  0.2631 -0.1956 -0.2952
 5960SOL    HW118788   5.256   3.939   2.131 -1.0999  0.5645  1.3150
 5960SOL    HW218789   5.320   3.830   2.213  0.1601  0.3363  0.0551
 5961SOL     OW18790   3.687   2.115   6.178  0.2204 -0.1533  0.1700
 5961SOL    HW118791   3.605   2.099   6.223 -0.2875  1.1375 -0.2492
 5961SOL    HW218792   3.730   2.029   6.174 -0.7631 -0.7029  1.0386
 5962SOL     OW18793   5.734   2.691   3.007  0.5898 -0.2492  0.0061
 5962SOL    HW118794   5.662   2.648   3.052  2.1561  0.0072  2.9449
 5962SOL    HW218795   5.766   2.626   2.945 -0.7069 -1.1430  0.2374
 5963SOL     OW18796   7.151   1.675   3.180  0.3524 -0.4325 -0.8659
 5963SOL    HW118797   7.080   1.648   3.122  0.1872  0.7750 -1.2667
 5963SOL    HW218798   7.110   1.737   3.241  0.9096 -0.2462 -0.6715
 5964SOL     OW18799   4.342   4.182   0.527  0.5095 -0.2491 -0.8761
 5964SOL    HW118800   4.306   4.142   0.448  1.7224 -1.0093 -1.0604
 5964SOL    HW218801   4.434   4.197   0.506  0.8122 -0.3312  0.3453
 5965SOL     OW18802   2.971   1.580   2.911 -0.3636  0.4297 -0.2502
 5965SOL    HW118803   2.981   1.670   2.942 -1.2265  0.3712  0.2506
 5965SOL    HW218804   3.021   1.576   2.830  1.2627  0.8252  0.7008
 5966SOL     OW18805   4.757   5.382   6.272  0.2977 -0.3178 -0.0219
 5966SOL    HW118806   4.813   5.306   6.286  0.3751 -0.6664 -1.9122
 5966SOL    HW218807   4.678   5.345   6.231  0.6115  0.6454 -1.5785
 5967SOL     OW18808   6.983   6.956   7.587 -0.0348  0.0350  0.3861
 5967SOL    HW118809   6.904   6.908   7.613 -0.6095  0.5357 -0.3909
 5967SOL    HW218810   7.030   6.971   7.669  0.0791 -1.6808  0.6762
 5968SOL     OW18811   6.002   4.287   1.278 -0.0587 -0.2755 -0.1555
 5968SOL    HW118812   5.986   4.382   1.275  1.1419  0.0015  1.2453
 5968SOL    HW218813   6.096   4.278   1.264 -0.0347 -1.1921  0.5084
 5969SOL     OW18814   1.924   4.038   3.736  0.4402  0.2669  0.5732
 5969SOL    HW118815   1.907   4.026   3.642  0.9818 -0.2388  0.5360
 5969SOL    HW218816   1.882   4.121   3.757 -2.5951 -1.1209  0.6143
 5970SOL     OW18817   1.114   5.967   1.723 -0.0967 -0.2817 -0.7812
 5970SOL    HW118818   1.159   6.013   1.652 -0.8435  1.2090 -0.3319
 5970SOL    HW218819   1.128   5.874   1.704  3.3006  0.0569 -0.5642
 5971SOL     OW18820   2.912   7.566   6.803  0.6176  0.7533  0.0689
 5971SOL    HW118821   2.988   7.557   6.744  0.0619 -1.0815 -0.4398
 5971SOL    HW218822   2.910   7.483   6.851  0.0756  1.5741  1.5272
 5972SOL     OW18823   0.651   6.465   0.870 -0.0847  0.1257  0.2341
 5972SOL    HW118824   0.727   6.408   0.882  1.4392  2.2618  1.4325
 5972SOL    HW218825   0.631   6.497   0.957 -1.4044  0.8175 -0.2963
 5973SOL     OW18826   0.386   5.617   6.714  0.1672  0.2339 -0.5344
 5973SOL    HW118827   0.326   5.553   6.752  0.1158  0.3762 -0.3771
 5973SOL    HW218828   0.463   5.565   6.688 -1.3289 -0.5876 -3.9157
 5974SOL     OW18829   4.151   1.332   0.594  0.3910 -0.3344 -0.5303
 5974SOL    HW118830   4.117   1.350   0.507 -1.0439  1.5128  0.3539
 5974SOL    HW218831   4.088   1.271   0.632 -0.3331  0.7407  0.0379
 5975SOL     OW18832   6.008   0.112   5.633 -0.0233 -0.3454  0.3879
 5975SOL    HW118833   6.004   0.036   5.691  0.1225 -1.9389 -1.5698
 5975SOL    HW218834   5.917   0.128   5.608 -0.1015  0.4259  1.1053
 5976SOL     OW18835   5.123   2.339   5.838  0.6289 -0.1291 -0.0989
 5976SOL    HW118836   5.111   2.401   5.910  0.2500  0.2272 -0.4644
 5976SOL    HW218837   5.159   2.261   5.879  2.5478  0.8327  0.1757
 5977SOL     OW18838   6.679   3.596   7.330  0.2727 -0.0215 -0.3814
 5977SOL    HW118839   6.748   3.637   7.383 -0.2260 -2.5906  2.6253
 5977SOL    HW218840   6.687   3.503   7.350 -3.2389 -0.5638 -0.9167
 5978SOL     OW18841   3.124   5.040   0.754  0.5697  0.2920  0.7055
 5978SOL    HW118842   3.063   4.968   0.738  2.1308 -0.9913  0.3121
 5978SOL    HW218843   3.070   5.109   0.792 -1.4824 -0.1095 -1.2461
 5979SOL     OW18844   0.396   3.708   3.746  0.5240  0.0252 -0.1444
 5979SOL    HW118845   0.449   3.632   3.724  0.9823  0.1656  0.4617
 5979SOL    HW218846   0.455   3.783   3.737  0.4431  0.1777  0.5764
 5980SOL     OW18847   0.382   3.477   1.594  0.1729  0.1395 -0.1521
 5980SOL    HW118848   0.305   3.533   1.599  0.2628  0.2722 -0.2443
 5980SOL    HW218849   0.389   3.438   1.681 -0.1297 -0.0502 -0.2109
 5981SOL     OW18850   4.244   3.142   6.465  0.1792 -0.7873  0.3602
 5981SOL    HW118851   4.247   3.115   6.557  1.3933 -2.2495 -0.0740
 5981SOL    HW218852   4.290   3.073   6.418  1.3600  0.9345 -1.1275
 5982SOL     OW18853   3.768   6.812   2.357 -0.4625  0.2354 -0.0382
 5982SOL    HW118854   3.839   6.850   2.305 -0.8897  0.2090 -0.6544
 5982SOL    HW218855   3.803   6.807   2.446 -0.3621  1.9870  0.0595
 5983SOL     OW18856   3.707   3.925   6.318  0.2940  0.0486  0.5198
 5983SOL    HW118857   3.744   3.948   6.403  1.3992  1.4154 -0.2853
 5983SOL    HW218858   3.613   3.938   6.329  0.4777  0.7829  1.3765
 5984SOL     OW18859   5.596   4.627   3.312 -0.7534 -0.0358  0.3106
 5984SOL    HW118860   5.666   4.598   3.254 -0.2497 -0.1182  0.9552
 5984SOL    HW218861   5.533   4.670   3.254  0.3198  0.9633 -0.1433
 5985SOL     OW18862   1.165   5.336   7.002 -0.0506 -0.4463  0.4152
 5985SOL    HW118863   1.243   5.353   7.055 -0.1550  0.0274  0.4186
 5985SOL    HW218864   1.194   5.350   6.911 -0.8007  2.5040  0.5464
 5986SOL     OW18865   6.317   7.149   7.411 -1.0617  0.1460  0.1517
 5986SOL    HW118866   6.271   7.230   7.432 -1.2236  0.1880 -0.3465
 5986SOL    HW218867   6.359   7.166   7.327  0.3987  0.3259  0.8852
 5987SOL     OW18868   4.875   3.729   5.365 -0.0753 -0.1061  0.5725
 5987SOL    HW118869   4.796   3.675   5.369 -0.1788 -0.0892 -0.8779
 5987SOL    HW218870   4.939   3.673   5.321  0.5375  0.1131  1.1721
 5988SOL     OW18871   4.402   2.588   4.972  0.6034 -0.1583  0.3006
 5988SOL    HW118872   4.463   2.575   5.044 -1.2343 -1.9095  1.6327
 5988SOL    HW218873   4.452   2.566   4.893  2.0474 -0.2508  1.2146
 5989SOL     OW18874   5.472   5.258   2.503 -0.2995 -0.5357 -0.6429
 5989SOL    HW118875   5.421   5.301   2.571  1.1219 -1.7752  1.3236
 5989SOL    HW218876   5.423   5.274   2.422 -2.0565  1.0072  0.6466
 5990SOL     OW18877   6.208   0.180   1.838 -0.1958 -0.5105 -0.2477
 5990SOL    HW118878   6.209   0.220   1.752  0.7899  0.0392  0.0030
 5990SOL    HW218879   6.294   0.137   1.846 -0.2605 -0.5282  0.4664
 5991SOL     OW18880   2.308   6.325   6.821  0.0658  0.2147  0.4097
 5991SOL    HW118881   2.396   6.295   6.799  0.0802 -0.3346  1.1844
 5991SOL    HW218882   2.303   6.414   6.785  0.8021  0.1115  0.0404
 5992SOL     OW18883   3.140   7.692   5.829 -0.0181 -0.0175  0.6454
 5992SOL    HW118884   3.161   7.769   5.884 -1.7112 -0.4208  1.9532
 5992SOL    HW218885   3.196   7.623   5.864  0.9016  0.3831  0.0164
 5993SOL     OW18886   3.767   3.586   5.197  0.2003  0.2783 -0.1099
 5993SOL    HW118887   3.779   3.491   5.193  3.1165  0.4211  2.2823
 5993SOL    HW218888   3.838   3.621   5.143 -1.8155  1.2351 -2.3726
 5994SOL     OW18889   3.013   1.335   3.304  0.1848 -0.5238 -0.4931
 5994SOL    HW118890   2.989   1.423   3.334  1.3279 -0.0910 -0.8189
 5994SOL    HW218891   2.986   1.334   3.212  0.4168 -0.4241 -0.5616
 5995SOL     OW18892   5.216   4.790   5.923 -0.2670  0.2137 -0.1855
 5995SOL    HW118893   5.189   4.857   5.987  0.0347 -0.6806  0.9003
 5995SOL    HW218894   5.214   4.708   5.972  1.6710 -0.2742 -0.8467
 5996SOL     OW18895   0.816   2.886   4.215  0.3657 -0.3595  0.1520
 5996SOL    HW118896   0.877   2.871   4.143 -0.6793  1.1543 -1.1037
 5996SOL    HW218897   0.851   2.962   4.261  0.2338 -0.4050  0.3278
 5997SOL     OW18898   5.178   4.667   4.074 -0.7478  0.0123 -0.0483
 5997SOL    HW118899   5.264   4.687   4.037 -0.5740 -0.7662 -0.0708
 5997SOL    HW218900   5.154   4.747   4.122 -0.2641  0.4335 -0.4992
 5998SOL     OW18901   7.619   6.179   1.033 -0.1917  0.0513 -0.4643
 5998SOL    HW118902   7.599   6.088   1.055  0.3777  0.2152  0.8338
 5998SOL    HW218903   7.652   6.216   1.114 -0.0364  1.3180 -1.0856
 5999SOL     OW18904   4.044   4.916   6.165  0.1045  0.0500  0.0548
 5999SOL    HW118905   4.026   4.901   6.072 -0.3442  1.7663 -0.1714
 5999SOL    HW218906   4.024   5.009   6.179 -0.8774 -0.4118  2.1207
 6000SOL     OW18907   1.732   3.704   7.548 -0.3123  0.1771 -0.4815
 6000SOL    HW118908   1.714   3.685   7.641 -1.7832  1.8519 -0.3688
 6000SOL    HW218909   1.775   3.625   7.516  0.4242 -0.3762  1.6754
 6001SOL     OW18910   6.237   4.168   2.451  0.0759 -0.6431  0.5769
 6001SOL    HW118911   6.290   4.224   2.507 -1.8177  1.1020  0.7265
 6001SOL    HW218912   6.285   4.165   2.367  0.5142  0.6961  0.7673
 6002SOL     OW18913   1.096   5.691   0.956 -0.7174 -0.0997  0.5267
 6002SOL    HW118914   1.141   5.660   1.035  2.9095  0.5858 -1.0370
 6002SOL    HW218915   1.097   5.616   0.897  1.9123  0.8662 -0.8205
 6003SOL     OW18916   6.340   4.813   0.536  0.3715  0.0732  0.5285
 6003SOL    HW118917   6.337   4.828   0.630 -1.3242  1.9570  0.2395
 6003SOL    HW218918   6.266   4.861   0.501  0.3517 -1.3976 -1.7020
 6004SOL     OW18919   1.342   3.872   0.472  0.0055 -0.0430 -0.7529
 6004SOL    HW118920   1.311   3.863   0.382  0.9234 -0.2573 -1.0565
 6004SOL    HW218921   1.423   3.921   0.466  0.1306 -0.1411 -0.0525
 6005SOL     OW18922   4.904   2.121   0.864  0.2617 -0.6858 -0.0049
 6005SOL    HW118923   4.919   2.145   0.772 -0.6848 -0.3829 -0.0878
 6005SOL    HW218924   4.936   2.196   0.914  2.1095 -1.4303  0.0108
 6006SOL     OW18925   1.089   3.736   2.300  0.2107 -0.3611  0.2063
 6006SOL    HW118926   1.107   3.676   2.373 -0.0836 -0.8657 -0.1299
 6006SOL    HW218927   1.085   3.823   2.341  0.5838 -0.5764  0.7091
 6007SOL     OW18928   7.101   0.858   5.265  0.1983  0.0536  0.0284
 6007SOL    HW118929   7.045   0.824   5.334  0.1716  0.8818  0.4193
 6007SOL    HW218930   7.175   0.796   5.262 -0.8455 -1.2186 -0.6947
 6008SOL     OW18931   0.020   1.871   5.383 -0.3498 -0.4326  0.1071
 6008SOL    HW118932   0.078   1.946   5.393 -0.4491 -0.3026 -0.2976
 6008SOL    HW218933  -0.053   1.903   5.331 -0.9207 -0.5247  0.8329
 6009SOL     OW18934   1.925   6.608   5.925  0.1185 -0.0246  0.3452
 6009SOL    HW118935   1.864   6.618   5.998  0.4337 -2.0109  0.9446
 6009SOL    HW218936   1.871   6.578   5.852  0.2029 -0.7093  0.5598
 6010SOL     OW18937   7.616   0.898   0.254 -0.5306  0.9053  0.5625
 6010SOL    HW118938   7.577   0.888   0.167 -4.2470 -0.5644  2.2072
 6010SOL    HW218939   7.668   0.819   0.266  2.4633  2.4110 -1.2562
 6011SOL     OW18940   3.504   5.010   4.665 -0.1743 -0.5438  0.2234
 6011SOL    HW118941   3.564   5.040   4.597  0.5103  1.2453  1.5587
 6011SOL    HW218942   3.428   4.978   4.616 -0.0452  1.3881 -1.3945
 6012SOL     OW18943   0.052   7.093   0.096 -0.2705 -0.1448  0.3015
 6012SOL    HW118944  -0.015   7.155   0.066 -0.3581 -0.5142 -0.2898
 6012SOL    HW218945   0.130   7.114   0.044  0.1027  0.3394  1.0496
 6013SOL     OW18946   4.103   6.966   0.927 -0.2955 -0.1885 -0.2798
 6013SOL    HW118947   4.165   7.037   0.942 -0.9246  0.2261  0.4987
 6013SOL    HW218948   4.100   6.955   0.832  0.1693  0.5061 -0.3809
 6014SOL     OW18949   4.946   2.350   2.970 -0.2840 -0.2850 -0.3881
 6014SOL    HW118950   5.039   2.357   2.949 -0.5428  0.2531 -1.3866
 6014SOL    HW218951   4.900   2.366   2.887 -1.2807  0.0604  0.2012
 6015SOL     OW18952   1.847   3.751   3.112 -0.0104 -0.3450 -0.2511
 6015SOL    HW118953   1.822   3.737   3.021  0.5982  1.4189 -0.7354
 6015SOL    HW218954   1.877   3.666   3.143 -0.0918 -0.9349 -1.7454
 6016SOL     OW18955   0.504   7.533   6.954  0.0045 -0.3372  0.0462
 6016SOL    HW118956   0.475   7.613   6.998  1.9272  0.4751 -0.0683
 6016SOL    HW218957   0.458   7.534   6.870 -0.3803  0.3738  0.2542
 6017SOL     OW18958   2.599   3.970   6.186 -0.2231  0.7421 -0.1037
 6017SOL    HW118959   2.523   4.011   6.228 -0.4446  1.1169 -0.8701
 6017SOL    HW218960   2.583   3.979   6.092  2.3782  3.9010 -0.4239
 6018SOL     OW18961   1.760   6.348   2.114  0.2229 -0.4578 -0.4723
 6018SOL    HW118962   1.722   6.390   2.191  2.6697 -0.8841  1.0951
 6018SOL    HW218963   1.685   6.322   2.062 -1.6828 -1.6413  2.5617
 6019SOL     OW18964   5.477   6.555   5.808  0.1949 -0.5579 -1.0925
 6019SOL    HW118965   5.534   6.616   5.760  1.5563 -0.9132  0.0215
 6019SOL    HW218966   5.416   6.523   5.741  0.6194  0.6186 -2.0984
 6020SOL     OW18967   7.542   5.095   0.786  0.1324  0.2489  0.1848
 6020SOL    HW118968   7.539   5.189   0.802 -0.0719  0.4520 -0.9529
 6020SOL    HW218969   7.451   5.071   0.767  0.2666 -0.0789 -0.0539
 6021SOL     OW18970   3.768   5.336   4.901 -0.0590 -0.5421 -0.7602
 6021SOL    HW118971   3.843   5.311   4.954 -0.4493  0.0528  0.0859
 6021SOL    HW218972   3.701   5.271   4.921 -0.8655  0.7546  0.9783
 6022SOL     OW18973   7.361   0.547   2.348  0.1629 -0.4277  0.0600
 6022SOL    HW118974   7.443   0.580   2.310  0.2268  1.0785  1.3773
 6022SOL    HW218975   7.311   0.514   2.274  0.2259  2.4561 -1.3881
 6023SOL     OW18976   2.744   0.738   2.291  0.1203  0.5418 -0.0019
 6023SOL    HW118977   2.786   0.722   2.207 -0.0272 -0.3532  0.0852
 6023SOL    HW218978   2.810   0.711   2.356 -0.4505 -0.5433  0.1395
 6024SOL     OW18979   2.961   1.811   4.512 -0.4623  0.3534 -0.1239
 6024SOL    HW118980   2.983   1.883   4.452  0.6580  0.1270  0.0014
 6024SOL    HW218981   3.007   1.832   4.593 -1.2858  0.2161  0.3953
 6025SOL     OW18982   3.886   4.021   1.462  0.6531  0.2822 -0.5922
 6025SOL    HW118983   3.849   4.010   1.550  1.4175 -0.7046 -0.3677
 6025SOL    HW218984   3.972   4.061   1.477  0.6127  0.4911 -0.9165
 6026SOL     OW18985   1.132   2.255   7.599 -0.4003  0.6502  0.4560
 6026SOL    HW118986   1.149   2.161   7.604 -1.0000  0.6054  2.5868
 6026SOL    HW218987   1.218   2.295   7.603 -0.2578  0.2302  2.1140
 6027SOL     OW18988   7.450   5.759   0.202  0.1290 -0.2223  0.8656
 6027SOL    HW118989   7.536   5.767   0.244  0.2695  0.6029  0.4392
 6027SOL    HW218990   7.404   5.839   0.226  0.2186  0.2715 -0.5655
 6028SOL     OW18991   0.962   5.309   1.315 -0.4964 -0.1484 -0.1664
 6028SOL    HW118992   1.024   5.355   1.258 -0.5712 -0.8434 -0.8266
 6028SOL    HW218993   0.877   5.321   1.273 -0.2231 -2.8817 -1.7323
 6029SOL     OW18994   3.647   1.372   1.204 -0.3779 -0.4915 -0.4943
 6029SOL    HW118995   3.669   1.463   1.222  0.1825 -0.7936  0.4232
 6029SOL    HW218996   3.631   1.369   1.110 -0.1619  0.5027 -0.5714
 6030SOL     OW18997   0.574   2.238   2.481 -0.1206  0.2858 -0.0225
 6030SOL    HW118998   0.519   2.314   2.459  0.8371  0.7394 -0.9280
 6030SOL    HW218999   0.660   2.275   2.501  0.1420 -0.5008  0.3589
 6031SOL     OW19000   7.213   7.710   4.124 -0.0686 -0.0957  0.2601
 6031SOL    HW119001   7.167   7.752   4.051 -0.9493 -1.3134  0.0821
 6031SOL    HW219002   7.153   7.642   4.154  1.1062 -0.9061  0.8525
 6032SOL     OW19003   3.009   5.081   1.364 -0.3251  0.0294 -0.6208
 6032SOL    HW119004   3.014   5.069   1.458  2.6573  1.5874 -0.4687
 6032SOL    HW219005   3.026   5.174   1.351 -0.1966 -0.2389 -2.7358
 6033SOL     OW19006   3.340   6.388   4.175  1.0380 -0.3578  0.1150
 6033SOL    HW119007   3.419   6.431   4.208  0.5248 -0.3814  1.4350
 6033SOL    HW219008   3.277   6.395   4.247  0.6590 -2.5801  0.0752
 6034SOL     OW19009   2.610   6.617   3.087  0.3573 -0.7976 -0.1410
 6034SOL    HW119010   2.556   6.680   3.041  0.7399 -1.2348 -1.2159
 6034SOL    HW219011   2.611   6.648   3.178 -1.9813 -0.9774  0.0120
 6035SOL     OW19012   1.008   0.631   1.229  0.5785 -0.8432  0.2260
 6035SOL    HW119013   1.032   0.567   1.296  1.5909  0.0355  0.7308
 6035SOL    HW219014   1.080   0.693   1.229 -1.4181  1.6542  1.4491
 6036SOL     OW19015   4.762   3.887   0.530  0.2844  0.2426  0.1511
 6036SOL    HW119016   4.758   3.915   0.438 -1.8299 -0.3441  0.0102
 6036SOL    HW219017   4.802   3.961   0.575  0.6154  0.8723 -1.1152
 6037SOL     OW19018   6.948   4.139   6.802  0.7082  0.2780 -0.1721
 6037SOL    HW119019   7.017   4.203   6.782 -0.3135  1.5490  0.1994
 6037SOL    HW219020   6.961   4.117   6.894  1.9320 -1.1971 -0.6542
 6038SOL     OW19021   5.339   3.044   4.635 -0.6303  0.0263 -0.1284
 6038SOL    HW119022   5.260   3.015   4.680 -1.4768 -0.8873 -2.0755
 6038SOL    HW219023   5.409   2.991   4.671 -1.2056 -0.3600  0.4347
 6039SOL     OW19024   3.085   2.397   1.787 -0.3259  0.0514  0.0741
 6039SOL    HW119025   3.002   2.350   1.788 -0.9123  1.0509  0.7460
 6039SOL    HW219026   3.090   2.436   1.700 -0.1935 -0.6400 -0.2272
 6040SOL     OW19027   5.440   4.144   4.279 -0.3189 -0.0341 -0.0998
 6040SOL    HW119028   5.474   4.113   4.363 -2.3743  0.8330  1.1167
 6040SOL    HW219029   5.469   4.236   4.274 -0.7379  0.1057 -0.0160
 6041SOL     OW19030   3.191   1.586   4.466 -0.7851 -0.6120 -0.0523
 6041SOL    HW119031   3.192   1.678   4.439  1.5085 -0.7729 -0.7316
 6041SOL    HW219032   3.207   1.537   4.385 -2.0982 -1.6373  0.2782
 6042SOL     OW19033   3.293   7.440   0.995 -0.5734 -0.4355 -0.8655
 6042SOL    HW119034   3.206   7.468   1.024 -1.2417 -0.8268 -2.4152
 6042SOL    HW219035   3.326   7.513   0.942 -0.1995 -0.5511 -0.7999
 6043SOL     OW19036   2.863   6.286   2.158  0.4403  0.2903 -0.2538
 6043SOL    HW119037   2.914   6.226   2.213 -0.1571 -1.0732 -1.1519
 6043SOL    HW219038   2.903   6.278   2.071 -0.7611 -0.1696 -0.7821
 6044SOL     OW19039   1.573   1.476   1.582 -0.7365 -0.0536 -0.0048
 6044SOL    HW119040   1.551   1.424   1.505  0.9871  0.3313 -0.7988
 6044SOL    HW219041   1.652   1.523   1.558  0.0983 -0.2287  2.1433
 6045SOL     OW19042   1.625   0.675   2.885 -0.0916 -0.1407  0.0596
 6045SOL    HW119043   1.598   0.586   2.906 -0.7016 -0.3277 -1.3529
 6045SOL    HW219044   1.588   0.729   2.955 -0.1618 -0.9318  0.6421
 6046SOL     OW19045   2.810   7.555   5.695  0.2927 -0.8720 -0.2192
 6046SOL    HW119046   2.879   7.495   5.725  1.1419 -0.2717 -0.9304
 6046SOL    HW219047   2.840   7.642   5.722 -1.2495 -0.7692  1.4066
 6047SOL     OW19048   1.338   5.625   4.838 -0.5541  0.3458  0.0158
 6047SOL    HW119049   1.375   5.702   4.881  2.6873 -1.5060  0.8994
 6047SOL    HW219050   1.335   5.558   4.906 -3.6295 -0.3280 -0.6291
 6048SOL     OW19051   2.933   0.531   3.088 -0.4711  0.2755 -0.6943
 6048SOL    HW119052   2.994   0.491   3.026 -1.8142 -0.6665 -1.4574
 6048SOL    HW219053   2.928   0.468   3.161  1.4137  1.5659  0.6301
 6049SOL     OW19054   6.752   5.689   4.794  0.1198  0.1914 -0.0124
 6049SOL    HW119055   6.699   5.632   4.739 -0.0710 -1.3429  1.6901
 6049SOL    HW219056   6.784   5.633   4.864  0.5703  2.0121  1.3144
 6050SOL     OW19057   6.365   6.603   3.252  0.5869  0.3024  0.5083
 6050SOL    HW119058   6.292   6.559   3.209  1.6126  0.4651 -1.5347
 6050SOL    HW219059   6.377   6.556   3.334 -1.2288 -0.2747  0.4891
 6051SOL     OW19060   1.938   6.588   3.621 -0.0470 -0.6809  0.8984
 6051SOL    HW119061   1.964   6.676   3.595 -2.1951 -0.5720 -1.3036
 6051SOL    HW219062   2.018   6.536   3.614  0.7682  0.6444 -0.0924
 6052SOL     OW19063   5.282   7.578   4.946  0.3994 -0.5645 -0.5079
 6052SOL    HW119064   5.356   7.594   5.005 -1.1320  0.3674  1.2597
 6052SOL    HW219065   5.292   7.643   4.877  1.3446 -0.6101 -0.4310
 6053SOL     OW19066   1.564   5.137   6.909 -0.1581 -0.2280  0.2009
 6053SOL    HW119067   1.516   5.100   6.983 -1.1945 -0.1317 -0.4200
 6053SOL    HW219068   1.497   5.169   6.849  0.5897 -1.7794 -1.5663
 6054SOL     OW19069   3.996   5.975   6.532  0.0148 -0.3229  0.5070
 6054SOL    HW119070   3.996   6.043   6.600  1.9441  1.2686 -0.9771
 6054SOL    HW219071   4.084   5.976   6.497 -0.5491 -2.0682 -1.1241
 6055SOL     OW19072   7.562   0.918   0.832  0.2072 -0.4114  0.0829
 6055SOL    HW119073   7.581   0.926   0.926  0.8481 -1.3414  0.0532
 6055SOL    HW219074   7.580   1.004   0.796 -0.6000  0.1159  0.9089
 6056SOL     OW19075   2.698   1.454   5.055  0.1222 -0.2208 -0.1839
 6056SOL    HW119076   2.621   1.499   5.020 -0.6137  0.3543  2.0089
 6056SOL    HW219077   2.694   1.366   5.017 -1.3169 -0.0297 -0.5241
 6057SOL     OW19078   4.779   6.973   4.936  0.0376 -0.0994  0.7616
 6057SOL    HW119079   4.867   7.005   4.956  0.4963 -0.4384 -0.6354
 6057SOL    HW219080   4.758   6.915   5.010  0.5252  0.8142  1.6442
 6058SOL     OW19081   1.599   7.641   7.265  0.0037  0.3401  0.5114
 6058SOL    HW119082   1.673   7.614   7.210 -1.9206 -2.4208 -0.9322
 6058SOL    HW219083   1.525   7.589   7.234 -1.8655  0.6238  3.9676
 6059SOL     OW19084   4.576   5.482   0.996  0.1272  0.4628  0.1618
 6059SOL    HW119085   4.653   5.495   0.941  1.8182 -2.1801  1.6696
 6059SOL    HW219086   4.524   5.416   0.950  0.9714 -0.8933  1.0523
 6060SOL     OW19087   3.383   2.809   3.965 -0.2416  0.2393 -0.1600
 6060SOL    HW119088   3.450   2.768   3.910 -0.5735  0.1006 -0.4631
 6060SOL    HW219089   3.431   2.839   4.043  0.3395  0.9514 -0.7777
 6061SOL     OW19090   2.509   6.201   7.662 -0.1501 -0.1779 -0.1093
 6061SOL    HW119091   2.573   6.149   7.615  0.6328  0.7523 -0.1010
 6061SOL    HW219092   2.560   6.257   7.720 -0.9394  0.7102 -0.2287
 6062SOL     OW19093   0.920   6.909   6.533 -0.2907  0.6942  0.0837
 6062SOL    HW119094   0.872   6.826   6.524 -0.0441  0.6769 -1.1798
 6062SOL    HW219095   0.954   6.907   6.623  1.7490 -1.7106 -0.6376
 6063SOL     OW19096   3.595   4.619   6.934 -0.0526 -0.2440 -0.3362
 6063SOL    HW119097   3.503   4.597   6.949 -0.7403  2.5537  0.1774
 6063SOL    HW219098   3.606   4.609   6.840 -0.6960 -1.2370 -0.3199
 6064SOL     OW19099   1.197   3.039   1.114  0.3502  0.3804 -0.3261
 6064SOL    HW119100   1.125   3.101   1.124 -0.4182 -0.7259  1.6627
 6064SOL    HW219101   1.267   3.073   1.169  0.5718  0.3469 -0.5816
 6065SOL     OW19102   3.978   0.878   4.946 -0.3135  0.1204 -0.1470
 6065SOL    HW119103   3.906   0.855   4.887 -0.7017  1.6117 -0.3001
 6065SOL    HW219104   3.983   0.973   4.940  0.6460  0.1577  1.0754
 6066SOL     OW19105   4.534   6.987   0.501 -0.0111  0.0749  0.2585
 6066SOL    HW119106   4.576   6.956   0.581  0.6230 -0.1480 -0.1563
 6066SOL    HW219107   4.493   6.909   0.464 -4.0367  0.8535  2.5210
 6067SOL     OW19108   6.884   7.705   7.599  0.0996 -0.8395 -0.0078
 6067SOL    HW119109   6.833   7.683   7.522 -1.5084  1.4542  0.3032
 6067SOL    HW219110   6.913   7.795   7.584  0.6835 -0.7247  1.5766
 6068SOL     OW19111   6.814   4.790   2.545  0.3217 -0.0319  0.4542
 6068SOL    HW119112   6.849   4.852   2.609 -0.4323  1.1258 -0.2209
 6068SOL    HW219113   6.884   4.780   2.480 -0.4359  2.0939 -0.7670
 6069SOL     OW19114   1.042   7.381   6.447  0.2315 -0.3641  0.5063
 6069SOL    HW119115   0.984   7.354   6.519  0.3040  0.6077  0.9582
 6069SOL    HW219116   1.124   7.405   6.491 -0.3594  2.2115  0.4144
 6070SOL     OW19117   0.749   4.497   3.966 -0.5301 -0.1358 -0.2883
 6070SOL    HW119118   0.720   4.467   3.880  1.3041 -2.7878 -0.1124
 6070SOL    HW219119   0.714   4.433   4.027  0.7398 -0.0648  0.5612
 6071SOL     OW19120   2.332   6.114   3.971 -0.2478 -0.5269  0.1134
 6071SOL    HW119121   2.382   6.082   4.046  0.7485 -1.7360 -1.0287
 6071SOL    HW219122   2.282   6.038   3.940  0.6213 -0.5141 -1.4323
 6072SOL     OW19123   3.689   3.177   6.736 -0.1891  0.2625  0.0067
 6072SOL    HW119124   3.673   3.087   6.710  0.4904  0.2089 -0.2312
 6072SOL    HW219125   3.603   3.219   6.731 -0.5150 -0.3836  0.1757
 6073SOL     OW19126   5.135   2.656   3.013  0.1679  0.1038  0.0387
 6073SOL    HW119127   5.124   2.747   3.042 -0.5553  0.1854 -0.4835
 6073SOL    HW219128   5.046   2.621   3.009  0.3230 -0.1999 -1.1304
 6074SOL     OW19129   6.912   4.702   0.896 -0.0982  0.8873 -0.0214
 6074SOL    HW119130   6.947   4.754   0.824 -0.7545  1.2739 -0.0718
 6074SOL    HW219131   6.850   4.643   0.855  0.2955  0.3819  0.0995
 6075SOL     OW19132   0.140   4.580   0.791  0.1514  0.1936  0.0728
 6075SOL    HW119133   0.163   4.548   0.878  0.9898 -1.7244 -0.7900
 6075SOL    HW219134   0.044   4.575   0.788 -0.0035  1.6499  1.3298
 6076SOL     OW19135   4.563   7.427   0.092 -0.4115 -0.2129 -0.0037
 6076SOL    HW119136   4.541   7.343   0.132 -1.0670  0.0523  0.2212
 6076SOL    HW219137   4.532   7.419   0.002  0.0554 -0.4154 -0.1486
 6077SOL     OW19138   5.760   2.266   3.998  0.1300 -0.0796 -0.4067
 6077SOL    HW119139   5.731   2.356   4.010  1.6167  0.6325 -1.8374
 6077SOL    HW219140   5.690   2.213   4.038 -0.2130  1.6905  1.4978
 6078SOL     OW19141   6.544   7.498   2.745 -0.2796  0.5836  0.0193
 6078SOL    HW119142   6.561   7.578   2.695  0.4211  0.8682  0.6842
 6078SOL    HW219143   6.456   7.471   2.720 -0.1981  1.0939 -0.8470
 6079SOL     OW19144   7.450   5.792   4.229  0.0335  0.1503  0.7023
 6079SOL    HW119145   7.422   5.767   4.317  0.5846  1.8909  1.4206
 6079SOL    HW219146   7.424   5.884   4.221 -1.6456 -0.4457 -1.6662
 6080SOL     OW19147   5.138   2.498   1.353  0.7663  0.1501  0.1310
 6080SOL    HW119148   5.148   2.569   1.417  0.7732  1.6377 -1.4223
 6080SOL    HW219149   5.049   2.508   1.319  1.2709  0.4087 -1.1856
 6081SOL     OW19150   3.514   0.983   6.464 -0.4134  0.1861 -0.7263
 6081SOL    HW119151   3.600   1.015   6.493 -1.2070  0.5208  1.4450
 6081SOL    HW219152   3.490   0.917   6.529 -1.7072 -0.0564 -1.4247
 6082SOL     OW19153   2.552   3.844   1.690 -0.4222  0.3129 -0.6054
 6082SOL    HW119154   2.561   3.751   1.709 -0.8693  0.0969 -1.3918
 6082SOL    HW219155   2.478   3.872   1.743  0.1736  0.3949  0.1935
 6083SOL     OW19156   1.173   4.726   2.404  0.2858 -0.5497  0.2930
 6083SOL    HW119157   1.187   4.754   2.314  1.3211 -3.2063 -0.4491
 6083SOL    HW219158   1.080   4.704   2.408 -0.2176  1.4338  0.4973
 6084SOL     OW19159   0.493   0.759   2.875  0.6027 -0.4451  0.3689
 6084SOL    HW119160   0.415   0.815   2.880  1.4516  0.6610  3.2437
 6084SOL    HW219161   0.557   0.811   2.826  0.4237 -0.1734  0.4196
 6085SOL     OW19162   4.537   6.665   0.778  0.3198 -0.0015 -0.0292
 6085SOL    HW119163   4.522   6.606   0.851 -0.1141  1.7022  1.3151
 6085SOL    HW219164   4.468   6.644   0.715 -0.1791 -0.5102  0.6823
 6086SOL     OW19165   0.620   6.626   1.494  0.0103  0.3288  0.3274
 6086SOL    HW119166   0.596   6.556   1.434  1.5972 -0.6322  0.7561
 6086SOL    HW219167   0.630   6.703   1.438  3.0915 -0.8897 -1.0217
 6087SOL     OW19168   1.292   4.316   5.821 -0.1005 -0.3489  0.0342
 6087SOL    HW119169   1.256   4.392   5.868 -1.1732 -1.1272  0.5248
 6087SOL    HW219170   1.283   4.339   5.729 -0.9907 -0.1079  0.1663
 6088SOL     OW19171   0.831   1.288   4.071 -0.4898 -0.0794 -0.3489
 6088SOL    HW119172   0.899   1.221   4.075  0.1010  0.5701  1.8059
 6088SOL    HW219173   0.766   1.252   4.010  1.2792 -1.1466 -1.7407
 6089SOL     OW19174   0.109   4.807   0.536 -0.5009 -0.0720  0.4090
 6089SOL    HW119175   0.099   4.714   0.553 -3.0732 -0.1880 -1.1846
 6089SOL    HW219176   0.021   4.843   0.543  0.3441  2.1740  0.5019
 6090SOL     OW19177   7.313   2.415   1.528  0.4124  0.4770 -0.1192
 6090SOL    HW119178   7.407   2.407   1.512  0.4251  1.6260 -0.6772
 6090SOL    HW219179   7.290   2.502   1.497 -0.9150  0.0864 -0.3006
 6091SOL     OW19180   3.400   5.631   0.238 -0.1452 -0.3007 -0.1251
 6091SOL    HW119181   3.321   5.582   0.260 -0.0527 -0.5599 -0.3683
 6091SOL    HW219182   3.408   5.622   0.143  0.4298 -0.6625 -0.0470
 6092SOL     OW19183   6.640   0.870   1.099 -0.2520  0.5637 -0.3135
 6092SOL    HW119184   6.687   0.805   1.150  0.2306  1.2440  0.1340
 6092SOL    HW219185   6.684   0.953   1.120 -2.0484  1.3334  0.6658
 6093SOL     OW19186   0.480   0.854   4.731  0.7926  0.3332 -0.0203
 6093SOL    HW119187   0.498   0.928   4.790 -0.3369  1.1568 -0.6722
 6093SOL    HW219188   0.566   0.831   4.696  1.4240  0.1240  1.5753
 6094SOL     OW19189   6.161   0.093   5.387  0.2647  0.2969  0.1527
 6094SOL    HW119190   6.201   0.010   5.361 -0.7280 -0.3293  0.5610
 6094SOL    HW219191   6.099   0.069   5.456 -2.7925  0.8074 -2.2165
 6095SOL     OW19192   3.926   3.290   2.512  0.3500 -0.5533  0.3900
 6095SOL    HW119193   3.867   3.363   2.494  1.5745  0.2987 -0.2920
 6095SOL    HW219194   3.985   3.323   2.580 -0.1176 -1.4935  1.2774
 6096SOL     OW19195   3.139   4.504   5.064 -0.1956  0.1518  0.0792
 6096SOL    HW119196   3.071   4.535   5.124  1.1785  2.3002  0.6505
 6096SOL    HW219197   3.193   4.582   5.046 -0.1688 -0.5038 -3.5194
 6097SOL     OW19198   1.052   7.601   6.678 -0.2473  0.2348 -0.2316
 6097SOL    HW119199   1.142   7.590   6.646 -0.1052 -2.5021  0.8480
 6097SOL    HW219200   1.059   7.669   6.744  0.5227  1.7897 -1.8170
 6098SOL     OW19201   3.197   4.100   6.596  0.0726  0.0051  0.3833
 6098SOL    HW119202   3.105   4.115   6.575  0.5298 -0.0156 -1.9680
 6098SOL    HW219203   3.202   4.007   6.617 -0.8256  0.5065  3.3470
 6099SOL     OW19204   6.501   6.190   2.960  0.3175 -0.2465  0.6693
 6099SOL    HW119205   6.563   6.214   3.028 -1.3394  1.1182  1.7958
 6099SOL    HW219206   6.524   6.246   2.886  1.7328 -1.2946  0.2662
 6100SOL     OW19207   1.703   0.186   6.932  0.0355  0.3605  0.4000
 6100SOL    HW119208   1.665   0.098   6.926  1.4359 -0.4769  2.6289
 6100SOL    HW219209   1.669   0.232   6.855 -1.7094 -1.7374 -0.1883
 6101SOL     OW19210   2.871   2.262   4.159  0.4281 -0.5750 -0.0734
 6101SOL    HW119211   2.840   2.343   4.118  0.9861 -1.0326 -1.4467
 6101SOL    HW219212   2.921   2.292   4.235  0.2946  0.3458 -0.3296
 6102SOL     OW19213   4.127   1.610   5.901 -0.3031  0.1350  0.0704
 6102SOL    HW119214   4.174   1.571   5.827  1.0671  1.8687 -0.0414
 6102SOL    HW219215   4.035   1.611   5.873 -0.1459 -1.4682 -0.5760
 6103SOL     OW19216   4.611   5.011   6.164 -0.4172  0.1113  0.1661
 6103SOL    HW119217   4.516   5.001   6.153 -0.3628 -0.9375  0.5467
 6103SOL    HW219218   4.630   4.970   6.248  0.5755 -1.0614 -0.5912
 6104SOL     OW19219   3.558   2.395   5.316 -0.0163  0.4907  0.4516
 6104SOL    HW119220   3.590   2.400   5.226 -0.8114  2.0199  0.2214
 6104SOL    HW219221   3.530   2.484   5.336 -0.4930  0.0172  1.9774
 6105SOL     OW19222   4.966   5.184   3.524 -0.2398 -0.2913  0.1467
 6105SOL    HW119223   5.048   5.219   3.489 -1.2315  0.9494 -0.9801
 6105SOL    HW219224   4.948   5.238   3.601  0.4662 -1.2006  0.9896
 6106SOL     OW19225   6.755   0.369   5.949  0.0407 -0.6676  0.0027
 6106SOL    HW119226   6.752   0.413   6.034  3.4415 -0.1263 -0.0066
 6106SOL    HW219227   6.792   0.435   5.890  2.0311 -2.3839 -0.7928
 6107SOL     OW19228   1.673   5.694   0.754  0.1568 -0.1584  0.7920
 6107SOL    HW119229   1.610   5.655   0.815  2.4510 -1.5172  2.4156
 6107SOL    HW219230   1.748   5.718   0.808  1.7198 -0.0583 -1.2826
 6108SOL     OW19231   4.343   2.406   7.714 -0.4877 -0.2351  0.2230
 6108SOL    HW119232   4.436   2.401   7.735 -0.6161  1.9720  1.6726
 6108SOL    HW219233   4.339   2.453   7.631 -0.3345  0.9808  0.8894
 6109SOL     OW19234   6.635   4.191   6.703 -0.1227  0.0889 -0.3200
 6109SOL    HW119235   6.669   4.163   6.619  2.7973  0.1527  0.7360
 6109SOL    HW219236   6.646   4.115   6.760  1.0622  1.0486  0.7805
 6110SOL     OW19237   0.340   6.346   0.511  0.2057 -0.1564 -0.1519
 6110SOL    HW119238   0.352   6.389   0.595  0.4770 -1.1467  0.3231
 6110SOL    HW219239   0.268   6.284   0.525 -1.0745  1.0042 -1.1764
 6111SOL     OW19240   4.885   4.556   2.560  0.0238  0.8591 -0.5362
 6111SOL    HW119241   4.910   4.577   2.649  0.8415 -1.5943 -0.0919
 6111SOL    HW219242   4.837   4.473   2.567  2.7881 -1.1221 -2.5383
 6112SOL     OW19243   3.369   2.173   7.483  0.3941 -0.0411 -0.5139
 6112SOL    HW119244   3.289   2.143   7.526  0.1358  0.9772 -0.2586
 6112SOL    HW219245   3.393   2.100   7.426  0.1634 -0.9981  0.5560
 6113SOL     OW19246   6.485   1.099   7.664  0.3601 -0.0433 -0.3851
 6113SOL    HW119247   6.457   1.020   7.710  0.0994 -1.0320 -2.1314
 6113SOL    HW219248   6.558   1.070   7.609  0.8110  1.1231 -0.4387
 6114SOL     OW19249   1.455   4.495   6.760  0.4361  0.4111 -0.5575
 6114SOL    HW119250   1.368   4.532   6.775  0.8188  0.5378  1.6716
 6114SOL    HW219251   1.510   4.533   6.829  0.9704 -3.8562  1.6963
 6115SOL     OW19252   4.214   5.794   1.346  0.3587 -0.1035  0.1639
 6115SOL    HW119253   4.178   5.881   1.327  1.7436  0.1037 -1.7807
 6115SOL    HW219254   4.290   5.811   1.402  1.2949  0.0998 -1.1126
 6116SOL     OW19255   0.384   5.366   2.489 -0.0097 -0.3622  0.1301
 6116SOL    HW119256   0.442   5.407   2.425  0.6075  0.9340  1.4508
 6116SOL    HW219257   0.305   5.419   2.487  0.3535  0.2295  1.0460
 6117SOL     OW19258   7.422   2.170   7.414  0.1210 -0.0245  0.2805
 6117SOL    HW119259   7.395   2.239   7.474  1.6868 -0.1380  1.1709
 6117SOL    HW219260   7.362   2.177   7.340 -0.8920  1.0988  1.1749
 6118SOL     OW19261   5.649   3.590   1.457  0.1362 -0.1303  0.7832
 6118SOL    HW119262   5.554   3.594   1.465  0.1604 -0.4832  1.3169
 6118SOL    HW219263   5.666   3.512   1.405  0.0572  1.1253 -1.2181
 6119SOL     OW19264   5.426   1.807   4.021  0.1678  0.6678  0.3903
 6119SOL    HW119265   5.514   1.781   3.995  0.1423  0.8233  0.1415
 6119SOL    HW219266   5.395   1.861   3.948  0.2868  1.5429  0.9726
 6120SOL     OW19267   6.129   3.309   1.354 -0.3263 -0.0995  0.0847
 6120SOL    HW119268   6.094   3.225   1.326 -0.6561 -0.5555  1.7605
 6120SOL    HW219269   6.189   3.287   1.425 -0.1347  1.0559  0.2963
 6121SOL     OW19270   6.443   4.800   2.650  0.0513 -0.0750  0.4538
 6121SOL    HW119271   6.463   4.764   2.563 -0.5762 -0.1364  0.3323
 6121SOL    HW219272   6.425   4.724   2.704 -2.2037  0.0425 -0.0317
 6122SOL     OW19273   7.452   1.145   4.213 -0.3168  0.3113 -0.3497
 6122SOL    HW119274   7.493   1.179   4.133 -1.2104 -1.0109 -1.4265
 6122SOL    HW219275   7.362   1.178   4.209  0.2773  2.3763  1.4885
 6123SOL     OW19276   1.538   4.042   0.272  0.4318  0.0015 -0.2352
 6123SOL    HW119277   1.456   4.025   0.224  1.3072  0.0751 -1.8431
 6123SOL    HW219278   1.565   4.129   0.241  0.5498  0.4746  1.1550
 6124SOL     OW19279   1.086   1.576   1.255 -0.5949  0.1217  0.3351
 6124SOL    HW119280   1.027   1.514   1.213  1.0343 -1.9394  0.9286
 6124SOL    HW219281   1.046   1.592   1.341 -0.9100 -0.3108  0.2727
 6125SOL     OW19282   0.340   6.694   2.064  0.1308 -0.1171  0.2945
 6125SOL    HW119283   0.414   6.705   2.124  1.0550 -1.1675 -0.6134
 6125SOL    HW219284   0.338   6.774   2.012 -0.5595  0.7221  1.5503
 6126SOL     OW19285   3.358   3.662   3.199 -0.4070 -0.1767 -0.1082
 6126SOL    HW119286   3.329   3.577   3.233 -1.4647 -0.5354 -1.7489
 6126SOL    HW219287   3.427   3.690   3.258 -1.8280 -0.9294  2.0405
 6127SOL     OW19288   1.534   7.456   6.897 -0.0007 -0.0464  0.3967
 6127SOL    HW119289   1.598   7.411   6.953 -0.1202  1.1261  1.5174
 6127SOL    HW219290   1.472   7.387   6.872  0.2232 -0.6765  1.4902
 6128SOL     OW19291   3.826   0.796   2.125  0.1671 -0.1583 -0.1403
 6128SOL    HW119292   3.889   0.866   2.109 -0.9581  0.7705 -0.5486
 6128SOL    HW219293   3.785   0.819   2.208  0.2161 -0.6702  0.0329
 6129SOL     OW19294   3.805   0.560   0.425  0.1467  1.0672  0.0133
 6129SOL    HW119295   3.869   0.571   0.495  0.6826  1.6058 -0.5434
 6129SOL    HW219296   3.855   0.525   0.351 -0.2499  1.2323 -0.3416
 6130SOL     OW19297   7.439   3.700   4.983 -0.0856 -0.2176  0.1891
 6130SOL    HW119298   7.507   3.669   5.043 -0.3917 -0.0198  0.6405
 6130SOL    HW219299   7.357   3.686   5.030 -0.4054 -0.9610 -0.5674
 6131SOL     OW19300   5.542   7.129   6.049  0.1228  0.2197 -0.2518
 6131SOL    HW119301   5.497   7.056   6.007  0.6650  0.9460 -2.2224
 6131SOL    HW219302   5.634   7.103   6.049  0.1202  0.1846  0.6310
 6132SOL     OW19303   4.323   1.419   4.165 -0.3496  0.0544 -0.3036
 6132SOL    HW119304   4.337   1.489   4.101 -1.3493 -0.7008 -1.3794
 6132SOL    HW219305   4.323   1.464   4.250 -2.7530  1.6570 -1.0600
 6133SOL     OW19306   7.407   1.736   4.611 -0.4701  0.1049 -0.2524
 6133SOL    HW119307   7.342   1.774   4.551 -1.0964 -0.1883  0.2278
 6133SOL    HW219308   7.396   1.641   4.600 -0.2134  0.0529 -0.0670
 6134SOL     OW19309   3.797   1.861   0.234  0.3466  0.0163  0.6884
 6134SOL    HW119310   3.779   1.769   0.218  0.3266 -0.4469  3.0489
 6134SOL    HW219311   3.857   1.862   0.309 -0.2013  1.9153  1.1749
 6135SOL     OW19312   3.577   7.445   5.685  0.4323  0.5377 -0.3180
 6135SOL    HW119313   3.614   7.492   5.760 -0.7411  1.4735 -0.3148
 6135SOL    HW219314   3.534   7.369   5.724  3.4025 -1.3738 -0.4145
 6136SOL     OW19315   5.575   4.174   4.523  0.3494  0.0307  0.4940
 6136SOL    HW119316   5.532   4.248   4.566  0.1042 -0.2935  0.8171
 6136SOL    HW219317   5.561   4.100   4.583 -2.7962 -1.2077 -1.5321
 6137SOL     OW19318   0.326   3.588   4.243  0.5058 -0.3915 -0.1907
 6137SOL    HW119319   0.364   3.655   4.186  0.8294 -0.2411  0.2025
 6137SOL    HW219320   0.247   3.630   4.279  2.0635  0.7783  2.1082
 6138SOL     OW19321   4.850   2.897   0.951  0.8080 -0.2975  0.6014
 6138SOL    HW119322   4.819   2.814   0.915  0.3318  0.3286 -0.4900
 6138SOL    HW219323   4.894   2.940   0.878  1.0310  0.4183  1.1472
 6139SOL     OW19324   5.306   0.879   3.194  0.2447  0.0304  0.1975
 6139SOL    HW119325   5.214   0.878   3.169  0.7933  0.4956 -2.1497
 6139SOL    HW219326   5.326   0.789   3.218  0.1034 -1.1450 -3.4653
 6140SOL     OW19327   2.522   1.461   3.706 -0.1139 -0.0472  0.1374
 6140SOL    HW119328   2.556   1.373   3.688  1.6471  0.4320  0.9080
 6140SOL    HW219329   2.512   1.501   3.619 -0.2182 -0.7519 -0.1807
 6141SOL     OW19330   6.256   2.088   6.999  0.7039  0.3216  0.4991
 6141SOL    HW119331   6.224   2.013   6.950 -0.4941  1.4723 -0.5512
 6141SOL    HW219332   6.296   2.050   7.078  1.7109 -1.4944 -0.8054
 6142SOL     OW19333   4.615   7.614   1.186  0.2623  0.6047  0.2346
 6142SOL    HW119334   4.550   7.616   1.256  0.0416  0.0640  0.0487
 6142SOL    HW219335   4.689   7.565   1.223  0.0685  0.1526  0.0256
 6143SOL     OW19336   4.715   0.460   0.279 -0.6242 -0.6509  0.2578
 6143SOL    HW119337   4.690   0.505   0.198  1.1718  0.7029  0.3990
 6143SOL    HW219338   4.691   0.521   0.349  2.6312  0.6397  0.4124
 6144SOL     OW19339   3.894   3.632   4.012 -0.0564 -0.2179  0.1562
 6144SOL    HW119340   3.922   3.661   3.926  1.0100 -0.0539  0.5490
 6144SOL    HW219341   3.969   3.648   4.069 -0.7017 -0.4346  1.0931
 6145SOL     OW19342   1.968   4.108   5.663 -0.3621  0.3601  0.1225
 6145SOL    HW119343   1.934   4.096   5.752 -0.8433 -0.6397 -0.1785
 6145SOL    HW219344   2.063   4.116   5.673 -0.4273  0.3521  0.7341
 6146SOL     OW19345   7.439   5.375   0.171 -0.3185 -0.1459 -0.1834
 6146SOL    HW119346   7.377   5.431   0.124  0.8791  1.6662  0.2892
 6146SOL    HW219347   7.478   5.433   0.236  3.8935 -0.3678 -2.2085
 6147SOL     OW19348   7.173   3.341   7.167  0.4009  0.4460  0.1858
 6147SOL    HW119349   7.153   3.434   7.181  0.2018  0.4047  0.1713
 6147SOL    HW219350   7.097   3.294   7.202  0.6307  0.2769  0.4639
 6148SOL     OW19351   4.892   4.799   0.346 -0.2708  0.4142 -0.3037
 6148SOL    HW119352   4.896   4.890   0.318 -1.3672 -0.2659 -2.9740
 6148SOL    HW219353   4.800   4.774   0.337  0.2369 -1.3646 -1.1704
 6149SOL     OW19354   3.746   3.175   1.959  0.1500 -0.4969 -0.8033
 6149SOL    HW119355   3.773   3.238   1.892  2.7745 -2.1615 -1.4905
 6149SOL    HW219356   3.751   3.090   1.916  2.4160 -1.7003  1.5250
 6150SOL     OW19357   1.443   1.670   7.425  0.0170  0.4592 -0.1787
 6150SOL    HW119358   1.479   1.620   7.351 -0.9764 -0.7121  0.0926
 6150SOL    HW219359   1.355   1.635   7.437 -0.4412  1.7909  0.5214
 6151SOL     OW19360   7.577   2.435   1.482  0.3677 -0.2028  0.1707
 6151SOL    HW119361   7.610   2.461   1.568  1.3223  3.2100 -1.0927
 6151SOL    HW219362   7.600   2.507   1.424  0.5913 -2.7694 -3.2235
 6152SOL     OW19363   2.782   1.872   5.262  0.1694  0.1446 -0.5526
 6152SOL    HW119364   2.877   1.860   5.273 -0.0703 -1.0872  0.4007
 6152SOL    HW219365   2.765   1.844   5.172  0.7328  0.5858 -0.8045
 6153SOL     OW19366   6.860   0.769   7.587  0.1358 -0.7420 -0.3940
 6153SOL    HW119367   6.817   0.715   7.653 -2.4258 -0.7623 -1.9477
 6153SOL    HW219368   6.808   0.849   7.583  1.5932  0.2278 -0.8289
 6154SOL     OW19369   5.799   0.525   5.919 -0.7956 -0.1940 -0.2183
 6154SOL    HW119370   5.733   0.466   5.882 -0.0320 -1.8997  0.9857
 6154SOL    HW219371   5.759   0.557   6.000  0.3238 -2.5159  1.3908
 6155SOL     OW19372   6.301   2.390   5.263 -0.0843  0.0870 -0.8176
 6155SOL    HW119373   6.374   2.449   5.284 -0.0010 -0.0591 -0.6902
 6155SOL    HW219374   6.330   2.343   5.185  0.5834 -1.0166  0.0579
 6156SOL     OW19375   0.882   6.008   0.993  0.2135  0.5900 -0.3902
 6156SOL    HW119376   0.855   5.927   0.948 -0.8787  0.7943 -0.1188
 6156SOL    HW219377   0.976   6.016   0.973  0.7174 -1.5619  0.8574
 6157SOL     OW19378   6.712   3.670   2.634 -0.1829  0.2702 -0.0714
 6157SOL    HW119379   6.694   3.684   2.541  1.0628  0.9616 -0.2210
 6157SOL    HW219380   6.670   3.586   2.654  0.9987 -0.7626 -1.6811
 6158SOL     OW19381   5.606   4.199   3.969 -0.9309 -0.5295 -0.2147
 6158SOL    HW119382   5.617   4.111   4.006 -0.0464 -0.7243 -0.9345
 6158SOL    HW219383   5.511   4.211   3.967 -1.0567 -1.3473  0.1727
 6159SOL     OW19384   6.049   6.659   5.074  0.6151 -0.4817 -0.3359
 6159SOL    HW119385   6.121   6.713   5.041 -2.1624  3.3459 -0.6923
 6159SOL    HW219386   5.988   6.653   5.000  0.0189 -2.8328  0.2500
 6160SOL     OW19387   2.922   6.203   4.570  0.4305 -0.4860  0.3365
 6160SOL    HW119388   2.854   6.160   4.517 -1.2895  0.4449  1.7021
 6160SOL    HW219389   2.882   6.286   4.597  2.7534  0.8782 -0.1817
 6161SOL     OW19390   6.790   7.065   3.238 -0.3191 -0.2114  0.1973
 6161SOL    HW119391   6.702   7.056   3.273  0.2988 -0.4987  1.7756
 6161SOL    HW219392   6.841   7.103   3.310  0.6767  0.7304 -0.9480
 6162SOL     OW19393   1.647   7.546   3.322 -0.2143 -0.2810 -0.0990
 6162SOL    HW119394   1.607   7.477   3.269  1.3384 -0.1399 -1.5554
 6162SOL    HW219395   1.670   7.614   3.259  1.3381  0.0845  0.8050
 6163SOL     OW19396   2.037   2.938   2.701  0.6907 -0.0449 -0.0275
 6163SOL    HW119397   1.994   3.012   2.745  1.5888 -0.4928  1.7229
 6163SOL    HW219398   1.972   2.868   2.702  0.2105  0.3836 -0.7156
 6164SOL     OW19399   7.690   1.217   2.099  0.5046 -0.0250  0.5923
 6164SOL    HW119400   7.736   1.300   2.085  2.5476 -1.1155  0.3866
 6164SOL    HW219401   7.747   1.151   2.058 -1.2895 -1.4924  0.3184
 6165SOL     OW19402   5.021   3.770   0.397  0.1159 -0.3192  0.0197
 6165SOL    HW119403   4.975   3.851   0.375 -0.0821  0.0383  1.6317
 6165SOL    HW219404   5.070   3.791   0.476  0.2178 -1.7309  0.3578
 6166SOL     OW19405   0.058   0.708   0.311 -0.4932 -0.2453  0.3485
 6166SOL    HW119406   0.140   0.660   0.324 -0.9604 -0.8814  0.9811
 6166SOL    HW219407  -0.002   0.644   0.274 -0.3620  0.5346 -1.3052
 6167SOL     OW19408   7.255   0.404   5.319 -0.5633 -0.1710  0.5589
 6167SOL    HW119409   7.219   0.366   5.399 -2.1903  0.7487  0.3154
 6167SOL    HW219410   7.253   0.333   5.255  0.3094 -0.7815  1.1867
 6168SOL     OW19411   7.161   7.051   3.485  0.1623 -0.2733  0.2977
 6168SOL    HW119412   7.113   7.051   3.567  1.2823 -0.0199  0.9662
 6168SOL    HW219413   7.251   7.028   3.509  1.3349  3.0690 -0.3477
 6169SOL     OW19414   2.318   2.611   5.724 -0.1513  0.0489 -0.3642
 6169SOL    HW119415   2.344   2.703   5.724 -0.9462  0.3057 -1.6988
 6169SOL    HW219416   2.249   2.606   5.790  1.6651 -0.1925  1.6359
 6170SOL     OW19417   2.518   2.356   2.262 -0.3210 -0.0419 -0.2691
 6170SOL    HW119418   2.606   2.392   2.255  0.1830 -1.4020 -1.3457
 6170SOL    HW219419   2.499   2.321   2.175 -1.8204 -0.0268  0.0168
 6171SOL     OW19420   1.684   6.407   4.691 -0.2293  1.2636 -0.2570
 6171SOL    HW119421   1.625   6.348   4.737 -1.1892  1.4527 -1.1972
 6171SOL    HW219422   1.639   6.427   4.609  1.5039  0.7465 -1.4104
 6172SOL     OW19423   1.528   5.681   2.459 -0.1687  0.0190 -0.1335
 6172SOL    HW119424   1.513   5.749   2.525  1.2572 -0.1882  0.4478
 6172SOL    HW219425   1.495   5.718   2.378  0.1535  1.2237  0.2595
 6173SOL     OW19426   3.804   0.876   4.763 -0.5213 -0.4145  0.2957
 6173SOL    HW119427   3.711   0.869   4.744 -0.3534  0.3269 -0.9157
 6173SOL    HW219428   3.847   0.861   4.679  0.4156 -0.1414  0.7117
 6174SOL     OW19429   0.939   5.681   3.471  0.3412 -0.4344 -0.3161
 6174SOL    HW119430   0.995   5.640   3.537 -1.1724 -1.9896  0.0918
 6174SOL    HW219431   0.969   5.643   3.388  0.8947 -0.0691 -0.2864
 6175SOL     OW19432   3.985   2.239   3.901 -0.0201  0.2783  0.3233
 6175SOL    HW119433   3.895   2.243   3.934 -0.5187 -0.8171 -0.8293
 6175SOL    HW219434   3.985   2.296   3.825 -0.3323 -1.2570 -0.8937
 6176SOL     OW19435   4.027   0.066   6.936 -0.0796 -0.7446  0.5900
 6176SOL    HW119436   4.044   0.034   6.847  1.0730 -1.1495  0.9345
 6176SOL    HW219437   4.112   0.100   6.965 -0.7271  0.4906  1.1055
 6177SOL     OW19438   7.251   4.025   3.384 -0.1152 -0.6254 -0.3865
 6177SOL    HW119439   7.311   3.971   3.333  1.1573 -0.0854  0.4766
 6177SOL    HW219440   7.305   4.097   3.417 -1.5972  0.7566 -0.8497
 6178SOL     OW19441   6.684   3.553   5.461  0.1303 -0.3884  0.2072
 6178SOL    HW119442   6.705   3.629   5.514  1.3317 -2.2255  2.5098
 6178SOL    HW219443   6.735   3.564   5.381  0.9007  0.8055  0.8453
 6179SOL     OW19444   4.930   4.734   1.907 -0.3202  0.3459  0.2356
 6179SOL    HW119445   4.975   4.733   1.822  0.9824 -0.7623  0.8903
 6179SOL    HW219446   4.943   4.645   1.941 -2.9309  0.0220  0.5416
 6180SOL     OW19447   2.584   7.192   1.416  0.1673 -0.0913  0.4984
 6180SOL    HW119448   2.594   7.106   1.375  1.6992 -0.1134  0.8555
 6180SOL    HW219449   2.621   7.253   1.352  0.0269  0.1879  0.6839
 6181SOL     OW19450   1.238   4.387   3.314  0.0251 -0.5724 -0.4619
 6181SOL    HW119451   1.208   4.389   3.223  0.3811 -2.2149 -0.6401
 6181SOL    HW219452   1.308   4.452   3.317  0.8581 -1.3836 -1.6851
 6182SOL     OW19453   5.831   0.021   3.395  0.5564  0.0834 -0.4361
 6182SOL    HW119454   5.747   0.033   3.440  0.9866 -0.5216  0.5473
 6182SOL    HW219455   5.823   0.076   3.317 -1.4022 -1.2240 -1.2340
 6183SOL     OW19456   6.218   2.032   5.694  0.2394 -0.1382 -0.1227
 6183SOL    HW119457   6.280   1.985   5.638 -0.2484  0.4606 -1.2202
 6183SOL    HW219458   6.255   2.119   5.702  0.5170 -0.3419  0.8670
 6184SOL     OW19459   7.211   7.556   6.783  0.0517 -0.2950 -0.1477
 6184SOL    HW119460   7.199   7.471   6.741  0.0799 -1.1340  1.4838
 6184SOL    HW219461   7.128   7.602   6.767 -0.6616 -1.3270  0.4703
 6185SOL     OW19462   3.028   3.433   3.628  0.0355  0.0161  0.4515
 6185SOL    HW119463   3.029   3.392   3.542 -0.9753 -1.2903  1.0212
 6185SOL    HW219464   3.055   3.524   3.612  0.5331 -0.3719 -1.1197
 6186SOL     OW19465   3.412   6.343   1.202  0.2457  0.0959  0.2944
 6186SOL    HW119466   3.354   6.297   1.263 -0.0255  1.2849  0.9744
 6186SOL    HW219467   3.408   6.291   1.122 -2.1129  0.3252  0.1800
 6187SOL     OW19468   2.757   7.317   4.691 -0.2137 -0.4350 -0.1701
 6187SOL    HW119469   2.841   7.313   4.736 -0.5541 -0.4754  0.4784
 6187SOL    HW219470   2.722   7.404   4.713 -0.6862 -0.7139  0.2064
 6188SOL     OW19471   2.348   6.463   3.324 -0.3385 -0.3972 -0.2200
 6188SOL    HW119472   2.426   6.409   3.326 -0.7016 -1.0136 -1.7177
 6188SOL    HW219473   2.276   6.401   3.313 -0.9567  0.2340  0.1955
 6189SOL     OW19474   5.299   1.739   2.814 -0.4532 -0.4874 -0.2479
 6189SOL    HW119475   5.276   1.648   2.792  0.5103 -0.8693  0.2666
 6189SOL    HW219476   5.394   1.739   2.819 -0.5094  0.1087  1.5684
 6190SOL     OW19477   5.023   2.915   4.439  0.9505 -0.0235 -0.8825
 6190SOL    HW119478   4.984   2.951   4.519  0.9255 -1.0325 -0.4198
 6190SOL    HW219479   5.091   2.978   4.416  1.2909  0.0521  0.2260
 6191SOL     OW19480   4.192   5.496   6.413  0.5386 -0.2810  0.1440
 6191SOL    HW119481   4.134   5.437   6.364  0.6445 -0.3017  0.0439
 6191SOL    HW219482   4.139   5.574   6.430  0.4759 -0.3075  0.0696
 6192SOL     OW19483   5.104   4.287   2.743 -0.4418  0.4358 -0.2643
 6192SOL    HW119484   5.105   4.225   2.671  0.0584 -0.2055  0.2910
 6192SOL    HW219485   5.083   4.235   2.820  2.5558  0.4134  0.6744
 6193SOL     OW19486   6.406   6.556   5.394 -0.2474 -0.6722  0.0822
 6193SOL    HW119487   6.428   6.487   5.457 -2.0941 -1.5576 -0.1765
 6193SOL    HW219488   6.379   6.509   5.315 -1.3158  0.3229 -0.1795
 6194SOL     OW19489   5.979   3.790   4.527 -0.6721 -0.0444 -0.3338
 6194SOL    HW119490   5.976   3.797   4.432  0.5760 -0.4427 -0.4182
 6194SOL    HW219491   6.059   3.741   4.545 -0.3057  0.9763  0.9573
 6195SOL     OW19492   1.076   4.932   5.468 -0.6253 -0.2060 -0.1101
 6195SOL    HW119493   1.020   4.974   5.403  0.3913 -0.2342 -1.0093
 6195SOL    HW219494   1.145   4.890   5.418  0.1880 -0.2202  0.9885
 6196SOL     OW19495   2.696   1.746   4.642 -0.4491 -0.3910  0.3817
 6196SOL    HW119496   2.686   1.687   4.567 -1.0364 -1.0159  0.9338
 6196SOL    HW219497   2.675   1.833   4.607  0.8878 -0.4203 -0.5518
 6197SOL     OW19498   0.288   3.519   6.779  0.7338  0.6578  0.1898
 6197SOL    HW119499   0.370   3.564   6.757  1.8322 -1.8951 -1.4160
 6197SOL    HW219500   0.233   3.530   6.701 -0.1918  1.6472  0.9431
 6198SOL     OW19501   3.983   2.527   6.373  0.1006  0.0509  0.1871
 6198SOL    HW119502   4.037   2.473   6.316 -0.8731  0.4109 -1.1171
 6198SOL    HW219503   3.976   2.478   6.455  1.4818 -0.4940 -0.0012
 6199SOL     OW19504   4.154   6.882   0.013 -0.4582  0.2162 -0.3194
 6199SOL    HW119505   4.078   6.836  -0.022 -1.1246  0.3715  0.8552
 6199SOL    HW219506   4.198   6.919  -0.063 -2.3647  1.3606 -0.9410
 6200SOL     OW19507   5.926   5.372   4.811 -0.0152  0.0399  0.2509
 6200SOL    HW119508   5.876   5.434   4.759 -0.2134 -0.4232 -0.1245
 6200SOL    HW219509   6.017   5.386   4.785  0.0333  0.7785  0.8200
 6201SOL     OW19510   1.532   4.566   4.314 -0.0774  0.1520 -0.1545
 6201SOL    HW119511   1.472   4.632   4.348 -0.0089  0.0438  0.1817
 6201SOL    HW219512   1.619   4.600   4.332 -0.0334  0.2992 -0.6226
 6202SOL     OW19513   6.310   5.138   3.127 -0.8052  0.4144  0.0709
 6202SOL    HW119514   6.237   5.149   3.065 -2.3039  1.0283  1.8367
 6202SOL    HW219515   6.295   5.205   3.193  0.5045 -0.4798  1.3305
 6203SOL     OW19516   3.937   1.728   4.696  0.0792 -0.1087  0.5799
 6203SOL    HW119517   3.869   1.669   4.662  0.6407 -0.7578  0.5613
 6203SOL    HW219518   4.005   1.727   4.628  0.5945 -0.3300  1.0903
 6204SOL     OW19519   1.571   0.069   1.361  0.4660  0.3756 -0.2777
 6204SOL    HW119520   1.621   0.038   1.286 -0.2651 -0.1880 -0.5525
 6204SOL    HW219521   1.594   0.009   1.432 -0.6024 -0.5699 -0.6895
 6205SOL     OW19522   0.374   6.399   3.449  0.2238 -0.0886  0.1862
 6205SOL    HW119523   0.438   6.435   3.510 -0.8662 -0.1689  1.3963
 6205SOL    HW219524   0.389   6.447   3.368 -0.7138  2.6425  1.5284
 6206SOL     OW19525   7.236   5.793   6.646 -0.6763  0.0633  0.7977
 6206SOL    HW119526   7.171   5.743   6.596  0.1624  0.1031 -0.3645
 6206SOL    HW219527   7.313   5.797   6.588 -0.1836  1.3484  1.5175
 6207SOL     OW19528   0.394   0.334   5.942  0.0199  0.1894  0.7848
 6207SOL    HW119529   0.345   0.269   5.993 -1.7417  0.2372 -0.7244
 6207SOL    HW219530   0.406   0.408   6.003 -0.1004 -0.5858  1.7745
 6208SOL     OW19531   5.599   4.117   2.799  0.4064 -0.5073  0.2569
 6208SOL    HW119532   5.589   4.212   2.795  0.2140 -0.5334  0.0856
 6208SOL    HW219533   5.664   4.102   2.868 -0.1327 -0.2895  0.8206
 6209SOL     OW19534   1.724   5.280   4.269 -0.3463  0.2486 -0.0349
 6209SOL    HW119535   1.658   5.345   4.242 -0.6440  0.5793  1.4031
 6209SOL    HW219536   1.677   5.197   4.269 -0.5138  0.3442  0.1145
 6210SOL     OW19537   1.890   3.559   1.241  0.2105  0.1535  0.2678
 6210SOL    HW119538   1.828   3.622   1.275  1.6684  2.3950 -0.9200
 6210SOL    HW219539   1.871   3.555   1.147  1.6523  0.7533 -0.0901
 6211SOL     OW19540   7.472   6.941   4.795 -0.0045  0.5975  0.5056
 6211SOL    HW119541   7.503   6.851   4.808 -1.7101 -0.0365  0.3302
 6211SOL    HW219542   7.457   6.948   4.701 -0.7676  0.7668  0.6391
 6212SOL     OW19543   7.694   4.031   5.029  0.1313 -0.3677 -0.4628
 6212SOL    HW119544   7.672   3.970   4.959 -0.6032 -1.4511  0.6625
 6212SOL    HW219545   7.784   4.009   5.054  0.1629 -0.4191 -0.6266
 6213SOL     OW19546   2.244   4.641   4.489 -0.0906  0.1592 -0.8258
 6213SOL    HW119547   2.256   4.685   4.405 -1.5712  1.6833 -0.2916
 6213SOL    HW219548   2.200   4.559   4.467  2.9226 -1.3114 -1.8619
 6214SOL     OW19549   5.288   2.333   1.028 -0.3773  0.0227 -0.9957
 6214SOL    HW119550   5.303   2.408   1.086 -0.4644  0.0410 -0.9971
 6214SOL    HW219551   5.311   2.257   1.082  1.2949  0.1227 -1.5004
 6215SOL     OW19552   4.997   4.570   0.240  0.1226  0.4529  0.0513
 6215SOL    HW119553   5.077   4.540   0.284  0.8453  0.9032 -0.9192
 6215SOL    HW219554   4.976   4.653   0.283 -0.0665  0.1317  0.5888
 6216SOL     OW19555   6.275   1.423   5.377 -0.2361 -0.2359  0.5346
 6216SOL    HW119556   6.290   1.340   5.333  1.7642  1.1763 -1.6455
 6216SOL    HW219557   6.240   1.481   5.309  1.6314  1.6372  1.0731
 6217SOL     OW19558   2.685   5.172   2.956 -0.4050  0.0299  0.0287
 6217SOL    HW119559   2.669   5.242   2.892  1.0556 -0.5251 -0.9900
 6217SOL    HW219560   2.666   5.091   2.909 -0.2815 -0.3459  0.6123
 6218SOL     OW19561   1.409   0.945   5.289  0.0445 -0.6626 -0.8853
 6218SOL    HW119562   1.459   1.000   5.350 -2.4544  0.2627  0.5428
 6218SOL    HW219563   1.450   0.859   5.293  1.1387 -0.1073  0.6621
 6219SOL     OW19564   2.585   1.017   7.435 -0.0426 -0.0734 -0.5187
 6219SOL    HW119565   2.602   0.930   7.472 -2.3820 -0.8037 -1.0150
 6219SOL    HW219566   2.630   1.016   7.351 -1.3053 -1.4451 -1.2339
 6220SOL     OW19567   1.412   1.688   1.949  0.0507  0.2639 -0.5199
 6220SOL    HW119568   1.358   1.612   1.927 -0.0805  0.2035  0.0057
 6220SOL    HW219569   1.400   1.700   2.043 -0.8322  1.6297 -0.7768
 6221SOL     OW19570   7.206   1.710   0.817 -0.4558  0.0148  0.2743
 6221SOL    HW119571   7.217   1.617   0.794 -1.2375 -0.0836  0.2843
 6221SOL    HW219572   7.222   1.713   0.912 -0.7565 -0.1624  0.3305
 6222SOL     OW19573   5.382   6.102   7.433 -0.3383 -0.4005 -0.2233
 6222SOL    HW119574   5.424   6.043   7.371 -1.4066  0.7835 -2.1604
 6222SOL    HW219575   5.411   6.189   7.408 -1.7807  0.2107  0.1245
 6223SOL     OW19576   4.168   5.298   0.586 -0.6401 -0.2982 -0.0297
 6223SOL    HW119577   4.228   5.250   0.643 -1.1368 -1.3065 -0.3455
 6223SOL    HW219578   4.224   5.363   0.543  0.3510 -1.5192 -0.6691
 6224SOL     OW19579   2.749   5.024   0.256 -0.3641  0.7267  0.2838
 6224SOL    HW119580   2.702   5.006   0.175  1.0018  1.6262 -0.7432
 6224SOL    HW219581   2.687   5.074   0.309 -0.9676  0.8960 -0.5685
 6225SOL     OW19582   5.111   3.378   3.924  0.3075 -0.0580  0.1235
 6225SOL    HW119583   5.138   3.316   3.992 -0.1745 -0.0432  0.3331
 6225SOL    HW219584   5.017   3.391   3.939  0.1242 -0.3001 -0.7397
 6226SOL     OW19585   4.760   2.030   1.087 -0.0026 -0.0802  0.7206
 6226SOL    HW119586   4.676   1.994   1.060  0.3232 -0.4875  0.2233
 6226SOL    HW219587   4.802   2.057   1.005  1.3051 -1.9980  0.6741
 6227SOL     OW19588   5.828   3.911   0.456  0.3881 -0.2212 -0.3735
 6227SOL    HW119589   5.859   3.939   0.370 -1.1315  1.8115 -0.3339
 6227SOL    HW219590   5.747   3.864   0.438 -1.7679  3.0262 -0.0094
 6228SOL     OW19591   4.200   3.440   6.669 -0.3252 -1.4039  0.0247
 6228SOL    HW119592   4.191   3.439   6.573  2.5153 -0.7185 -0.3607
 6228SOL    HW219593   4.183   3.350   6.696  0.2060 -1.9308 -1.3163
 6229SOL     OW19594   1.644   3.170   4.825 -0.1526  0.2768 -0.4190
 6229SOL    HW119595   1.699   3.243   4.798  0.2585  0.1381  0.0259
 6229SOL    HW219596   1.555   3.205   4.823  0.1081  1.0195  0.5397
 6230SOL     OW19597   4.581   3.112   4.770  0.2164 -0.3098  0.1773
 6230SOL    HW119598   4.499   3.079   4.733 -0.7994  1.7316  0.4509
 6230SOL    HW219599   4.619   3.037   4.814 -0.8886 -1.6216 -1.0114
 6231SOL     OW19600   0.731   2.020   6.385 -0.4923 -0.4851 -0.3785
 6231SOL    HW119601   0.635   2.027   6.382 -0.3802  1.3766 -0.5341
 6231SOL    HW219602   0.753   2.031   6.477 -0.3583  0.7462 -0.5350
 6232SOL     OW19603   4.211   0.739   4.924 -0.1994 -0.1901 -0.4145
 6232SOL    HW119604   4.193   0.652   4.887 -0.2799 -0.8569  1.0892
 6232SOL    HW219605   4.129   0.787   4.914 -0.7354 -0.9182  0.3393
 6233SOL     OW19606   7.522   0.288   5.038 -0.0443 -0.1039 -0.4911
 6233SOL    HW119607   7.558   0.261   5.123 -0.6577 -0.3763 -0.3162
 6233SOL    HW219608   7.428   0.293   5.052 -0.0980  0.4347 -0.9987
 6234SOL     OW19609   0.420   5.441   6.316  0.5681  0.2497  0.3653
 6234SOL    HW119610   0.453   5.515   6.367 -1.6004 -0.5753  3.2136
 6234SOL    HW219611   0.373   5.482   6.243  0.2813  1.6837  1.3063
 6235SOL     OW19612   1.568   0.532   7.627  0.6959  0.3833  0.2430
 6235SOL    HW119613   1.577   0.458   7.567  0.4757  0.0644  0.5991
 6235SOL    HW219614   1.644   0.587   7.609  0.2977  0.6126 -0.7746
 6236SOL     OW19615   6.203   4.894   1.209  0.0264 -0.4344  0.2600
 6236SOL    HW119616   6.294   4.878   1.187 -0.5048 -3.3078 -0.2659
 6236SOL    HW219617   6.205   4.926   1.299  1.5802  0.2245  0.0097
 6237SOL     OW19618   7.488   4.013   0.561  0.0099 -0.5822  0.8032
 6237SOL    HW119619   7.517   4.104   0.552 -1.0140 -0.3312 -0.1118
 6237SOL    HW219620   7.508   3.973   0.476 -2.3184 -0.3748  0.0976
 6238SOL     OW19621   2.718   2.501   5.763 -0.0186 -0.0433 -0.0871
 6238SOL    HW119622   2.642   2.553   5.736 -1.1415 -2.1036 -1.1219
 6238SOL    HW219623   2.774   2.563   5.810 -1.6628  1.8733 -0.5233
 6239SOL     OW19624   4.591   0.760   4.248  0.1968 -0.6819  0.4873
 6239SOL    HW119625   4.568   0.734   4.337  2.1519  0.7219  1.4938
 6239SOL    HW219626   4.637   0.844   4.259  0.5957 -0.5298 -1.8313
 6240SOL     OW19627   0.066   7.204   2.416 -0.1448 -0.7759 -0.2189
 6240SOL    HW119628   0.076   7.294   2.386 -2.0344 -0.1281  0.8986
 6240SOL    HW219629   0.148   7.161   2.392  0.8947  1.2910 -0.5863
 6241SOL     OW19630   0.398   3.280   2.120  0.1777  0.7345 -0.1203
 6241SOL    HW119631   0.354   3.222   2.182 -0.8865  2.6502  1.0030
 6241SOL    HW219632   0.482   3.301   2.163 -0.4538  1.8634  0.6167
 6242SOL     OW19633   4.603   5.879   5.099  0.1410 -0.2487  0.5495
 6242SOL    HW119634   4.523   5.854   5.052 -0.5347  0.0160  1.5404
 6242SOL    HW219635   4.603   5.825   5.178  0.9868 -0.2954  0.5277
 6243SOL     OW19636   3.338   2.709   4.475  0.2975 -0.3769  0.2919
 6243SOL    HW119637   3.399   2.737   4.543 -1.4183  0.3263  1.6159
 6243SOL    HW219638   3.267   2.667   4.523 -1.4230  0.9596 -0.9557
 6244SOL     OW19639   7.680   1.325   3.272 -0.1688 -0.4075 -0.3242
 6244SOL    HW119640   7.621   1.320   3.347  0.9387  0.6640  0.6765
 6244SOL    HW219641   7.765   1.296   3.307  0.5053  0.6762 -0.9929
 6245SOL     OW19642   6.551   5.039   3.099 -0.5936 -0.3093 -0.0067
 6245SOL    HW119643   6.465   5.081   3.109 -0.7120 -0.4204 -0.5409
 6245SOL    HW219644   6.602   5.072   3.173 -1.1095 -0.2784  0.3407
 6246SOL     OW19645   0.089   5.900   2.837 -0.5770 -0.3996 -0.0187
 6246SOL    HW119646   0.163   5.940   2.792 -0.4626 -0.8165 -0.2057
 6246SOL    HW219647   0.111   5.907   2.930 -0.6733  0.1860 -0.0349
 6247SOL     OW19648   6.727   2.226   2.146  0.4249 -0.6907  0.2064
 6247SOL    HW119649   6.691   2.218   2.057  0.9003  0.0221 -0.0632
 6247SOL    HW219650   6.686   2.306   2.180  1.2851 -0.1995  0.1138
 6248SOL     OW19651   1.917   0.037   2.730  0.0290 -0.4505  0.0346
 6248SOL    HW119652   1.838   0.088   2.710  0.7186  1.5249  2.0196
 6248SOL    HW219653   1.885  -0.054   2.735 -1.5927 -0.0475 -1.7667
 6249SOL     OW19654   1.113   1.044   5.993 -0.1323  0.1178 -0.3669
 6249SOL    HW119655   1.153   1.063   5.907  0.5041  0.0044 -0.1037
 6249SOL    HW219656   1.075   0.956   5.982 -0.6868  0.3978 -0.7485
 6250SOL     OW19657   0.998   2.936   2.692 -0.2537 -0.4679 -0.6389
 6250SOL    HW119658   1.064   2.892   2.638 -1.9526 -2.6251 -1.0816
 6250SOL    HW219659   1.003   2.892   2.777  1.1554  1.7023  0.5201
 6251SOL     OW19660   0.982   4.901   0.423  1.0150 -0.5086 -0.0851
 6251SOL    HW119661   0.954   4.890   0.333 -1.0839  0.9336  0.3172
 6251SOL    HW219662   0.906   4.877   0.476  1.7815 -0.1351  1.2545
 6252SOL     OW19663   6.336   0.389   2.916 -0.4078  0.3916 -0.1024
 6252SOL    HW119664   6.362   0.481   2.919  0.5847  0.1167  0.2849
 6252SOL    HW219665   6.345   0.364   2.824 -1.0440  0.7778 -0.2709
 6253SOL     OW19666   0.152   4.779   1.375  0.6094  0.2215  0.3155
 6253SOL    HW119667   0.237   4.801   1.412  1.0712  0.8771 -1.0516
 6253SOL    HW219668   0.114   4.717   1.437  1.9834  0.0861  1.0650
 6254SOL     OW19669   2.098   3.367   3.370 -0.7614  0.0322  1.2627
 6254SOL    HW119670   2.124   3.422   3.444  1.5006 -0.3398  0.8110
 6254SOL    HW219671   2.143   3.284   3.384  0.4142  0.2096 -0.8879
 6255SOL     OW19672   6.231   7.656   3.885 -0.1939  0.6040 -0.2447
 6255SOL    HW119673   6.180   7.582   3.854  0.5601  1.0371 -2.7242
 6255SOL    HW219674   6.183   7.733   3.854  1.3753  1.0295 -1.7679
 6256SOL     OW19675   5.357   3.330   7.172  0.2655 -0.0929  0.4793
 6256SOL    HW119676   5.265   3.346   7.191  0.4577  0.0216  1.3484
 6256SOL    HW219677   5.356   3.261   7.105 -0.4145 -1.9344  2.2866
 6257SOL     OW19678   7.734   7.611   4.008 -0.0769  0.2149 -0.3268
 6257SOL    HW119679   7.767   7.594   4.096  0.5120  0.6910 -0.4455
 6257SOL    HW219680   7.657   7.666   4.021 -0.1634  0.0418 -0.0979
 6258SOL     OW19681   1.424   7.358   0.683  0.0822 -0.4654  0.1961
 6258SOL    HW119682   1.428   7.450   0.656 -2.2794 -0.5329 -0.6409
 6258SOL    HW219683   1.513   7.325   0.668 -0.0775  0.4459 -4.3298
 6259SOL     OW19684   5.215   6.111   3.916 -0.1559 -0.0183 -0.1013
 6259SOL    HW119685   5.285   6.130   3.854  0.7841 -1.5883  0.4278
 6259SOL    HW219686   5.204   6.016   3.913 -1.7043  0.1096  0.4369
 6260SOL     OW19687   7.030   2.514   6.915  0.0601 -0.0153 -0.3310
 6260SOL    HW119688   7.022   2.603   6.880 -0.2733 -0.4153 -1.3142
 6260SOL    HW219689   6.965   2.464   6.866 -0.4575 -0.6018  0.9156
 6261SOL     OW19690   4.852   2.198   4.062  0.1980 -0.5274  1.0420
 6261SOL    HW119691   4.766   2.164   4.084 -0.5145  0.1451 -0.4988
 6261SOL    HW219692   4.910   2.122   4.065 -1.2365 -1.8818 -1.7827
 6262SOL     OW19693   7.267   2.956   3.822  0.3489  0.3457 -0.6708
 6262SOL    HW119694   7.335   2.967   3.754  1.4575  0.6127  0.4461
 6262SOL    HW219695   7.211   2.887   3.787  1.8499 -0.7100 -1.1506
 6263SOL     OW19696   6.379   3.381   2.375 -0.4702 -0.1700  0.7129
 6263SOL    HW119697   6.421   3.389   2.289  1.1742 -0.1214  1.4749
 6263SOL    HW219698   6.317   3.454   2.378  0.4480  0.6658  0.0937
 6264SOL     OW19699   0.051   1.100   6.004 -0.3078 -0.2352  0.0326
 6264SOL    HW119700   0.012   1.151   5.933  0.1468 -0.8301 -0.6522
 6264SOL    HW219701  -0.016   1.102   6.073  0.1372  2.2540  0.5171
 6265SOL     OW19702   7.616   2.802   3.091 -0.7970  0.1020 -0.6451
 6265SOL    HW119703   7.662   2.876   3.131 -0.7981  0.9593 -2.1852
 6265SOL    HW219704   7.534   2.839   3.059 -1.3991 -0.8674 -0.2573
 6266SOL     OW19705   5.859   0.083   7.508 -0.4317 -0.1229 -0.5688
 6266SOL    HW119706   5.928   0.019   7.523 -0.2894 -0.0015 -0.7112
 6266SOL    HW219707   5.782   0.031   7.485 -0.8981 -0.3937  1.4106
 6267SOL     OW19708   0.183   0.827   6.749 -0.6287  0.4250 -0.1497
 6267SOL    HW119709   0.271   0.862   6.733 -0.2942 -0.6268 -0.6594
 6267SOL    HW219710   0.155   0.870   6.830 -0.0767  1.5617 -0.5327
 6268SOL     OW19711   0.837   6.752   3.135  0.0884 -0.6422  0.0928
 6268SOL    HW119712   0.901   6.682   3.145 -0.9125 -1.4978  0.8358
 6268SOL    HW219713   0.816   6.778   3.225  0.7962  0.9732 -0.1710
 6269SOL     OW19714   6.813   4.364   5.581  0.0168  0.2842  0.3637
 6269SOL    HW119715   6.808   4.454   5.549  0.3310  0.3792  0.5768
 6269SOL    HW219716   6.871   4.368   5.657 -0.8311  0.0768  1.0362
 6270SOL     OW19717   6.412   4.099   0.990  0.4183  0.2724 -0.1430
 6270SOL    HW119718   6.414   4.186   0.950 -0.4960  0.9124  1.1447
 6270SOL    HW219719   6.328   4.095   1.035  0.6124 -1.1435  0.1358
 6271SOL     OW19720   6.057   0.743   1.387  0.8125 -0.2787 -0.2339
 6271SOL    HW119721   6.003   0.700   1.321 -1.3011 -0.7338  1.6455
 6271SOL    HW219722   5.994   0.776   1.452  2.6387  1.8829  0.5858
 6272SOL     OW19723   5.336   6.244   7.120  0.0755  0.0256  0.2494
 6272SOL    HW119724   5.429   6.259   7.104  0.3529 -1.9824 -0.3703
 6272SOL    HW219725   5.293   6.274   7.040  0.0971  1.4514  0.7447
 6273SOL     OW19726   1.794   4.397   2.373 -0.0915 -0.7516 -0.3221
 6273SOL    HW119727   1.844   4.359   2.300  1.0825  0.6070 -0.2674
 6273SOL    HW219728   1.831   4.484   2.384 -1.3255 -0.3549  0.8956
 6274SOL     OW19729   3.012   6.113   2.368 -0.5919 -0.2061 -0.2446
 6274SOL    HW119730   3.071   6.139   2.297  1.2502 -0.3653  1.1530
 6274SOL    HW219731   3.010   6.018   2.363 -2.4571 -0.1785 -1.5380
 6275SOL     OW19732   6.857   1.382   1.368 -0.4944  0.1693  0.3491
 6275SOL    HW119733   6.830   1.301   1.325  0.2848  1.6136 -3.1720
 6275SOL    HW219734   6.801   1.450   1.331  1.2131  1.7493  0.4761
 6276SOL     OW19735   7.427   0.304   6.211  0.0575 -0.2986 -0.0568
 6276SOL    HW119736   7.432   0.208   6.212  0.4097 -0.2938 -0.7262
 6276SOL    HW219737   7.481   0.330   6.136 -2.5798  0.2656 -1.8781
 6277SOL     OW19738   3.160   2.157   6.577 -0.3122 -0.2339 -0.4249
 6277SOL    HW119739   3.104   2.080   6.584 -0.8854  0.2694  1.2127
 6277SOL    HW219740   3.121   2.209   6.506 -0.8175 -0.7587 -0.5400
 6278SOL     OW19741   2.849   6.254   2.554  1.0512  0.5286 -0.1188
 6278SOL    HW119742   2.905   6.188   2.514 -0.6360 -0.7541 -0.4952
 6278SOL    HW219743   2.878   6.258   2.645  0.0465 -2.1285  0.3990
 6279SOL     OW19744   0.016   4.926   1.700  0.4305 -0.4684  0.0604
 6279SOL    HW119745  -0.041   4.850   1.704 -0.7037  0.3743  0.5557
 6279SOL    HW219746  -0.032   4.990   1.648  0.6782  0.4451  0.9080
 6280SOL     OW19747   0.764   1.938   2.683 -0.6858 -0.0245 -0.6117
 6280SOL    HW119748   0.734   1.963   2.595 -0.7857  1.6871 -0.1191
 6280SOL    HW219749   0.813   2.014   2.714 -0.0160 -0.8915  0.5468
 6281SOL     OW19750   4.734   1.437   3.102 -0.1845 -0.3654 -0.4512
 6281SOL    HW119751   4.743   1.532   3.106 -2.3358 -0.1610  0.7207
 6281SOL    HW219752   4.685   1.421   3.021  1.6470 -0.6692 -1.5604
 6282SOL     OW19753   0.570   4.680   1.625  0.0924  0.0505 -0.5674
 6282SOL    HW119754   0.501   4.736   1.591 -1.2956 -0.6716  0.9062
 6282SOL    HW219755   0.526   4.598   1.646  0.6533  0.4982  3.1232
 6283SOL     OW19756   1.150   2.205   4.338  0.0922 -0.3191  0.2150
 6283SOL    HW119757   1.059   2.193   4.367 -1.1732  0.3104 -2.9715
 6283SOL    HW219758   1.177   2.119   4.308  0.7998 -0.6243  1.6638
 6284SOL     OW19759   7.233   0.298   0.978 -0.0108 -0.1404 -0.0168
 6284SOL    HW119760   7.313   0.283   1.028 -0.5973  0.2325  1.0624
 6284SOL    HW219761   7.185   0.363   1.029 -1.7539 -1.5621  0.2355
 6285SOL     OW19762   1.728   6.831   5.505  0.3335 -0.0017  0.3027
 6285SOL    HW119763   1.824   6.838   5.504  0.4167 -0.9938  0.3984
 6285SOL    HW219764   1.708   6.772   5.432  0.0267 -2.0694  1.9538
 6286SOL     OW19765   2.951   4.731   6.853 -0.1848  0.1355  0.1274
 6286SOL    HW119766   2.864   4.743   6.891  0.4478 -0.3623  1.8145
 6286SOL    HW219767   2.958   4.637   6.838  0.2753  0.0981  0.5591
 6287SOL     OW19768   2.518   6.618   7.024 -0.4852  0.8053  0.3520
 6287SOL    HW119769   2.507   6.713   7.021  0.7953  0.9775  0.3288
 6287SOL    HW219770   2.444   6.586   7.075 -2.3431  1.5321 -1.7302
 6288SOL     OW19771   5.362   5.789   3.011  0.2894  0.5392  0.1659
 6288SOL    HW119772   5.319   5.732   3.075 -0.0794 -1.9427 -2.0781
 6288SOL    HW219773   5.293   5.809   2.947  0.9702  1.8051 -0.2044
 6289SOL     OW19774   1.810   2.248   7.184 -0.6949 -0.6484 -0.2614
 6289SOL    HW119775   1.885   2.290   7.226 -0.5461 -1.0220 -0.1503
 6289SOL    HW219776   1.835   2.243   7.091 -1.7896  1.8865 -0.7814
 6290SOL     OW19777   2.796   3.286   1.185 -0.3834  0.1964  0.2828
 6290SOL    HW119778   2.724   3.304   1.125 -0.4620 -0.7064  0.0909
 6290SOL    HW219779   2.875   3.291   1.130 -0.2612  1.4138  0.5391
 6291SOL     OW19780   2.786   6.717   2.563  0.0768 -0.1358 -0.2116
 6291SOL    HW119781   2.811   6.808   2.574  0.2039 -0.1284 -0.5467
 6291SOL    HW219782   2.731   6.716   2.484 -0.0053 -0.3338 -0.1551
 6292SOL     OW19783   5.484   3.180   5.857 -0.4053 -0.1519 -0.5541
 6292SOL    HW119784   5.561   3.128   5.880  0.2327  1.1822  0.3923
 6292SOL    HW219785   5.453   3.216   5.939 -0.4043  1.5578 -1.2698
 6293SOL     OW19786   4.472   2.943   2.548 -0.3271 -0.0751  0.3025
 6293SOL    HW119787   4.448   2.868   2.603 -1.4828  0.2099  0.2142
 6293SOL    HW219788   4.392   2.964   2.500  0.0920  0.9852  0.0456
 6294SOL     OW19789   5.525   5.326   2.090 -0.0334  0.3618  0.1392
 6294SOL    HW119790   5.575   5.245   2.103  0.2436  0.5809  0.4596
 6294SOL    HW219791   5.492   5.319   2.000  1.1017  0.4927 -0.3135
 6295SOL     OW19792   7.176   5.458   4.988  0.3178 -0.3330  0.1418
 6295SOL    HW119793   7.144   5.534   4.939  0.2148 -0.6204 -0.2343
 6295SOL    HW219794   7.271   5.471   4.992  0.2107  0.3310  0.9478
 6296SOL     OW19795   4.417   3.283   3.636  0.2922 -0.2990 -0.0868
 6296SOL    HW119796   4.490   3.331   3.596 -0.4042 -0.1422 -1.2256
 6296SOL    HW219797   4.342   3.303   3.580 -0.5843 -0.6157  0.9533
 6297SOL     OW19798   4.974   7.317   5.023 -0.2248 -0.4132  0.3311
 6297SOL    HW119799   4.985   7.412   5.017 -0.6676 -0.4110 -0.4569
 6297SOL    HW219800   4.964   7.301   5.117  2.6489 -0.0091  0.7856
 6298SOL     OW19801   0.269   1.328   1.316  0.6215  0.3673 -0.0048
 6298SOL    HW119802   0.197   1.374   1.273  1.2322 -0.1453 -1.6201
 6298SOL    HW219803   0.346   1.382   1.299  0.8922  0.1130  0.3846
 6299SOL     OW19804   7.423   7.026   3.492  0.0875 -0.8146 -0.5312
 6299SOL    HW119805   7.485   7.074   3.436 -0.0278 -1.7841 -1.5167
 6299SOL    HW219806   7.469   6.946   3.516  0.4063 -0.0963  1.4026
 6300SOL     OW19807   1.491   2.198   7.071  0.0440  0.4583 -0.0831
 6300SOL    HW119808   1.543   2.275   7.048 -0.5508  0.9175  0.0828
 6300SOL    HW219809   1.403   2.232   7.085 -0.4183 -0.3903 -0.8604
 6301SOL     OW19810   7.487   3.137   6.742  0.2903  0.4408 -0.3104
 6301SOL    HW119811   7.467   3.173   6.828  2.4565  0.9848  0.0211
 6301SOL    HW219812   7.472   3.043   6.750  1.0333  0.4119  0.8392
 6302SOL     OW19813   1.643   6.969   2.052 -0.3342  0.0863  0.1948
 6302SOL    HW119814   1.631   6.934   1.964  0.1938  3.1347 -1.2091
 6302SOL    HW219815   1.557   7.003   2.077 -0.5738 -1.0832  1.0821
 6303SOL     OW19816   6.921   0.593   4.138 -0.3186  0.0511  0.1674
 6303SOL    HW119817   6.908   0.629   4.050 -2.0257 -0.2218  0.2604
 6303SOL    HW219818   6.833   0.563   4.164  0.4871 -1.5242  1.2350
 6304SOL     OW19819   6.051   4.998   4.064 -0.2565  0.0911 -0.1241
 6304SOL    HW119820   6.129   4.996   4.120  0.4727 -2.1259 -1.0963
 6304SOL    HW219821   5.981   4.965   4.120  0.0783 -0.4150  0.0001
 6305SOL     OW19822   7.265   2.650   1.438 -0.3195 -0.1777  0.5102
 6305SOL    HW119823   7.339   2.677   1.383 -0.7022  1.0162  0.5414
 6305SOL    HW219824   7.217   2.731   1.454 -0.3506 -0.5296  2.4262
 6306SOL     OW19825   1.304   1.175   7.001 -0.3655  0.0814  0.5389
 6306SOL    HW119826   1.305   1.147   6.910 -0.5481 -3.4634  1.4809
 6306SOL    HW219827   1.230   1.236   7.007 -0.2024  0.5584 -1.7019
 6307SOL     OW19828   1.612   2.788   5.153 -0.4637  0.0366 -0.1126
 6307SOL    HW119829   1.604   2.725   5.082 -3.3271 -0.7957  0.8351
 6307SOL    HW219830   1.583   2.871   5.115  1.6556  0.4877 -0.8793
 6308SOL     OW19831   4.183   4.870   5.684  0.8407 -0.5652  0.9084
 6308SOL    HW119832   4.262   4.856   5.632  0.0363 -0.7796 -0.2909
 6308SOL    HW219833   4.201   4.825   5.767  0.9506 -3.0423 -0.3559
 6309SOL     OW19834   4.545   4.704   6.515 -0.0080 -0.0043 -0.1703
 6309SOL    HW119835   4.463   4.687   6.470 -0.7213 -2.5618  1.8950
 6309SOL    HW219836   4.609   4.648   6.471 -0.2209 -0.8328  0.5531
 6310SOL     OW19837   5.381   4.842   4.203  0.0583 -0.3943 -0.4696
 6310SOL    HW119838   5.468   4.803   4.215  1.2076  1.6689 -1.5272
 6310SOL    HW219839   5.329   4.808   4.275  1.4652 -2.4001 -0.3042
 6311SOL     OW19840   7.451   2.033   5.510 -0.3429 -0.1951  0.3944
 6311SOL    HW119841   7.452   1.940   5.533 -1.8173 -0.2993  0.1130
 6311SOL    HW219842   7.504   2.039   5.431 -0.3130 -0.7999  0.3664
 6312SOL     OW19843   6.819   6.395   0.803  0.2823  0.0834 -0.2422
 6312SOL    HW119844   6.830   6.408   0.897  0.5634 -1.2012 -0.0728
 6312SOL    HW219845   6.853   6.307   0.787  0.3281  0.3170 -1.5676
 6313SOL     OW19846   4.514   5.916   2.453  0.0446  0.3518  0.2962
 6313SOL    HW119847   4.488   5.833   2.412  1.2748  0.3752 -0.5673
 6313SOL    HW219848   4.454   5.925   2.527 -1.6667 -0.1186 -0.9775
 6314SOL     OW19849   3.518   7.528   6.875  0.1268  0.1975 -0.0956
 6314SOL    HW119850   3.488   7.491   6.792 -0.5458 -0.0566  0.2554
 6314SOL    HW219851   3.613   7.520   6.872  0.1066  0.2099 -0.8512
 6315SOL     OW19852   0.025   6.902   0.478  0.2846 -0.7174 -0.9347
 6315SOL    HW119853  -0.050   6.945   0.436 -0.7210 -1.0087  0.4967
 6315SOL    HW219854   0.101   6.954   0.450 -0.9259  2.7560  1.4888
 6316SOL     OW19855   6.975   1.513   0.566  0.1795 -0.0171 -0.0050
 6316SOL    HW119856   6.899   1.571   0.565  0.6126  0.5610 -0.0610
 6316SOL    HW219857   7.027   1.540   0.490  0.1739 -0.7761 -0.2876
 6317SOL     OW19858   3.194   7.529   4.358  0.2879  0.1141 -0.0906
 6317SOL    HW119859   3.132   7.488   4.419  1.0118 -0.3681  0.3355
 6317SOL    HW219860   3.259   7.461   4.340 -0.2166  0.0573 -1.8687
 6318SOL     OW19861   1.366   2.392   6.522  0.0130 -0.3062  0.5073
 6318SOL    HW119862   1.447   2.389   6.573 -0.3836 -0.1168  1.1665
 6318SOL    HW219863   1.323   2.308   6.540 -0.1177 -0.2485  0.4632
 6319SOL     OW19864   6.273   7.700   4.716  0.9843  0.1890  0.3046
 6319SOL    HW119865   6.284   7.795   4.713 -0.3861  0.3277 -1.3451
 6319SOL    HW219866   6.184   7.686   4.749  0.4527 -0.4351 -1.3050
 6320SOL     OW19867   0.438   7.656   0.085  0.0316 -0.6661  0.4533
 6320SOL    HW119868   0.401   7.651   0.173  0.3182 -0.2808  0.5973
 6320SOL    HW219869   0.385   7.722   0.040 -0.4834 -1.2685  0.1488
 6321SOL     OW19870   0.072   6.941   5.714 -0.0558  0.2784 -0.5484
 6321SOL    HW119871   0.012   7.011   5.687 -0.2741  0.4587  0.3853
 6321SOL    HW219872   0.035   6.862   5.676 -0.1860  0.5704 -1.0423
 6322SOL     OW19873   1.492   4.964   7.410 -0.5348  0.4102  0.5343
 6322SOL    HW119874   1.461   4.982   7.499 -1.7808  0.0621  0.1900
 6322SOL    HW219875   1.413   4.963   7.357  0.0685 -0.5912 -0.3827
 6323SOL     OW19876   3.730   5.575   4.729 -0.6399  0.5032 -1.0948
 6323SOL    HW119877   3.765   5.589   4.641  1.0794  2.8857 -0.1382
 6323SOL    HW219878   3.747   5.482   4.747 -1.4005 -0.1526 -3.3575
 6324SOL     OW19879   6.356   2.284   5.680 -0.1473  0.3960 -0.1520
 6324SOL    HW119880   6.379   2.298   5.772  0.7218 -0.7511 -0.1680
 6324SOL    HW219881   6.398   2.356   5.633 -1.0887  1.3265  0.3892
 6325SOL     OW19882   5.366   2.079   0.488  0.0027  0.3223 -0.4284
 6325SOL    HW119883   5.294   2.138   0.513  0.1969  0.1251  0.6613
 6325SOL    HW219884   5.440   2.107   0.542  0.0993 -0.9170  0.1239
 6326SOL     OW19885   6.708   3.263   3.560  0.2115 -0.2453 -0.2106
 6326SOL    HW119886   6.713   3.170   3.582  1.4471 -0.5303 -1.5591
 6326SOL    HW219887   6.618   3.276   3.530 -0.5008 -0.5809  1.5970
 6327SOL     OW19888   1.690   7.052   3.265 -0.2994  0.4428  0.1336
 6327SOL    HW119889   1.608   7.074   3.220  0.8759  1.8058 -1.4473
 6327SOL    HW219890   1.754   7.112   3.228  1.5442 -0.9168  0.9955
 6328SOL     OW19891   5.528   4.859   5.914 -0.4435  0.0036  0.0746
 6328SOL    HW119892   5.502   4.854   6.006  0.0829 -0.1289  0.2202
 6328SOL    HW219893   5.508   4.772   5.879 -1.2019  0.2317 -0.0990
 6329SOL     OW19894   6.179   6.727   1.224 -0.0970 -0.3877  0.1061
 6329SOL    HW119895   6.112   6.788   1.256  1.7186  1.6247  0.3376
 6329SOL    HW219896   6.171   6.732   1.129  0.3477  0.6402  0.1070
 6330SOL     OW19897   0.009   3.644   7.566  0.1633  0.2519  0.1676
 6330SOL    HW119898   0.080   3.706   7.577 -0.4535  1.1217 -0.6353
 6330SOL    HW219899   0.009   3.623   7.473 -1.0100  0.7365  0.0412
 6331SOL     OW19900   2.965   4.297   1.173  0.0040  0.1550  0.1265
 6331SOL    HW119901   3.050   4.290   1.216 -0.1126 -1.4199  0.1738
 6331SOL    HW219902   2.980   4.354   1.098  1.1397 -0.2331  0.0492
 6332SOL     OW19903   5.407   1.277   3.967  0.1273  0.0019 -0.3467
 6332SOL    HW119904   5.332   1.278   4.026 -0.1676  0.0921 -0.7222
 6332SOL    HW219905   5.411   1.187   3.934 -0.8578  0.4028 -1.6419
 6333SOL     OW19906   0.674   4.431   3.208  0.0268 -0.1897  0.4725
 6333SOL    HW119907   0.586   4.469   3.200 -0.0968 -0.2516  1.3890
 6333SOL    HW219908   0.706   4.463   3.293 -0.0672 -2.0786  1.2645
 6334SOL     OW19909   2.322   0.483   1.543  0.0310  0.1614 -0.0906
 6334SOL    HW119910   2.410   0.477   1.507  0.5738 -0.0749  1.2204
 6334SOL    HW219911   2.329   0.547   1.614 -1.0629  0.8133 -0.5428
 6335SOL     OW19912   0.626   1.201   3.933  0.0667 -0.4936  0.9908
 6335SOL    HW119913   0.537   1.212   3.967 -0.1935 -0.4311  0.2996
 6335SOL    HW219914   0.641   1.106   3.936  0.0678 -0.4845  1.3244
 6336SOL     OW19915   1.862   4.643   6.141  0.2483  0.0140  0.1078
 6336SOL    HW119916   1.820   4.608   6.220  0.2098 -0.1058  0.0340
 6336SOL    HW219917   1.790   4.681   6.090 -0.2807 -2.7686 -1.4265
 6337SOL     OW19918   0.338   3.844   4.779  0.2709 -0.0152 -0.6103
 6337SOL    HW119919   0.315   3.930   4.744  1.8459 -0.3235 -2.6149
 6337SOL    HW219920   0.398   3.863   4.851  0.2375  0.5714 -0.7338
 6338SOL     OW19921   5.385   4.628   5.508 -0.3116 -0.0132  0.0716
 6338SOL    HW119922   5.294   4.634   5.479 -0.5410 -0.2835  0.7198
 6338SOL    HW219923   5.393   4.539   5.543 -0.1557  0.4343  1.2113
 6339SOL     OW19924   2.496   6.246   1.891 -0.0981  0.2200 -0.2002
 6339SOL    HW119925   2.490   6.245   1.987  0.1127  0.6244 -0.1813
 6339SOL    HW219926   2.486   6.338   1.868  2.1296  0.4499 -0.4243
 6340SOL     OW19927   5.070   7.734   5.828  0.5290  0.3046  0.3787
 6340SOL    HW119928   5.015   7.813   5.823 -2.7514 -1.7480  0.8689
 6340SOL    HW219929   5.081   7.707   5.737  0.4841  0.5513  0.2974
 6341SOL     OW19930   6.188   6.561   7.229 -0.2492 -0.2471  0.0362
 6341SOL    HW119931   6.152   6.507   7.158  0.4659 -0.1929 -0.3752
 6341SOL    HW219932   6.153   6.521   7.309 -0.6159 -0.6492 -0.3142
 6342SOL     OW19933   4.853   4.334   5.898 -0.0898 -0.8347  0.2547
 6342SOL    HW119934   4.940   4.372   5.885 -0.6089  0.5906  0.7118
 6342SOL    HW219935   4.854   4.301   5.988  0.8644 -3.3921 -0.6189
 6343SOL     OW19936   1.278   6.927   5.755 -0.4963  0.3661  0.2649
 6343SOL    HW119937   1.318   6.968   5.678  0.2953 -0.5749  0.1643
 6343SOL    HW219938   1.281   6.995   5.822  0.6140  0.5516  0.0444
 6344SOL     OW19939   4.629   1.548   4.772  0.4136 -0.6245  0.6844
 6344SOL    HW119940   4.548   1.496   4.772  0.1228 -0.1746 -0.0403
 6344SOL    HW219941   4.674   1.520   4.852 -0.4097 -0.9511  1.0541
 6345SOL     OW19942   5.311   6.085   5.249  0.3009 -0.3724  0.2556
 6345SOL    HW119943   5.255   6.146   5.200  0.0917  0.0779  1.0465
 6345SOL    HW219944   5.283   5.998   5.220  0.2904 -0.1125 -0.5401
 6346SOL     OW19945   6.724   0.587   3.692 -0.5122 -0.5577  0.5379
 6346SOL    HW119946   6.674   0.511   3.722 -0.8247 -1.1028 -1.2316
 6346SOL    HW219947   6.756   0.561   3.606  0.4469  0.8620  0.4459
 6347SOL     OW19948   0.207   3.168   4.321  0.0689 -0.0968  0.4707
 6347SOL    HW119949   0.242   3.227   4.254 -1.3614  0.5172  0.2228
 6347SOL    HW219950   0.131   3.214   4.356 -1.5512 -2.0641 -0.2307
 6348SOL     OW19951   7.056   6.600   7.437 -0.1150 -0.4785 -0.0886
 6348SOL    HW119952   7.047   6.688   7.400 -0.1597 -0.4627 -0.0412
 6348SOL    HW219953   7.134   6.565   7.396  0.2825 -0.1676  0.3817
 6349SOL     OW19954   4.332   4.413   0.311 -0.1832  0.0173 -0.2017
 6349SOL    HW119955   4.423   4.445   0.305 -0.4184  1.0121  1.1819
 6349SOL    HW219956   4.327   4.369   0.396 -1.3157  1.0962  0.3233
 6350SOL     OW19957   5.556   5.222   5.340 -0.5291 -0.4192  0.3586
 6350SOL    HW119958   5.476   5.186   5.378 -0.7306 -1.6868 -1.1578
 6350SOL    HW219959   5.571   5.169   5.262  0.4492  1.3925 -0.7321
 6351SOL     OW19960   0.743   2.268   3.076  0.1164  0.1629 -0.2370
 6351SOL    HW119961   0.760   2.334   3.144 -0.6648 -0.7202  0.8639
 6351SOL    HW219962   0.780   2.187   3.112  0.5676 -0.1223 -1.3212
 6352SOL     OW19963   2.655   1.115   2.325  0.0513  0.9280  0.5141
 6352SOL    HW119964   2.564   1.130   2.351  0.0341  2.7214 -0.4171
 6352SOL    HW219965   2.657   1.024   2.297 -1.0888  0.4121  1.9453
 6353SOL     OW19966   1.875   7.608   6.025 -0.1400  0.6165 -0.1839
 6353SOL    HW119967   1.782   7.587   6.024  0.0784 -0.4102 -0.6571
 6353SOL    HW219968   1.886   7.668   6.099 -1.3620  1.7010 -0.8507
 6354SOL     OW19969   4.804   3.297   0.926 -0.3758 -0.1336  0.4280
 6354SOL    HW119970   4.738   3.229   0.935  1.1558 -1.8330 -0.5146
 6354SOL    HW219971   4.887   3.252   0.938  0.6724  2.1284  2.7201
 6355SOL     OW19972   7.676   6.591   2.173  0.1166  0.1893 -0.6687
 6355SOL    HW119973   7.721   6.665   2.214 -1.3838  1.2355 -0.8256
 6355SOL    HW219974   7.665   6.617   2.081 -0.6026 -0.1352 -0.6831
 6356SOL     OW19975   5.094   7.204   2.783 -0.0643 -0.1078 -0.2068
 6356SOL    HW119976   5.088   7.189   2.688  0.9977  1.2045 -0.5192
 6356SOL    HW219977   5.004   7.222   2.810 -0.5448 -1.5646 -0.7577
 6357SOL     OW19978   0.624   3.084   2.281  0.2291 -0.2410 -0.2223
 6357SOL    HW119979   0.544   3.043   2.312 -0.1705  0.3008 -0.5276
 6357SOL    HW219980   0.687   3.072   2.353  0.6685 -2.8906 -0.9457
 6358SOL     OW19981   7.497   2.879   5.052 -0.4262  0.4437 -0.3540
 6358SOL    HW119982   7.498   2.803   5.110 -2.1304  1.0250  0.5065
 6358SOL    HW219983   7.583   2.920   5.065 -1.1703  1.2757  2.8414
 6359SOL     OW19984   4.665   5.519   7.542  0.5163 -0.4198 -0.2929
 6359SOL    HW119985   4.631   5.440   7.584  1.1167 -1.4044 -1.5628
 6359SOL    HW219986   4.591   5.579   7.539 -0.6994 -1.8858 -1.4891
 6360SOL     OW19987   7.094   6.242   7.715  0.9926 -0.6131 -0.1150
 6360SOL    HW119988   7.090   6.189   7.635 -1.9714  0.7523 -0.9981
 6360SOL    HW219989   7.017   6.215   7.765  0.5112  1.4490  0.3211
 6361SOL     OW19990   3.406   0.010   0.335  0.1317  0.0654 -0.4139
 6361SOL    HW119991   3.363   0.091   0.361  2.0077  0.9673  0.0475
 6361SOL    HW219992   3.371  -0.009   0.248 -0.4500  1.2760 -0.4603
 6362SOL     OW19993   5.701   1.810   4.013  0.0891  0.5334  0.7898
 6362SOL    HW119994   5.735   1.879   4.068 -0.0206  2.5581 -1.4959
 6362SOL    HW219995   5.768   1.798   3.945 -0.8354 -0.0992 -0.0434
 6363SOL     OW19996   5.680   0.148   5.236 -0.2605 -0.4938  0.4466
 6363SOL    HW119997   5.692   0.107   5.150 -1.1135 -0.7727  0.4566
 6363SOL    HW219998   5.762   0.196   5.251 -0.3053 -0.0238 -0.7465
 6364SOL     OW19999   5.921   5.842   4.685 -0.7168  0.2438 -0.4756
 6364SOL    HW120000   5.928   5.786   4.763  0.1978  0.5761 -0.3087
 6364SOL    HW220001   5.970   5.795   4.618 -0.5664  0.4890 -0.5376
 6365SOL     OW20002   0.264   3.658   0.998  0.3804  0.5341  0.3310
 6365SOL    HW120003   0.293   3.717   1.068 -0.7867 -0.7520  1.9693
 6365SOL    HW220004   0.177   3.628   1.026  0.2315 -0.6515 -1.2715
 6366SOL     OW20005   1.264   3.772   4.614 -0.2960  0.4102  0.0838
 6366SOL    HW120006   1.220   3.721   4.682 -0.3964 -1.1990 -1.1332
 6366SOL    HW220007   1.208   3.849   4.603 -0.8251  0.1927  1.0896
 6367SOL     OW20008   6.196   3.289   6.695  0.3153  0.0692  0.0385
 6367SOL    HW120009   6.105   3.315   6.685  0.1378 -0.6325 -0.3034
 6367SOL    HW220010   6.210   3.284   6.790  0.4033  1.5021  0.1099
 6368SOL     OW20011   7.034   7.441   1.957  0.1425 -0.2494  0.5658
 6368SOL    HW120012   7.052   7.533   1.977 -0.2290  0.0594 -0.4527
 6368SOL    HW220013   7.089   7.392   2.018  0.9162  0.6483  0.6159
 6369SOL     OW20014   6.830   2.145   4.820  0.1066 -0.1891  0.2117
 6369SOL    HW120015   6.898   2.145   4.888  1.1671  1.2544 -0.8001
 6369SOL    HW220016   6.851   2.220   4.764 -2.5905  0.6091  0.1081
 6370SOL     OW20017   3.712   4.255   5.875 -0.2485 -0.1521  0.0222
 6370SOL    HW120018   3.742   4.204   5.799 -2.4672 -1.1303 -0.2799
 6370SOL    HW220019   3.701   4.190   5.944 -0.3588  0.3764  0.5068
 6371SOL     OW20020   2.517   3.273   3.236 -0.0231 -0.6051  0.0890
 6371SOL    HW120021   2.608   3.290   3.262 -0.3757  2.5318 -0.3481
 6371SOL    HW220022   2.525   3.232   3.150  1.0012 -0.5910  0.1612
 6372SOL     OW20023   7.674   2.005   4.665  0.3747 -0.3374 -0.2996
 6372SOL    HW120024   7.676   2.057   4.585 -1.0149  0.4677  0.1604
 6372SOL    HW220025   7.655   2.068   4.734 -0.2389 -1.2981  0.4272
 6373SOL     OW20026   3.985   6.402   2.507  0.3004 -0.0901 -0.4152
 6373SOL    HW120027   3.898   6.437   2.524  0.2965 -0.9179  1.4946
 6373SOL    HW220028   4.044   6.468   2.543  0.4767  0.2803 -1.3480
 6374SOL     OW20029   4.243   2.844   7.055  0.4264  0.4884  1.0497
 6374SOL    HW120030   4.147   2.836   7.061  0.4382  0.5253  1.2930
 6374SOL    HW220031   4.259   2.857   6.962  0.1917  0.5035  1.0088
 6375SOL     OW20032   5.301   1.730   1.003 -0.1456 -0.7424  0.1521
 6375SOL    HW120033   5.362   1.803   1.013 -3.0498  2.2329 -1.7708
 6375SOL    HW220034   5.283   1.727   0.909 -0.5320 -3.6805  0.2365
 6376SOL     OW20035   7.507   6.508   6.737 -1.1012 -0.6260  0.1463
 6376SOL    HW120036   7.546   6.507   6.824  0.8812 -0.6942 -0.6857
 6376SOL    HW220037   7.460   6.426   6.730 -1.1724 -0.6695  1.1052
 6377SOL     OW20038   6.759   1.085   5.783  0.0495  0.5420  0.3347
 6377SOL    HW120039   6.706   1.124   5.852 -1.2914  2.4025 -1.6384
 6377SOL    HW220040   6.706   1.013   5.750 -0.1993  0.9215 -0.0900
 6378SOL     OW20041   5.602   5.213   4.447 -0.2642 -0.3812 -0.8377
 6378SOL    HW120042   5.567   5.291   4.489  1.0077  0.7632 -1.8298
 6378SOL    HW220043   5.534   5.147   4.459 -1.3547  0.8538  0.0454
 6379SOL     OW20044   1.919   7.662   3.508 -0.0566  0.6535  0.4834
 6379SOL    HW120045   1.859   7.728   3.472  0.0385  1.6845  2.1036
 6379SOL    HW220046   1.866   7.614   3.572  0.2157 -0.0512  0.1903
 6380SOL     OW20047   3.390   6.466   2.778  0.6018  0.1118  0.0571
 6380SOL    HW120048   3.452   6.533   2.747  1.1586 -0.6459 -0.5202
 6380SOL    HW220049   3.431   6.383   2.754 -0.2150 -0.4324  0.5001
 6381SOL     OW20050   0.363   3.883   0.329  0.3358 -0.7329 -0.0385
 6381SOL    HW120051   0.385   3.976   0.325  0.7096 -0.8316 -0.2976
 6381SOL    HW220052   0.325   3.871   0.416 -1.4621  0.0455 -0.6537
 6382SOL     OW20053   1.968   4.359   6.707 -0.3273 -0.0052  0.2752
 6382SOL    HW120054   2.018   4.398   6.779 -1.0066  1.6654 -0.1033
 6382SOL    HW220055   1.961   4.429   6.642  0.1299 -1.4309 -1.3623
 6383SOL     OW20056   6.677   4.810   4.824 -0.2827  0.3123 -0.2910
 6383SOL    HW120057   6.732   4.802   4.902 -0.1143  0.1703 -0.4232
 6383SOL    HW220058   6.727   4.866   4.765 -0.4281  0.4537 -0.2805
 6384SOL     OW20059   2.471   4.316   6.550 -0.0760 -0.2586  0.2457
 6384SOL    HW120060   2.533   4.275   6.609 -0.5703 -1.9639 -0.3659
 6384SOL    HW220061   2.511   4.400   6.527  1.4095 -0.7885  0.8130
 6385SOL     OW20062   7.568   0.931   4.590  0.4285  0.5357  0.1529
 6385SOL    HW120063   7.645   0.988   4.590  1.0199 -0.2180 -0.9138
 6385SOL    HW220064   7.604   0.843   4.578 -0.6420  0.2598 -1.3288
 6386SOL     OW20065   1.882   4.136   1.807 -0.6364 -0.4565  0.5622
 6386SOL    HW120066   1.823   4.201   1.770  0.1984  0.5244  0.8863
 6386SOL    HW220067   1.831   4.056   1.810 -1.5241  0.0491 -0.3536
 6387SOL     OW20068   5.222   2.437   2.929  0.5285 -0.2963  0.2864
 6387SOL    HW120069   5.251   2.459   2.841  0.1314 -1.9488 -0.2762
 6387SOL    HW220070   5.207   2.522   2.971  1.7898  0.5246 -0.8560
 6388SOL     OW20071   6.588   0.898   5.683  0.1556  0.4963 -0.5652
 6388SOL    HW120072   6.546   0.813   5.694 -0.2233  0.5708 -1.3592
 6388SOL    HW220073   6.541   0.939   5.610 -0.7425  2.0710  0.8285
 6389SOL     OW20074   0.743   1.455   1.287  0.3887  0.1442 -0.4607
 6389SOL    HW120075   0.779   1.403   1.359  0.9017 -0.6867 -1.2811
 6389SOL    HW220076   0.752   1.398   1.210 -2.9533 -0.2587 -0.7001
 6390SOL     OW20077   3.402   1.488   1.871 -0.4161  0.2549 -0.2146
 6390SOL    HW120078   3.396   1.537   1.789 -1.0926  1.9679  0.8223
 6390SOL    HW220079   3.331   1.522   1.926  2.2243  1.8905  2.4761
 6391SOL     OW20080   6.995   1.957   5.062 -0.2462 -0.3139  0.1622
 6391SOL    HW120081   7.002   1.897   4.988 -0.9411 -0.7461  0.4383
 6391SOL    HW220082   7.078   2.006   5.061  1.1686 -2.5272  1.0168
 6392SOL     OW20083   2.882   3.290   5.869 -0.2990  0.0008 -0.1761
 6392SOL    HW120084   2.912   3.332   5.950  1.4776 -0.5700 -0.5083
 6392SOL    HW220085   2.831   3.215   5.899  2.0648 -1.4392  0.5150
 6393SOL     OW20086   4.889   6.969   6.598  0.2923  0.1406 -0.7996
 6393SOL    HW120087   4.794   6.953   6.603  0.4146 -0.3669  0.0767
 6393SOL    HW220088   4.923   6.891   6.554  0.4264 -0.2076 -0.0952
 6394SOL     OW20089   6.370   3.125   5.977 -0.2852 -0.0825 -0.0033
 6394SOL    HW120090   6.364   3.090   5.888  1.9452  0.0835 -0.2764
 6394SOL    HW220091   6.406   3.053   6.029  1.7511  0.8627 -0.0083
 6395SOL     OW20092   6.880   1.828   2.868 -0.0506 -0.1019  0.5737
 6395SOL    HW120093   6.789   1.827   2.838 -0.3185  0.4982  1.3297
 6395SOL    HW220094   6.901   1.735   2.882 -0.0838 -0.3548 -0.9100
 6396SOL     OW20095   0.859   5.465   2.726 -0.1722 -0.3916  0.1928
 6396SOL    HW120096   0.896   5.466   2.637  0.5441  0.4639  0.4991
 6396SOL    HW220097   0.800   5.389   2.725 -0.2984 -0.3024 -1.0629
 6397SOL     OW20098   5.757   3.838   3.321 -0.1546 -0.3644 -0.2212
 6397SOL    HW120099   5.849   3.858   3.301 -0.0821 -0.4006  0.0743
 6397SOL    HW220100   5.721   3.920   3.354 -0.1755 -0.4036 -0.1459
 6398SOL     OW20101   3.318   5.232   1.169 -0.0912 -0.7025 -0.5799
 6398SOL    HW120102   3.390   5.291   1.149 -0.4866  0.1523  0.4307
 6398SOL    HW220103   3.309   5.178   1.090  1.6003 -0.7990 -0.7464
 6399SOL     OW20104   4.993   1.395   3.473 -0.5777  0.2896  0.2635
 6399SOL    HW120105   4.967   1.486   3.457 -0.6700 -0.1459 -2.5893
 6399SOL    HW220106   5.087   1.399   3.486 -0.5474  0.7911 -0.0489
 6400SOL     OW20107   7.321   1.143   0.202 -0.2038 -0.3351  0.3342
 6400SOL    HW120108   7.226   1.154   0.206  0.0961  3.0698  1.6257
 6400SOL    HW220109   7.344   1.106   0.287 -0.2428  1.0072  0.9594
 6401SOL     OW20110   5.584   4.670   1.759  0.7266  0.0731 -0.3559
 6401SOL    HW120111   5.532   4.710   1.690  1.4015  2.8974  0.6152
 6401SOL    HW220112   5.523   4.660   1.832  1.1101  1.9516  0.2757
 6402SOL     OW20113   2.410   0.075   4.619  0.2336  0.6462 -0.4174
 6402SOL    HW120114   2.431   0.066   4.712 -1.3201  1.1764  0.0111
 6402SOL    HW220115   2.495   0.087   4.577  0.9552  0.6029  0.9562
 6403SOL     OW20116   1.645   2.032   1.437 -0.0670 -0.3326  0.0876
 6403SOL    HW120117   1.594   1.966   1.390 -1.5631  1.7825 -1.4836
 6403SOL    HW220118   1.732   1.993   1.447 -0.6316 -2.1818 -1.5353
 6404SOL     OW20119   2.187   1.940   1.332  0.3553  0.1303 -0.6727
 6404SOL    HW120120   2.160   1.855   1.368 -0.1080  1.1149  1.4364
 6404SOL    HW220121   2.281   1.931   1.317  0.5429 -0.4137  0.6684
 6405SOL     OW20122   6.812   2.477   0.160 -0.2031  0.6772 -0.0402
 6405SOL    HW120123   6.747   2.547   0.159 -0.6880  0.2741 -2.0443
 6405SOL    HW220124   6.767   2.401   0.122  0.9496 -0.0881  0.0490
 6406SOL     OW20125   4.222   6.017   0.835 -0.2132 -0.6006  0.2098
 6406SOL    HW120126   4.316   6.018   0.850 -0.1676 -2.8733  0.3710
 6406SOL    HW220127   4.191   6.102   0.867  1.3859 -0.9330  2.8276
 6407SOL     OW20128   4.811   2.159   6.720  0.4129 -0.2700  0.0036
 6407SOL    HW120129   4.800   2.214   6.642 -0.4007  1.5365  1.3159
 6407SOL    HW220130   4.730   2.109   6.726 -0.4492  1.1712  0.8229
 6408SOL     OW20131   0.722   2.844   4.494  0.3295  0.6191 -0.3806
 6408SOL    HW120132   0.739   2.862   4.402  0.4732 -1.7395 -0.8743
 6408SOL    HW220133   0.740   2.751   4.505  0.7513  0.9019  2.1494
 6409SOL     OW20134   3.912   7.744   4.840  0.2837  0.1377 -0.2156
 6409SOL    HW120135   3.946   7.832   4.856  0.4005 -0.1984  1.6098
 6409SOL    HW220136   3.837   7.736   4.899 -0.1195 -0.7628 -0.8236
 6410SOL     OW20137   1.958   4.925   6.203  0.0662  0.1320 -0.1724
 6410SOL    HW120138   1.927   4.866   6.135 -0.3669 -0.2228  0.3160
 6410SOL    HW220139   1.883   4.981   6.223 -0.1858 -0.5299  0.8083
 6411SOL     OW20140   7.265   2.609   4.590 -0.6791  0.5246 -0.1719
 6411SOL    HW120141   7.332   2.656   4.540 -0.4831  1.4308  0.9111
 6411SOL    HW220142   7.214   2.562   4.524  1.4548 -0.7895 -0.9842
 6412SOL     OW20143   4.510   2.310   1.624  0.3593  0.2647 -0.2926
 6412SOL    HW120144   4.465   2.394   1.618 -1.8948 -0.9692 -2.0659
 6412SOL    HW220145   4.578   2.314   1.557 -2.0336 -0.5142 -2.9340
 6413SOL     OW20146   3.709   0.715   7.531  0.1385 -0.1220 -0.3066
 6413SOL    HW120147   3.616   0.690   7.528  0.1202 -0.0678 -0.2207
 6413SOL    HW220148   3.749   0.669   7.458  0.1186 -0.4617 -0.1066
 6414SOL     OW20149   5.614   2.810   2.167 -0.4935  0.0156 -0.0555
 6414SOL    HW120150   5.650   2.802   2.255  1.5528  0.9681 -0.7519
 6414SOL    HW220151   5.526   2.772   2.174 -0.4695  0.2220  2.4216
 6415SOL     OW20152   0.652   5.468   5.406  0.0436  0.0356 -0.3583
 6415SOL    HW120153   0.627   5.385   5.365  0.6192 -0.2349 -0.1655
 6415SOL    HW220154   0.630   5.456   5.498 -0.8176  0.4748 -0.4954
 6416SOL     OW20155   6.609   4.579   6.130  0.1453  0.7528 -0.0809
 6416SOL    HW120156   6.695   4.572   6.088 -0.0063 -0.6895 -0.2158
 6416SOL    HW220157   6.611   4.663   6.175  2.0903  0.2238  0.9229
 6417SOL     OW20158   2.761   7.184   3.021  0.2230 -0.1954 -0.4614
 6417SOL    HW120159   2.721   7.173   2.935 -1.3773 -0.1892  0.2473
 6417SOL    HW220160   2.703   7.137   3.081  2.6162 -2.3994  0.3313
 6418SOL     OW20161   3.222   6.975   1.216 -0.5184  0.0735 -0.0424
 6418SOL    HW120162   3.191   7.064   1.198  3.0977  1.3255 -1.0399
 6418SOL    HW220163   3.219   6.931   1.132 -0.0068  0.0932 -0.0743
 6419SOL     OW20164   0.676   6.692   1.061 -0.0577 -0.2667 -0.2211
 6419SOL    HW120165   0.714   6.611   1.096 -1.8175 -0.9197  0.2528
 6419SOL    HW220166   0.751   6.740   1.027  0.9148 -2.7066 -1.8017
 6420SOL     OW20167   7.569   7.194   7.215  0.0295 -0.5903 -0.0394
 6420SOL    HW120168   7.515   7.260   7.171  0.9165  0.6420  0.6435
 6420SOL    HW220169   7.638   7.245   7.258 -0.0961 -1.8430  1.7381
 6421SOL     OW20170   7.715   2.615   2.823  0.7448  0.1278  0.0518
 6421SOL    HW120171   7.784   2.677   2.847  0.2307  1.6230 -2.0740
 6421SOL    HW220172   7.739   2.534   2.869  2.8301  1.1460  0.9037
 6422SOL     OW20173   1.487   0.525   6.810 -0.1027 -0.0306  0.1698
 6422SOL    HW120174   1.532   0.468   6.748  0.9009 -0.4851  1.2650
 6422SOL    HW220175   1.537   0.517   6.891 -0.7020  1.4179  0.7332
 6423SOL     OW20176   7.249   5.244   6.967 -0.5472 -0.7145 -0.2051
 6423SOL    HW120177   7.258   5.153   6.939  0.0796 -0.8633  0.4532
 6423SOL    HW220178   7.314   5.291   6.915  1.7009 -1.2242  1.9721
 6424SOL     OW20179   5.176   4.857   5.668  0.1989 -0.3311  0.2843
 6424SOL    HW120180   5.160   4.815   5.753 -1.0638 -0.7371 -0.1232
 6424SOL    HW220181   5.262   4.897   5.677 -0.3749  0.6255  2.1632
 6425SOL     OW20182   1.834   1.779   5.824  0.0037  0.2814  0.1888
 6425SOL    HW120183   1.855   1.686   5.817 -0.5548  0.1854 -0.2573
 6425SOL    HW220184   1.902   1.824   5.774 -0.8246 -0.0251 -1.2379
 6426SOL     OW20185   0.136   2.700   7.132 -0.2998 -0.2454 -0.1041
 6426SOL    HW120186   0.078   2.764   7.091  2.2576  0.3469 -3.1091
 6426SOL    HW220187   0.223   2.740   7.128  1.1028 -3.0982 -0.3979
 6427SOL     OW20188   4.326   4.493   0.016 -0.2693 -0.5071  0.0036
 6427SOL    HW120189   4.422   4.495   0.009 -0.2790 -0.4264 -0.1230
 6427SOL    HW220190   4.309   4.478   0.109 -0.1310  1.0486  0.3140
 6428SOL     OW20191   4.690   5.357   2.615  0.1119 -0.3375  0.1742
 6428SOL    HW120192   4.785   5.370   2.615  0.1515 -0.3575  1.8348
 6428SOL    HW220193   4.654   5.445   2.622  0.0482 -0.3857  0.4831
 6429SOL     OW20194   3.164   7.630   7.251  0.6048 -0.2175  0.4269
 6429SOL    HW120195   3.218   7.564   7.208 -1.1348 -2.1007  0.9381
 6429SOL    HW220196   3.195   7.714   7.218  0.0727 -1.4599 -3.6851
 6430SOL     OW20197   1.636   0.327   2.297  0.1618 -0.4391  0.2256
 6430SOL    HW120198   1.713   0.311   2.352 -0.1666  0.0539  0.8471
 6430SOL    HW220199   1.671   0.336   2.208  1.0306  1.3814  0.7051
 6431SOL     OW20200   2.622   5.347   1.964  0.3646  0.4744 -0.1188
 6431SOL    HW120201   2.541   5.298   1.976  0.7745 -0.3184 -0.4945
 6431SOL    HW220202   2.691   5.287   1.994  0.7779  1.3463  0.7309
 6432SOL     OW20203   7.202   4.360   7.048  0.2777  0.6292 -0.4559
 6432SOL    HW120204   7.157   4.416   6.985  1.7238  1.6422 -0.6506
 6432SOL    HW220205   7.166   4.385   7.133 -0.8466  0.0792 -0.7544
 6433SOL     OW20206   3.295   0.515   3.608  0.3438 -0.0742 -0.1764
 6433SOL    HW120207   3.356   0.467   3.552  1.0261  0.3121  0.2178
 6433SOL    HW220208   3.250   0.576   3.549  1.5632  0.8271 -0.2090
 6434SOL     OW20209   6.592   1.649   7.632  0.1474 -0.9797  0.4742
 6434SOL    HW120210   6.682   1.618   7.639 -0.1431 -1.9110  0.2345
 6434SOL    HW220211   6.579   1.661   7.538  0.8659  1.8063  0.6466
 6435SOL     OW20212   0.869   3.116   4.374  0.4556 -0.0206 -0.0754
 6435SOL    HW120213   0.830   3.163   4.300  0.8375 -1.1189 -1.0117
 6435SOL    HW220214   0.806   3.125   4.444  0.2356  1.3373 -0.4293
 6436SOL     OW20215   7.038   4.924   0.609  0.5110  0.3209 -0.6146
 6436SOL    HW120216   7.069   4.834   0.593  1.4260  0.5806 -0.3627
 6436SOL    HW220217   6.962   4.912   0.666  0.4925 -0.3142 -0.7578
 6437SOL     OW20218   7.339   2.099   4.563  0.0930  0.0050 -0.2446
 6437SOL    HW120219   7.422   2.122   4.522  1.1655 -2.7697  0.1776
 6437SOL    HW220220   7.323   2.170   4.626  2.5352  0.2451  0.1966
 6438SOL     OW20221   2.418   0.750   5.802  0.5107  0.6323 -0.1586
 6438SOL    HW120222   2.498   0.701   5.784  0.2587 -0.3173  1.1827
 6438SOL    HW220223   2.443   0.817   5.865  0.6355  1.6127 -1.2160
 6439SOL     OW20224   3.531   4.905   7.271 -0.2123 -0.0259 -0.3385
 6439SOL    HW120225   3.451   4.851   7.274  0.6756 -1.4727 -1.4502
 6439SOL    HW220226   3.543   4.923   7.177 -0.0941  1.5626 -0.0439
 6440SOL     OW20227   6.010   2.220   7.099  0.4149 -0.2182 -0.0329
 6440SOL    HW120228   6.090   2.193   7.053  0.4920 -0.9130  0.4822
 6440SOL    HW220229   6.040   2.240   7.188 -0.1030 -1.3740  0.4231
 6441SOL     OW20230   1.253   2.292   7.024 -0.8635  0.9916 -0.2713
 6441SOL    HW120231   1.310   2.369   7.024 -0.7566  0.9119  0.0005
 6441SOL    HW220232   1.187   2.312   6.957 -0.2248  0.8604 -0.9658
 6442SOL     OW20233   4.736   5.717   2.496 -0.1043  0.3478 -0.2481
 6442SOL    HW120234   4.662   5.665   2.466 -0.4237  0.9141 -0.4679
 6442SOL    HW220235   4.813   5.663   2.478 -0.4819 -0.3524  0.2198
 6443SOL     OW20236   4.949   2.554   5.759 -0.0483  0.1000  0.2372
 6443SOL    HW120237   5.017   2.499   5.796 -1.5556 -1.8910  0.2095
 6443SOL    HW220238   4.955   2.541   5.664 -0.6429 -0.3388  0.2513
 6444SOL     OW20239   2.468   4.641   4.625 -0.0402  0.0481  0.1386
 6444SOL    HW120240   2.452   4.675   4.713 -0.8180 -1.0787  0.4639
 6444SOL    HW220241   2.383   4.643   4.582  0.2192  0.0320 -0.3809
 6445SOL     OW20242   4.103   3.617   2.969 -0.0261  0.3278  0.6819
 6445SOL    HW120243   4.106   3.685   3.037  0.9954  1.3000 -0.2932
 6445SOL    HW220244   4.188   3.622   2.926 -0.3937 -0.7533 -0.2160
 6446SOL     OW20245   2.086   3.286   2.726  0.2206  0.1717 -0.0827
 6446SOL    HW120246   2.021   3.309   2.792  0.6311  0.7786  0.1212
 6446SOL    HW220247   2.041   3.299   2.642  0.0422  0.4772  0.0576
 6447SOL     OW20248   3.356   0.703   7.097 -0.3983 -0.0828 -0.3938
 6447SOL    HW120249   3.269   0.666   7.106  0.0597 -0.7322  2.1839
 6447SOL    HW220250   3.410   0.630   7.066 -0.9556  0.7129 -3.5622
 6448SOL     OW20251   3.982   6.695   5.808  0.4962 -0.3673  1.0422
 6448SOL    HW120252   4.020   6.671   5.724  0.3424 -1.2098  1.2061
 6448SOL    HW220253   4.026   6.777   5.832 -1.6927  1.6808 -1.3444
 6449SOL     OW20254   6.225   4.729   3.396  0.4380  0.5801  1.0150
 6449SOL    HW120255   6.185   4.767   3.318  0.9247 -0.9018  0.0017
 6449SOL    HW220256   6.267   4.803   3.440 -1.0316  1.6820  0.6536
 6450SOL     OW20257   2.874   4.313   6.355 -0.1209 -0.6426 -0.0317
 6450SOL    HW120258   2.792   4.307   6.305 -0.5973 -0.8900  0.7613
 6450SOL    HW220259   2.899   4.222   6.370 -0.0815 -0.5715  0.3397
 6451SOL     OW20260   6.421   3.907   3.319  0.1458 -0.1565 -0.2722
 6451SOL    HW120261   6.508   3.948   3.313 -0.3990  1.0788  0.0706
 6451SOL    HW220262   6.431   3.825   3.272  1.6592 -0.2962  0.2214
 6452SOL     OW20263   6.112   0.610   2.089  0.3204 -0.1038  0.6616
 6452SOL    HW120264   6.118   0.669   2.014 -0.2325  0.0821  0.7584
 6452SOL    HW220265   6.123   0.523   2.051  0.9287  0.0418  0.4904
 6453SOL     OW20266   7.422   3.865   5.777  0.3656  0.0820 -0.1269
 6453SOL    HW120267   7.511   3.896   5.794  0.0185  0.0288  2.0626
 6453SOL    HW220268   7.426   3.829   5.689  2.2545  0.9958 -0.4646
 6454SOL     OW20269   4.163   4.124   1.474  0.5135 -0.4677 -0.4473
 6454SOL    HW120270   4.174   4.214   1.445 -0.3142 -0.1125  0.2923
 6454SOL    HW220271   4.235   4.076   1.433  1.8549  0.7912  0.3383
 6455SOL     OW20272   7.607   0.006   1.039  0.2697  0.1676 -0.0018
 6455SOL    HW120273   7.583  -0.029   0.953  0.2812 -0.1966  0.1445
 6455SOL    HW220274   7.703   0.009   1.038  0.2981 -0.5626  0.2867
 6456SOL     OW20275   2.395   3.989   4.698  0.5007  0.0611  0.1360
 6456SOL    HW120276   2.420   4.074   4.732 -0.5438  0.8427 -0.9698
 6456SOL    HW220277   2.300   3.985   4.707  0.5534 -1.1024  0.4053
 6457SOL     OW20278   3.581   2.813   3.307  0.1642 -0.0755 -0.6710
 6457SOL    HW120279   3.521   2.758   3.357 -0.8828  0.0204 -1.7660
 6457SOL    HW220280   3.527   2.848   3.236  1.0151  1.6741 -0.5019
 6458SOL     OW20281   3.612   0.522   4.187 -0.5333 -0.2267 -0.5052
 6458SOL    HW120282   3.517   0.523   4.203 -0.5724  0.8503 -0.7162
 6458SOL    HW220283   3.621   0.482   4.101 -0.7523 -0.7785 -0.2793
 6459SOL     OW20284   1.553   1.016   3.524 -0.3458 -0.0932 -0.0059
 6459SOL    HW120285   1.535   0.924   3.541  0.4025  0.1660  2.5538
 6459SOL    HW220286   1.539   1.059   3.608 -0.4638  2.1270 -1.0797
 6460SOL     OW20287   6.960   2.932   1.676  0.4443 -0.1904  0.0028
 6460SOL    HW120288   7.038   2.966   1.719  0.5499 -1.1643  0.6089
 6460SOL    HW220289   6.904   2.902   1.748 -1.5243  2.5248 -0.2410
 6461SOL     OW20290   3.810   7.559   6.773  0.3665  0.3549  0.3167
 6461SOL    HW120291   3.762   7.603   6.703  0.5335 -3.2215 -2.3558
 6461SOL    HW220292   3.899   7.595   6.769  0.6408 -0.4399 -2.1089
 6462SOL     OW20293   7.197   6.332   1.735  0.4707  0.3678 -0.1753
 6462SOL    HW120294   7.133   6.274   1.775  0.1883  0.5317 -0.3862
 6462SOL    HW220295   7.273   6.276   1.718 -0.2662 -0.2658 -1.5816
 6463SOL     OW20296   4.181   7.700   1.664 -0.2250 -0.3843  0.5371
 6463SOL    HW120297   4.139   7.738   1.587  1.1325  1.6880  0.7456
 6463SOL    HW220298   4.183   7.771   1.728  1.6025 -1.0693  1.2995
 6464SOL     OW20299   2.033   3.347   5.198  0.0934 -0.7403 -0.0184
 6464SOL    HW120300   2.004   3.265   5.160  0.4529 -1.4046  1.0830
 6464SOL    HW220301   2.074   3.322   5.281  2.3407  0.2908 -0.7244
 6465SOL     OW20302   5.394   3.821   6.553  1.0126 -0.5310 -0.5973
 6465SOL    HW120303   5.338   3.781   6.620  0.1323  0.7025 -0.5720
 6465SOL    HW220304   5.346   3.807   6.471  1.1888 -0.3973 -0.7243
 6466SOL     OW20305   6.291   7.411   2.300 -0.0121 -0.0274 -0.4660
 6466SOL    HW120306   6.198   7.424   2.318 -0.0206 -0.0750 -0.4760
 6466SOL    HW220307   6.329   7.390   2.385 -0.1681 -0.9239 -0.6085
 6467SOL     OW20308   0.105   6.007   3.101  0.3324 -0.4635 -0.4787
 6467SOL    HW120309   0.042   6.077   3.081  0.0991 -0.2266  1.0041
 6467SOL    HW220310   0.182   6.053   3.134  1.0873 -0.7949 -1.7077
 6468SOL     OW20311   0.697   7.155   4.935 -0.5508  0.2354  0.5796
 6468SOL    HW120312   0.627   7.103   4.975 -0.0915 -0.7737  0.1116
 6468SOL    HW220313   0.707   7.231   4.992 -0.9819 -0.3787  1.4910
 6469SOL     OW20314   4.110   3.832   6.130 -0.4964  0.1532  0.1403
 6469SOL    HW120315   4.104   3.809   6.223  1.0258  1.7546  0.7050
 6469SOL    HW220316   4.070   3.919   6.125  0.0739  0.3811 -0.5530
 6470SOL     OW20317   4.180   2.905   1.563 -0.0448  0.0707 -0.1152
 6470SOL    HW120318   4.092   2.891   1.598 -0.7809  2.3867 -0.8705
 6470SOL    HW220319   4.200   2.825   1.515 -1.3897 -0.8106  0.7221
 6471SOL     OW20320   5.892   4.334   6.837 -0.7408 -0.0709  0.0893
 6471SOL    HW120321   5.919   4.349   6.747  0.6546 -1.2785  0.2793
 6471SOL    HW220322   5.850   4.248   6.835  0.4689 -0.7025  0.7954
 6472SOL     OW20323   1.138   1.454   2.759 -0.2126 -0.1444  0.0884
 6472SOL    HW120324   1.225   1.417   2.770 -0.6855 -1.1661  0.5421
 6472SOL    HW220325   1.097   1.446   2.845 -0.7491  0.3259 -0.1158
 6473SOL     OW20326   0.804   0.867   4.919 -0.2992  0.1787  0.3434
 6473SOL    HW120327   0.897   0.849   4.914 -0.2817  0.2415  0.4592
 6473SOL    HW220328   0.771   0.849   4.831 -0.8730 -3.7586  1.1627
 6474SOL     OW20329   7.216   1.478   4.290  0.8091 -0.1779 -0.1112
 6474SOL    HW120330   7.137   1.465   4.343  0.0151  1.5136 -0.8093
 6474SOL    HW220331   7.283   1.503   4.352  0.6085 -0.8724  0.3997
 6475SOL     OW20332   2.191   2.215   1.016  0.2140  0.0394 -0.2096
 6475SOL    HW120333   2.155   2.295   0.979 -1.6488 -0.0237  1.2906
 6475SOL    HW220334   2.271   2.243   1.061 -0.0535  0.9452 -0.2756
 6476SOL     OW20335   5.590   2.088   4.092  0.0916  0.1522  0.2554
 6476SOL    HW120336   5.550   2.068   4.177 -0.8517 -1.6485 -0.5542
 6476SOL    HW220337   5.561   2.018   4.034  0.5919  1.3996 -1.6222
 6477SOL     OW20338   0.069   6.676   3.943  0.2904 -0.2430  0.3938
 6477SOL    HW120339   0.092   6.742   3.877 -1.6556  0.8973  0.7762
 6477SOL    HW220340   0.145   6.673   4.001  0.5489  1.4611  0.1999
 6478SOL     OW20341   0.443   4.999   3.681  0.0816 -0.0831  0.7448
 6478SOL    HW120342   0.413   5.046   3.758  0.0774  1.0166  0.0931
 6478SOL    HW220343   0.486   5.065   3.627 -2.0769 -0.2478 -1.3375
 6479SOL     OW20344   7.441   3.027   5.948 -0.4152 -0.2342  0.0411
 6479SOL    HW120345   7.408   3.059   6.032 -1.3497 -2.1814  0.4709
 6479SOL    HW220346   7.416   3.095   5.885 -1.4527  0.3380  1.0412
 6480SOL     OW20347   7.363   3.835   2.043 -0.5646 -0.0147 -0.0451
 6480SOL    HW120348   7.430   3.849   2.110  0.6302 -1.0334 -0.9560
 6480SOL    HW220349   7.324   3.750   2.066 -0.8040  0.0749 -0.1169
 6481SOL     OW20350   5.574   1.110   7.340  0.3822 -0.0703 -0.1858
 6481SOL    HW120351   5.578   1.038   7.276 -0.3455 -0.5587  0.2942
 6481SOL    HW220352   5.633   1.082   7.410 -1.3595 -1.1947  0.9346
 6482SOL     OW20353   0.306   3.086   5.805  0.2832  0.2531  0.1846
 6482SOL    HW120354   0.318   3.039   5.888 -0.7311  0.9517  0.7536
 6482SOL    HW220355   0.387   3.071   5.757  0.4797 -1.0199  0.8753
 6483SOL     OW20356   1.620   4.469   1.241  0.1274  0.1356  0.2322
 6483SOL    HW120357   1.594   4.470   1.149 -2.1259  1.2058  0.8118
 6483SOL    HW220358   1.571   4.396   1.279  0.1261  0.4359  0.8228
 6484SOL     OW20359   5.987   3.248   0.022 -0.6914 -0.1825  0.3503
 6484SOL    HW120360   6.023   3.251  -0.067 -0.8655 -2.0442  0.1870
 6484SOL    HW220361   6.060   3.223   0.078 -0.7217  0.3907  0.6505
 6485SOL     OW20362   3.391   5.339   3.395  0.0369 -0.1175  0.1150
 6485SOL    HW120363   3.353   5.364   3.310  1.1797  0.9447 -0.1189
 6485SOL    HW220364   3.316   5.325   3.452 -0.7639 -0.9532 -1.0920
 6486SOL     OW20365   2.710   1.989   3.515 -0.0182  0.1234 -0.1509
 6486SOL    HW120366   2.708   1.893   3.515  1.3224  0.0787 -0.5163
 6486SOL    HW220367   2.745   2.012   3.429 -0.2931  0.9430 -0.0509
 6487SOL     OW20368   5.020   3.845   2.684 -0.2626  0.3626  0.2024
 6487SOL    HW120369   5.006   3.758   2.648  1.3695  0.3928 -0.5769
 6487SOL    HW220370   5.053   3.829   2.773  0.4553  0.1530 -0.0923
 6488SOL     OW20371   7.664   1.685   6.020  0.4875 -0.4329  0.2597
 6488SOL    HW120372   7.753   1.682   6.054  0.0415  2.0227  1.8778
 6488SOL    HW220373   7.618   1.616   6.069  0.6728  0.8149  2.3266
 6489SOL     OW20374   0.403   6.929   4.257  0.5367 -0.0250 -0.1760
 6489SOL    HW120375   0.436   6.985   4.327  1.1693  0.6145 -0.9745
 6489SOL    HW220376   0.372   6.850   4.302  0.3142  0.6540  0.8826
 6490SOL     OW20377   1.545   3.579   0.591  0.4591 -0.2456  0.0191
 6490SOL    HW120378   1.549   3.624   0.507 -0.7823 -1.8676 -0.9911
 6490SOL    HW220379   1.463   3.609   0.630  1.4492  1.1653  1.1033
 6491SOL     OW20380   0.919   6.659   4.056  0.0664 -0.7151  0.0061
 6491SOL    HW120381   0.831   6.685   4.028 -0.7274 -1.2617  1.8289
 6491SOL    HW220382   0.923   6.565   4.038 -0.7643 -1.2529  2.2907
 6492SOL     OW20383   6.848   3.641   6.565  0.1103  0.3647  0.2265
 6492SOL    HW120384   6.870   3.704   6.634 -0.1061  1.0377 -0.3076
 6492SOL    HW220385   6.773   3.592   6.600 -0.4999  1.2318  0.1503
 6493SOL     OW20386   5.005   6.895   5.460 -0.5333  0.1456 -0.3144
 6493SOL    HW120387   5.061   6.831   5.504 -0.4002 -0.2887 -1.0904
 6493SOL    HW220388   4.916   6.863   5.476 -0.4320 -0.9837 -1.7486
 6494SOL     OW20389   0.664   4.917   2.740  0.2086  0.7741 -0.0210
 6494SOL    HW120390   0.627   4.864   2.670 -1.3730 -0.4068  1.6102
 6494SOL    HW220391   0.747   4.950   2.705 -0.4436  0.0979 -2.3391
 6495SOL     OW20392   3.780   0.848   6.751  0.9265 -0.0900 -0.4399
 6495SOL    HW120393   3.849   0.859   6.685  1.4741  1.5418  0.3575
 6495SOL    HW220394   3.817   0.785   6.813  2.0290  1.2498  0.3300
 6496SOL     OW20395   1.530   1.458   6.833  0.0677 -0.3699 -0.2833
 6496SOL    HW120396   1.458   1.494   6.782  2.7006  0.8095 -3.5617
 6496SOL    HW220397   1.553   1.528   6.895  0.6294  0.8386 -1.7721
 6497SOL     OW20398   4.679   4.435   1.544  0.1075 -0.5960 -0.1568
 6497SOL    HW120399   4.752   4.377   1.563 -0.0230 -0.9258 -0.6489
 6497SOL    HW220400   4.604   4.395   1.588  0.2491 -0.1853  0.4614
 6498SOL     OW20401   0.410   2.853   0.511 -0.5385  0.0109 -0.1921
 6498SOL    HW120402   0.412   2.838   0.416 -0.4674  0.5236 -0.2739
 6498SOL    HW220403   0.482   2.913   0.528 -0.5693 -0.0563  0.1859
 6499SOL     OW20404   0.271   5.088   2.245 -0.1513 -0.0806  0.2935
 6499SOL    HW120405   0.284   5.024   2.315  0.1642 -0.2753  0.0672
 6499SOL    HW220406   0.181   5.118   2.255 -0.7882 -1.6364 -0.4652
 6500SOL     OW20407   0.663   3.962   4.599  0.7558 -0.7790  0.1085
 6500SOL    HW120408   0.635   4.053   4.584 -0.0814 -0.9291  0.6549
 6500SOL    HW220409   0.728   3.945   4.531  2.0739  0.7185  0.9211
 6501SOL     OW20410   7.043   1.234   2.340 -0.3538  0.5265  0.0786
 6501SOL    HW120411   6.998   1.293   2.400  0.1638  0.1316  0.8826
 6501SOL    HW220412   7.136   1.247   2.359 -0.1108  1.1824 -1.4081
 6502SOL     OW20413   6.224   7.059   2.214 -0.5009  0.0623  0.0242
 6502SOL    HW120414   6.184   6.981   2.252 -0.1433 -0.5288 -0.7604
 6502SOL    HW220415   6.194   7.058   2.123  3.0547 -1.7384 -1.3182
 6503SOL     OW20416   4.650   1.957   1.487  0.1111  0.7784 -0.6619
 6503SOL    HW120417   4.672   1.864   1.493 -0.9143  0.5905  0.4835
 6503SOL    HW220418   4.624   1.969   1.395  0.7294  0.0560 -0.9429
 6504SOL     OW20419   5.691   0.292   4.929 -0.0835 -0.0182  0.4461
 6504SOL    HW120420   5.763   0.239   4.962 -1.6769 -1.0237  2.5452
 6504SOL    HW220421   5.638   0.231   4.877 -0.9582 -0.0852  1.3763
 6505SOL     OW20422   4.132   6.731   0.426  0.1722 -0.1630  0.4007
 6505SOL    HW120423   4.048   6.754   0.387  0.8665  0.1037 -0.9864
 6505SOL    HW220424   4.142   6.637   0.410  0.3044 -0.1197  0.2215
 6506SOL     OW20425   6.782   1.257   0.144 -0.1615  0.1581  0.1943
 6506SOL    HW120426   6.732   1.334   0.172 -0.3236 -0.0911  0.5995
 6506SOL    HW220427   6.754   1.242   0.053  1.4553  1.8577 -0.6412
 6507SOL     OW20428   2.502   7.285   4.883 -0.3988  0.4947  0.5209
 6507SOL    HW120429   2.556   7.223   4.834  0.5467  2.3415 -0.9392
 6507SOL    HW220430   2.412   7.262   4.860 -0.1164 -0.8073  0.6445
 6508SOL     OW20431   5.132   7.351   4.776  0.4557  0.1018 -0.2429
 6508SOL    HW120432   5.049   7.310   4.802  1.3744 -2.0903 -0.5431
 6508SOL    HW220433   5.161   7.397   4.854 -0.8703  0.6546 -0.0384
 6509SOL     OW20434   4.278   1.526   1.482 -0.1859 -0.0530  0.0017
 6509SOL    HW120435   4.368   1.493   1.483 -0.6850 -1.4879  0.8576
 6509SOL    HW220436   4.233   1.474   1.549 -2.0178 -0.4372 -1.4454
 6510SOL     OW20437   4.897   4.967   0.875  0.6505 -0.2579 -0.1748
 6510SOL    HW120438   4.898   5.057   0.842 -1.2183 -0.4633 -0.8692
 6510SOL    HW220439   4.902   4.913   0.797 -0.7122 -0.7523  0.0697
 6511SOL     OW20440   1.283   7.046   3.511 -0.2046  0.3722 -0.6113
 6511SOL    HW120441   1.218   7.062   3.580  1.2448 -0.6160  1.0604
 6511SOL    HW220442   1.241   6.984   3.452 -0.3129 -1.3802  1.2197
 6512SOL     OW20443   7.254   6.656   1.083 -0.0971  0.0680 -0.3943
 6512SOL    HW120444   7.340   6.697   1.072 -0.4722  0.6267 -1.3581
 6512SOL    HW220445   7.214   6.704   1.156 -0.1986  0.8699 -0.9645
 6513SOL     OW20446   5.493   7.125   7.489  0.0314 -0.5652  0.5374
 6513SOL    HW120447   5.535   7.159   7.568  3.1405 -0.3164 -1.0798
 6513SOL    HW220448   5.496   7.197   7.427  0.3597 -1.6259 -0.7251
 6514SOL     OW20449   4.407   0.123   0.865  0.0043  0.5064  0.1051
 6514SOL    HW120450   4.316   0.101   0.845 -0.8588 -0.3775  4.2103
 6514SOL    HW220451   4.401   0.195   0.928  2.1777  0.6074  0.2622
 6515SOL     OW20452   3.676   5.068   3.343 -0.4814 -0.1363 -0.0242
 6515SOL    HW120453   3.669   5.038   3.433  0.4220  0.7794  0.3729
 6515SOL    HW220454   3.604   5.025   3.297 -0.5440 -1.1287  0.9833
 6516SOL     OW20455   3.244   0.081   2.371  0.3554  0.3122  0.3388
 6516SOL    HW120456   3.226   0.096   2.278  1.1284 -1.5592 -0.1668
 6516SOL    HW220457   3.244   0.168   2.410 -0.9344  1.0705 -1.2251
 6517SOL     OW20458   1.709   5.130   2.512  0.3882  0.3932 -0.6001
 6517SOL    HW120459   1.683   5.188   2.440 -0.5032  0.7578 -0.0106
 6517SOL    HW220460   1.678   5.175   2.591  0.6602 -0.3714 -0.0469
 6518SOL     OW20461   3.420   6.042   6.019 -0.1369 -0.7421  0.4461
 6518SOL    HW120462   3.365   6.061   6.095 -0.5707  0.8350 -0.2237
 6518SOL    HW220463   3.476   5.969   6.048  0.1706  0.2206  2.5052
 6519SOL     OW20464   7.119   2.087   3.304  0.1313  0.1283  0.5681
 6519SOL    HW120465   7.123   2.117   3.213  0.3702  0.3666  0.6566
 6519SOL    HW220466   7.163   2.155   3.354  1.2720 -0.6677  0.6944
 6520SOL     OW20467   6.890   4.266   0.346  0.8547 -0.0340  0.2195
 6520SOL    HW120468   6.882   4.359   0.326  3.3334  0.3559  0.7192
 6520SOL    HW220469   6.948   4.232   0.278  0.5043 -1.0939  0.4324
 6521SOL     OW20470   7.194   5.023   6.161 -0.1532 -0.0199 -0.3903
 6521SOL    HW120471   7.134   5.058   6.095 -0.2137  0.8070  0.0828
 6521SOL    HW220472   7.167   5.066   6.243 -1.9024 -3.0838  0.7978
 6522SOL     OW20473   5.377   2.019   3.859 -0.4879 -0.0165  0.3428
 6522SOL    HW120474   5.400   2.028   3.767 -1.4819 -2.1305 -0.1541
 6522SOL    HW220475   5.316   2.092   3.875 -2.1463 -0.9577 -1.3273
 6523SOL     OW20476   1.659   5.430   5.164 -0.1661 -0.2068  0.0280
 6523SOL    HW120477   1.732   5.390   5.211  1.2616  3.9511  1.8243
 6523SOL    HW220478   1.683   5.423   5.072  0.8169 -1.7655  0.3525
 6524SOL     OW20479   5.519   3.960   3.578 -0.0318 -0.9032  0.0947
 6524SOL    HW120480   5.486   3.921   3.659  0.0741 -1.1059  0.0380
 6524SOL    HW220481   5.565   4.039   3.607  0.5934 -1.3307  0.2966
 6525SOL     OW20482   1.387   7.605   4.717  0.3652 -0.3265  0.6553
 6525SOL    HW120483   1.315   7.667   4.723  0.1401 -0.3026 -1.4467
 6525SOL    HW220484   1.345   7.519   4.712  0.5229 -0.3774  0.1898
 6526SOL     OW20485   4.481   0.031   6.727 -0.3174  0.4525  0.6011
 6526SOL    HW120486   4.543   0.054   6.658  0.4257  1.5179  1.5754
 6526SOL    HW220487   4.395   0.046   6.689  0.0548  0.3278 -0.3152
 6527SOL     OW20488   7.703   6.226   5.988  0.3145 -0.0574 -0.3217
 6527SOL    HW120489   7.638   6.160   6.012 -0.8751  0.5399 -1.7572
 6527SOL    HW220490   7.671   6.307   6.025  1.7618 -0.2133  1.4151
 6528SOL     OW20491   2.165   2.836   5.939 -0.0507 -0.2536 -0.3168
 6528SOL    HW120492   2.091   2.886   5.974 -0.5789 -1.3599  0.1894
 6528SOL    HW220493   2.221   2.821   6.015  1.4931  1.8393 -0.9475
 6529SOL     OW20494   6.856   1.743   0.255  0.3489  0.2205 -0.0199
 6529SOL    HW120495   6.884   1.787   0.175  0.8087 -1.1668 -0.6612
 6529SOL    HW220496   6.771   1.782   0.276  0.7384  1.3903 -0.5378
 6530SOL     OW20497   6.847   2.639   2.129 -0.0175  0.0384 -0.7593
 6530SOL    HW120498   6.916   2.672   2.186 -1.1393  3.2796 -1.0768
 6530SOL    HW220499   6.773   2.698   2.143 -1.8450 -1.6873 -2.3812
 6531SOL     OW20500   0.239   5.973   7.581 -0.0797  0.4127  0.4933
 6531SOL    HW120501   0.154   6.002   7.547 -1.1693 -0.7630  2.0724
 6531SOL    HW220502   0.221   5.948   7.671  1.4625 -2.0908  0.1860
 6532SOL     OW20503   1.509   5.160   1.395  0.3208 -0.4919  0.1924
 6532SOL    HW120504   1.419   5.193   1.401  0.6065  0.0434  2.3365
 6532SOL    HW220505   1.538   5.186   1.308 -1.0605  0.8316  0.0872
 6533SOL     OW20506   4.172   5.721   5.319  0.1030  0.7268  0.6178
 6533SOL    HW120507   4.132   5.724   5.232  1.1136  0.2743  0.1285
 6533SOL    HW220508   4.135   5.797   5.365  0.4704  1.6560 -0.5934
 6534SOL     OW20509   5.610   0.804   3.688  0.0168  0.2569 -0.0075
 6534SOL    HW120510   5.699   0.839   3.696  0.2707 -0.1677 -0.8291
 6534SOL    HW220511   5.579   0.795   3.778  0.4474  1.3100  0.2532
 6535SOL     OW20512   5.916   6.413   4.653  0.0764 -0.0803  1.0888
 6535SOL    HW120513   5.995   6.467   4.643  1.0176 -1.5433  0.3203
 6535SOL    HW220514   5.923   6.376   4.741 -0.5212  0.9395  1.5803
 6536SOL     OW20515   2.870   6.885   6.541  0.2702 -0.0647 -0.3025
 6536SOL    HW120516   2.854   6.874   6.447 -0.3026  1.2812 -0.3764
 6536SOL    HW220517   2.930   6.959   6.548  0.4758 -0.2869  0.3850
 6537SOL     OW20518   7.717   5.371   3.185  0.2386 -0.3445  0.0260
 6537SOL    HW120519   7.681   5.454   3.216 -1.3201 -1.0242  0.1097
 6537SOL    HW220520   7.720   5.380   3.090 -1.0226 -0.5895 -0.0542
 6538SOL     OW20521   5.565   3.288   6.422  0.6031 -0.6661  0.0905
 6538SOL    HW120522   5.613   3.332   6.492 -0.3011 -1.4014  1.2199
 6538SOL    HW220523   5.625   3.220   6.391  0.8330 -0.6569  0.5054
 6539SOL     OW20524   5.562   7.056   4.163  0.2524  0.1142  0.0666
 6539SOL    HW120525   5.475   7.094   4.152  0.3343  0.9126  1.8305
 6539SOL    HW220526   5.622   7.127   4.139  0.4128  0.1186  0.4817
 6540SOL     OW20527   5.518   5.988   1.794 -0.2356  0.1144 -0.1712
 6540SOL    HW120528   5.495   5.895   1.796  0.1020  0.0122 -0.7807
 6540SOL    HW220529   5.475   6.025   1.871  0.0911 -0.6554  0.3913
 6541SOL     OW20530   5.225   5.118   6.732 -0.4378  0.0281 -0.4408
 6541SOL    HW120531   5.249   5.026   6.726  0.2201  0.2479 -1.2893
 6541SOL    HW220532   5.241   5.141   6.823  1.3828 -0.1668 -0.6853
 6542SOL     OW20533   3.456   5.516   6.828 -0.0704 -0.3614  0.2371
 6542SOL    HW120534   3.464   5.588   6.766 -1.0660 -1.0488 -0.7176
 6542SOL    HW220535   3.458   5.559   6.914 -0.7500  0.8099 -0.3085
 6543SOL     OW20536   0.839   2.635   6.013  0.2241  0.1630  0.1712
 6543SOL    HW120537   0.856   2.615   5.921  1.3110  0.8636  0.2019
 6543SOL    HW220538   0.914   2.596   6.060 -0.9859 -1.3922  0.9333
 6544SOL     OW20539   3.519   7.160   6.515  0.5064 -0.4275 -0.1272
 6544SOL    HW120540   3.459   7.107   6.462  0.4119 -0.5956  0.1432
 6544SOL    HW220541   3.548   7.101   6.584  2.9010 -1.1183 -1.6169
 6545SOL     OW20542   0.041   1.339   7.371 -0.6269 -0.8506  0.0020
 6545SOL    HW120543  -0.033   1.390   7.340 -0.4404 -1.3610 -1.3259
 6545SOL    HW220544   0.015   1.310   7.459 -0.7092  1.5343  0.8504
 6546SOL     OW20545   4.342   7.686   3.113  0.0947 -0.5637  0.4120
 6546SOL    HW120546   4.410   7.621   3.094  0.6768 -0.3621  1.6997
 6546SOL    HW220547   4.372   7.765   3.069 -0.2325 -0.9644 -0.5366
 6547SOL     OW20548   6.842   1.794   5.246 -0.1052  0.0625  0.6062
 6547SOL    HW120549   6.817   1.853   5.317  0.1804  0.9997 -0.0481
 6547SOL    HW220550   6.921   1.834   5.209  1.5339 -1.9941  1.6582
 6548SOL     OW20551   6.803   0.904   2.041  0.2817 -0.8897  0.3853
 6548SOL    HW120552   6.829   0.880   1.952 -1.9095  1.3721 -1.0350
 6548SOL    HW220553   6.867   0.971   2.067 -0.5622  0.4085 -0.6882
 6549SOL     OW20554   6.943   4.990   5.262 -0.3937  0.4849 -0.4600
 6549SOL    HW120555   6.960   4.978   5.355  0.1593  0.5053 -0.5559
 6549SOL    HW220556   7.024   5.027   5.227 -0.4412  0.0777 -1.0264
 6550SOL     OW20557   1.593   1.356   0.152 -0.4123 -0.2109 -0.1756
 6550SOL    HW120558   1.546   1.438   0.167  0.6827  0.5034 -0.5971
 6550SOL    HW220559   1.524   1.289   0.151 -1.3788  0.7653 -0.4312
 6551SOL     OW20560   3.065   5.273   5.949 -0.6323  0.1988  0.0543
 6551SOL    HW120561   3.049   5.237   6.037 -0.7771 -0.2481 -0.1527
 6551SOL    HW220562   3.159   5.261   5.936 -1.0294 -2.3740 -0.9801
 6552SOL     OW20563   7.217   5.703   2.216 -0.3619 -0.0401 -0.9517
 6552SOL    HW120564   7.173   5.784   2.240  1.4864  0.2724  1.7877
 6552SOL    HW220565   7.163   5.633   2.253  0.5728  0.2732  1.1511
 6553SOL     OW20566   0.137   2.020   6.807  0.0043 -0.2016 -0.2069
 6553SOL    HW120567   0.175   1.933   6.810  0.6117  0.0688  0.1309
 6553SOL    HW220568   0.122   2.036   6.714 -0.2352 -0.7112 -0.2608
 6554SOL     OW20569   2.585   1.606   2.004 -0.6355  0.4689 -0.4996
 6554SOL    HW120570   2.561   1.591   1.913 -1.9709  0.7736 -0.2172
 6554SOL    HW220571   2.576   1.520   2.045 -0.9923  0.5275 -0.4525
 6555SOL     OW20572   6.356   7.289   1.513  0.2464 -0.0928 -0.4321
 6555SOL    HW120573   6.271   7.331   1.499  0.3371 -0.1192 -1.1109
 6555SOL    HW220574   6.359   7.219   1.448  1.4347  0.8956 -1.5005
 6556SOL     OW20575   4.079   0.085   5.220 -0.0546  0.3933 -0.2489
 6556SOL    HW120576   4.115   0.063   5.135  1.7459 -1.7670  0.9583
 6556SOL    HW220577   4.144   0.144   5.259  0.9384 -1.3423  0.8723
 6557SOL     OW20578   4.350   3.015   3.368 -0.1765  0.1512  0.2068
 6557SOL    HW120579   4.280   3.079   3.353 -0.3310 -0.4945 -2.1072
 6557SOL    HW220580   4.305   2.939   3.405 -0.5150  0.1461 -0.2108
 6558SOL     OW20581   3.856   2.196   6.977  0.3049  0.1527  0.1594
 6558SOL    HW120582   3.812   2.169   6.897  0.8224 -0.0666 -0.0574
 6558SOL    HW220583   3.809   2.152   7.047  0.9430 -1.0722 -0.1589
 6559SOL     OW20584   5.335   2.247   7.569  0.0991  0.2933 -0.1647
 6559SOL    HW120585   5.417   2.246   7.618 -0.3429  1.5620  0.6715
 6559SOL    HW220586   5.287   2.323   7.604 -1.6349 -0.6835 -0.2782
 6560SOL     OW20587   0.262   0.496   2.611  0.0054  0.3508  0.7662
 6560SOL    HW120588   0.233   0.473   2.699  0.7599  3.1922  1.8831
 6560SOL    HW220589   0.339   0.441   2.596  0.5304  0.5724  2.3870
 6561SOL     OW20590   7.691   6.318   7.529  0.1649 -0.2211  0.5293
 6561SOL    HW120591   7.658   6.369   7.455  0.9649 -1.1982 -0.5277
 6561SOL    HW220592   7.637   6.346   7.603  0.6166  2.2151  0.0258
 6562SOL     OW20593   2.719   4.702   6.249 -0.2883 -0.1683 -0.5493
 6562SOL    HW120594   2.807   4.666   6.238 -1.1912 -1.8095 -3.3316
 6562SOL    HW220595   2.734   4.793   6.276  2.1810 -0.9474  1.0137
 6563SOL     OW20596   4.055   4.679   1.652 -0.1495 -0.2350 -0.2793
 6563SOL    HW120597   4.068   4.686   1.557  0.6276 -2.4602 -0.3797
 6563SOL    HW220598   4.101   4.599   1.677 -1.2008 -0.2437  1.8303
 6564SOL     OW20599   3.733   5.807   1.378  0.2242  0.5472 -0.0480
 6564SOL    HW120600   3.771   5.862   1.447  3.8306  0.7355 -1.9439
 6564SOL    HW220601   3.702   5.870   1.312  2.1096  0.4390 -1.1084
 6565SOL     OW20602   0.906   7.131   0.573 -0.4032 -0.7824  0.1938
 6565SOL    HW120603   0.858   7.210   0.548  1.1658 -0.1590 -0.9928
 6565SOL    HW220604   0.843   7.080   0.624 -1.8623  0.6272 -0.1193
 6566SOL     OW20605   1.114   2.215   2.252  0.0269 -0.0295 -0.3372
 6566SOL    HW120606   1.039   2.182   2.301 -1.4544  3.3370 -0.0548
 6566SOL    HW220607   1.164   2.136   2.229 -1.6026 -2.1337  2.5933
 6567SOL     OW20608   0.504   2.101   1.723 -0.3449  0.4000 -0.0089
 6567SOL    HW120609   0.580   2.153   1.750 -0.8463  1.6067 -0.7891
 6567SOL    HW220610   0.504   2.107   1.628 -1.6653  0.8169 -0.0029
 6568SOL     OW20611   4.698   7.249   0.816 -0.2841  0.5689  0.5460
 6568SOL    HW120612   4.656   7.285   0.738  1.5033  2.1340  0.2274
 6568SOL    HW220613   4.769   7.194   0.782 -1.9418 -2.0895  1.0706
 6569SOL     OW20614   4.501   3.720   3.404 -0.0948 -0.4993 -0.1186
 6569SOL    HW120615   4.431   3.684   3.350 -0.5597  0.9934 -0.5575
 6569SOL    HW220616   4.460   3.735   3.489 -1.2858  3.0568 -1.1153
 6570SOL     OW20617   0.516   1.150   0.926  0.1724 -0.5950 -0.5425
 6570SOL    HW120618   0.443   1.097   0.894  0.7684 -1.0103 -1.2232
 6570SOL    HW220619   0.553   1.190   0.848 -0.3419  0.9627 -0.0426
 6571SOL     OW20620   2.633   5.000   3.747  0.5795 -0.4922 -0.0349
 6571SOL    HW120621   2.557   4.964   3.701  1.3836 -2.2727 -0.0545
 6571SOL    HW220622   2.621   4.973   3.838  1.1042 -0.6570 -0.0106
 6572SOL     OW20623   6.815   6.425   7.332  0.1641 -0.4568 -0.0420
 6572SOL    HW120624   6.859   6.474   7.402 -2.0544  1.3117  0.2121
 6572SOL    HW220625   6.786   6.493   7.271 -0.3424 -1.7616 -1.2854
 6573SOL     OW20626   4.807   4.375   0.383  0.8581  0.7165 -0.8958
 6573SOL    HW120627   4.823   4.456   0.334  1.0414 -0.3804 -2.7408
 6573SOL    HW220628   4.889   4.326   0.377  0.7233  0.3253  0.1329
 6574SOL     OW20629   4.784   4.873   3.031 -0.4539  0.0889  0.3042
 6574SOL    HW120630   4.779   4.960   2.991 -2.3773 -1.0665 -2.2576
 6574SOL    HW220631   4.856   4.830   2.986  0.2832  0.1821  1.3416
 6575SOL     OW20632   4.897   3.748   0.092 -0.5945 -0.4723 -0.2893
 6575SOL    HW120633   4.955   3.768   0.166  0.3313 -3.0102 -0.2489
 6575SOL    HW220634   4.899   3.827   0.038  2.1019 -0.1024  0.2271
 6576SOL     OW20635   0.641   6.016   7.304  0.2773  0.2095  0.4229
 6576SOL    HW120636   0.670   5.926   7.317  0.9101  0.3089 -0.2014
 6576SOL    HW220637   0.570   6.029   7.367  0.3399 -0.6485  0.6729
 6577SOL     OW20638   4.122   6.415   6.380  0.1915 -0.0534  0.4163
 6577SOL    HW120639   4.166   6.498   6.398 -0.4755  0.1795  1.0237
 6577SOL    HW220640   4.061   6.404   6.453 -1.4807  0.1269 -0.8919
 6578SOL     OW20641   7.417   4.808   1.200  0.3282  0.2297 -0.2300
 6578SOL    HW120642   7.335   4.765   1.226  0.7344 -0.3348  0.1352
 6578SOL    HW220643   7.456   4.748   1.136  0.4958  0.4611 -0.3448
 6579SOL     OW20644   1.303   0.639   3.989  0.1215 -0.2534 -0.6008
 6579SOL    HW120645   1.373   0.700   3.968 -0.7940  0.7378 -0.8591
 6579SOL    HW220646   1.238   0.693   4.034 -1.0315 -0.8809 -1.4773
 6580SOL     OW20647   7.710   5.822   0.352  0.2162 -0.5186  0.1662
 6580SOL    HW120648   7.676   5.851   0.437 -1.7385  0.1261 -0.7649
 6580SOL    HW220649   7.766   5.895   0.323  0.4155 -0.4819  0.6348
 6581SOL     OW20650   6.091   6.287   0.324  0.4868 -0.5334  0.7846
 6581SOL    HW120651   6.068   6.375   0.354 -1.0704 -0.8263  0.5527
 6581SOL    HW220652   6.011   6.255   0.280  1.6280 -1.3442 -0.8055
 6582SOL     OW20653   0.537   5.139   2.528 -0.2634  0.1870 -0.2141
 6582SOL    HW120654   0.463   5.183   2.486 -0.2933  1.6123  1.2560
 6582SOL    HW220655   0.520   5.046   2.514 -1.7064  0.5276 -0.9299
 6583SOL     OW20656   0.747   2.520   2.177 -0.5102  0.1213 -0.5558
 6583SOL    HW120657   0.679   2.492   2.239 -0.2638  1.2992  0.2749
 6583SOL    HW220658   0.829   2.487   2.214 -0.4743 -0.1596 -0.8730
 6584SOL     OW20659   5.528   5.771   3.978 -0.2176 -0.6160  0.3142
 6584SOL    HW120660   5.494   5.711   3.911 -0.6428  0.7177 -0.6961
 6584SOL    HW220661   5.620   5.747   3.986 -0.2488 -1.0479 -0.4761
 6585SOL     OW20662   3.916   7.642   0.704  0.3511 -0.2865 -0.3821
 6585SOL    HW120663   3.960   7.575   0.651  1.0150 -0.1871  0.0343
 6585SOL    HW220664   3.865   7.592   0.769  2.0088 -0.4102  0.8789
 6586SOL     OW20665   6.475   7.078   3.560 -0.3125  0.1295 -0.3645
 6586SOL    HW120666   6.431   7.162   3.547  0.0112  0.3798  0.1493
 6586SOL    HW220667   6.565   7.100   3.581 -0.2706 -0.3356 -0.0253
 6587SOL     OW20668   7.093   5.390   1.836  0.4000 -0.4132 -0.2019
 6587SOL    HW120669   7.092   5.431   1.750  0.6020  2.3325  0.9849
 6587SOL    HW220670   7.019   5.430   1.882  0.0191 -2.1562  0.7685
 6588SOL     OW20671   5.034   4.361   5.130 -0.1486 -0.1178  0.4280
 6588SOL    HW120672   4.989   4.423   5.073  0.4888 -0.0777 -0.0411
 6588SOL    HW220673   4.981   4.359   5.209  0.0868  1.3960  0.6507
 6589SOL     OW20674   2.475   7.575   2.567  0.7903 -0.3999 -0.1310
 6589SOL    HW120675   2.382   7.592   2.550  0.0843 -2.0692  1.6879
 6589SOL    HW220676   2.515   7.575   2.480 -0.9532  0.0735 -0.9917
 6590SOL     OW20677   6.186   4.730   3.761  0.0687  0.0385 -0.0042
 6590SOL    HW120678   6.190   4.824   3.744 -0.4263  0.2033  0.7290
 6590SOL    HW220679   6.267   4.711   3.808 -0.2265  0.2676  0.6051
 6591SOL     OW20680   2.041   7.164   6.235  0.1229 -0.3878 -0.5198
 6591SOL    HW120681   2.049   7.168   6.140  0.5741 -0.5258 -0.4888
 6591SOL    HW220682   2.068   7.251   6.265  2.1401 -1.0149 -0.3794
 6592SOL     OW20683   3.906   5.600   4.078 -0.0185  0.1508 -0.4153
 6592SOL    HW120684   3.941   5.681   4.041  0.8254  0.5913  1.2463
 6592SOL    HW220685   3.831   5.627   4.131  0.6771 -0.0414  0.6988
 6593SOL     OW20686   6.879   5.962   6.736 -0.0221 -0.4383  0.1694
 6593SOL    HW120687   6.867   6.002   6.822  0.8256  0.8084 -0.2598
 6593SOL    HW220688   6.803   5.990   6.686  0.6650  0.8823 -0.1909
 6594SOL     OW20689   2.373   4.392   4.288 -0.5603 -0.3112 -0.0008
 6594SOL    HW120690   2.297   4.364   4.338 -0.1604 -0.4910  0.5157
 6594SOL    HW220691   2.348   4.380   4.196 -1.1619 -0.3325  0.1639
 6595SOL     OW20692   6.893   1.532   3.802  0.0412  0.5451 -0.1043
 6595SOL    HW120693   6.938   1.602   3.755  0.9600  0.1122  0.0953
 6595SOL    HW220694   6.857   1.476   3.734  2.5511 -0.8489 -0.4114
 6596SOL     OW20695   7.476   2.163   5.913  0.1891 -0.2693 -0.5951
 6596SOL    HW120696   7.505   2.185   5.824 -1.1952 -1.6536 -1.4357
 6596SOL    HW220697   7.481   2.068   5.918  0.2088 -0.2196  0.8229
 6597SOL     OW20698   1.035   1.084   4.032  0.0357  0.2262  0.0194
 6597SOL    HW120699   1.106   1.129   3.987  0.1676  0.7405  0.7221
 6597SOL    HW220700   1.076   1.042   4.107 -0.3336  0.1746  0.1963
 6598SOL     OW20701   0.424   1.601   2.865  0.6700  0.7037 -0.1023
 6598SOL    HW120702   0.347   1.572   2.816  1.0103 -0.3222 -0.0491
 6598SOL    HW220703   0.438   1.691   2.836  0.4319  0.3568 -1.3749
 6599SOL     OW20704   3.009   5.519   0.578  0.1090  0.5049  0.2497
 6599SOL    HW120705   2.916   5.534   0.590  0.1344  0.1676  0.9131
 6599SOL    HW220706   3.023   5.527   0.484 -0.6943 -0.0502  0.0791
 6600SOL     OW20707   4.869   0.293   0.729  0.0896 -0.2145 -0.0669
 6600SOL    HW120708   4.957   0.279   0.693 -0.3452 -0.7214 -0.9675
 6600SOL    HW220709   4.828   0.207   0.727 -1.0119  0.2904 -1.2638
 6601SOL     OW20710   4.015   1.098   0.686 -1.1638  0.5079  0.3533
 6601SOL    HW120711   4.083   1.056   0.738 -0.8875  0.7380  0.1829
 6601SOL    HW220712   3.987   1.031   0.624 -0.4899  0.6715 -0.1377
 6602SOL     OW20713   3.426   7.558   6.338  0.5159 -0.0424 -0.3564
 6602SOL    HW120714   3.401   7.513   6.257  0.7176  0.9803 -1.0066
 6602SOL    HW220715   3.516   7.528   6.354  0.5411 -0.1129 -0.6146
 6603SOL     OW20716   4.927   2.854   6.426 -0.5664 -0.4119  0.2292
 6603SOL    HW120717   4.931   2.947   6.404  2.9631 -0.6732 -0.9700
 6603SOL    HW220718   4.948   2.809   6.344 -1.6403 -2.2484  0.9117
 6604SOL     OW20719   5.182   4.774   0.017  0.1042 -0.2985 -0.5054
 6604SOL    HW120720   5.251   4.721   0.057  0.1123 -0.1136 -0.2721
 6604SOL    HW220721   5.123   4.710  -0.022 -0.1765 -0.5087  0.2480
 6605SOL     OW20722   7.605   6.494   6.473  0.3127 -0.1065  0.3504
 6605SOL    HW120723   7.630   6.402   6.486  1.3021 -0.3904 -2.6772
 6605SOL    HW220724   7.559   6.518   6.553  2.9433 -2.1964  2.7010
 6606SOL     OW20725   1.855   6.105   6.628  0.2523 -0.2969 -0.5885
 6606SOL    HW120726   1.873   6.012   6.635  0.1447 -0.2374  0.6836
 6606SOL    HW220727   1.775   6.118   6.679  0.7427  0.6195 -0.0324
 6607SOL     OW20728   2.978   6.023   7.285  0.1126  0.0898 -0.8393
 6607SOL    HW120729   2.941   6.018   7.196 -1.0811 -0.2148 -0.3492
 6607SOL    HW220730   2.923   6.088   7.330  1.3480  1.0137 -0.5994
 6608SOL     OW20731   7.477   0.059   5.983 -0.6395 -0.1551  0.4155
 6608SOL    HW120732   7.509  -0.024   5.947 -2.6107 -0.1904 -1.4586
 6608SOL    HW220733   7.427   0.034   6.061  0.7931 -0.4435  1.2753
 6609SOL     OW20734   2.885   0.276   1.283  0.1371  0.4975 -0.1668
 6609SOL    HW120735   2.867   0.304   1.373 -0.4145  0.5143 -0.2797
 6609SOL    HW220736   2.980   0.280   1.275  0.2409 -0.1386  0.6244
 6610SOL     OW20737   3.140   5.255   2.651  0.6493  0.0131 -0.0823
 6610SOL    HW120738   3.123   5.347   2.670  1.6046  0.1766  0.0292
 6610SOL    HW220739   3.084   5.206   2.711  0.5337  0.5214  0.2211
 6611SOL     OW20740   0.745   0.272   3.590 -0.2258 -0.2790  0.4144
 6611SOL    HW120741   0.831   0.290   3.628 -0.5543 -1.0861  1.6065
 6611SOL    HW220742   0.763   0.248   3.499  1.1467 -2.8987  1.2588
 6612SOL     OW20743   0.497   3.998   4.349 -0.0155  0.3544 -0.1716
 6612SOL    HW120744   0.526   4.089   4.344  0.5627  0.1214 -1.3396
 6612SOL    HW220745   0.489   3.970   4.258 -1.3872 -0.4071  0.1473
 6613SOL     OW20746   0.989   6.702   3.673 -0.1967 -0.1111  0.0137
 6613SOL    HW120747   0.894   6.699   3.682 -0.2783 -0.9166 -0.8951
 6613SOL    HW220748   1.022   6.720   3.761 -1.1238 -1.3728  0.6378
 6614SOL     OW20749   6.427   7.354   3.075 -0.0706 -0.4422 -0.2668
 6614SOL    HW120750   6.468   7.271   3.051  1.8969 -0.3202  2.2585
 6614SOL    HW220751   6.490   7.421   3.048 -0.5995  0.0768 -0.2281
 6615SOL     OW20752   5.965   4.228   5.586  0.2926 -0.1303 -0.0127
 6615SOL    HW120753   6.002   4.140   5.577 -0.1398 -0.1341 -2.2764
 6615SOL    HW220754   5.883   4.215   5.635 -0.3753 -1.1870 -1.3590
 6616SOL     OW20755   0.123   0.482   6.691  0.5796  0.0183 -0.3127
 6616SOL    HW120756   0.049   0.525   6.648  0.5383 -0.3881 -0.6483
 6616SOL    HW220757   0.118   0.391   6.663 -0.6237 -0.7451  2.1208
 6617SOL     OW20758   1.284   5.625   0.028  0.0319  0.5281 -0.1850
 6617SOL    HW120759   1.290   5.551  -0.033 -2.2580  0.0205  0.1062
 6617SOL    HW220760   1.256   5.699  -0.026 -1.7124  0.1479  0.1438
 6618SOL     OW20761   1.533   0.176   6.495  0.4990 -0.4010  0.2899
 6618SOL    HW120762   1.556   0.086   6.517  0.8984  0.1239  2.2875
 6618SOL    HW220763   1.592   0.199   6.424 -0.0019 -1.8677 -0.6542
 6619SOL     OW20764   6.442   3.220   0.003 -0.3003  0.1162  0.2877
 6619SOL    HW120765   6.528   3.179   0.004 -0.7336 -0.8245  1.4594
 6619SOL    HW220766   6.437   3.267   0.087 -0.0393  2.1645 -0.7757
 6620SOL     OW20767   0.499   1.587   7.562  0.7560  0.4996  0.0178
 6620SOL    HW120768   0.483   1.651   7.632  0.2139  0.0358  0.3349
 6620SOL    HW220769   0.594   1.581   7.555  0.8164  0.4993  0.7732
 6621SOL     OW20770   5.191   6.993   5.241  0.3038 -0.3334 -0.5991
 6621SOL    HW120771   5.253   6.927   5.212  0.3527 -0.3497 -0.4590
 6621SOL    HW220772   5.121   6.944   5.284  0.0732 -0.3324 -0.9693
 6622SOL     OW20773   4.381   1.616   1.816 -0.0979  0.2939 -0.2111
 6622SOL    HW120774   4.426   1.663   1.887 -0.9202  1.7238 -0.5956
 6622SOL    HW220775   4.318   1.679   1.781  0.3277 -0.3334 -2.2702
 6623SOL     OW20776   0.305   5.171   6.126  0.0444 -0.4429 -0.0711
 6623SOL    HW120777   0.297   5.076   6.115 -0.9797 -0.2931 -0.7567
 6623SOL    HW220778   0.258   5.189   6.208  0.3454 -0.5380  0.1237
 6624SOL     OW20779   4.516   6.883   1.536 -0.2625  0.3304 -0.0625
 6624SOL    HW120780   4.532   6.805   1.482 -0.7499 -0.5037  0.9587
 6624SOL    HW220781   4.569   6.869   1.614  1.8180  2.3470 -0.9943
 6625SOL     OW20782   6.614   6.628   7.528  0.0632 -0.5811 -0.3813
 6625SOL    HW120783   6.632   6.537   7.505  0.2825 -0.4325 -0.8071
 6625SOL    HW220784   6.532   6.649   7.484  0.9267 -0.0291 -1.7961
 6626SOL     OW20785   1.381   1.232   3.014 -0.7275 -0.4253  0.4526
 6626SOL    HW120786   1.313   1.207   3.077  0.2117 -2.2536  0.8260
 6626SOL    HW220787   1.460   1.190   3.048  0.2515  0.3098 -0.8424
 6627SOL     OW20788   4.483   3.364   5.239 -0.3826  0.0913 -0.4218
 6627SOL    HW120789   4.437   3.285   5.268 -0.9419  0.5940  0.0999
 6627SOL    HW220790   4.568   3.332   5.209 -0.7809 -0.7667 -0.6860
 6628SOL     OW20791   6.570   3.688   4.653 -0.1613  0.0975 -0.2824
 6628SOL    HW120792   6.644   3.742   4.626  0.1723  0.4797  1.3120
 6628SOL    HW220793   6.609   3.615   4.701 -0.8376  0.7057  1.2397
 6629SOL     OW20794   7.249   6.534   2.960 -0.5168 -0.0736  0.6693
 6629SOL    HW120795   7.233   6.512   2.868 -0.1347 -2.3769  1.0982
 6629SOL    HW220796   7.162   6.554   2.995 -0.6748  0.7607 -0.1706
 6630SOL     OW20797   5.863   0.797   3.846 -0.6454  0.2165  0.2642
 6630SOL    HW120798   5.866   0.886   3.809 -2.0441 -0.4725 -1.7117
 6630SOL    HW220799   5.876   0.740   3.770 -2.3362 -1.2813  1.0391
 6631SOL     OW20800   7.674   6.566   3.201 -0.1863  0.3586 -0.1685
 6631SOL    HW120801   7.601   6.601   3.252 -0.8687  0.5698 -1.2689
 6631SOL    HW220802   7.752   6.594   3.248 -0.7636  1.7972 -0.0315
 6632SOL     OW20803   3.640   0.791   3.768  0.0078  0.0448  0.4718
 6632SOL    HW120804   3.611   0.831   3.686  0.1660 -0.3761  0.2124
 6632SOL    HW220805   3.559   0.780   3.819  0.0184  1.2035  0.7810
 6633SOL     OW20806   7.222   6.444   5.517  0.2166 -0.2213 -0.1097
 6633SOL    HW120807   7.293   6.492   5.560 -0.4794 -0.3901  1.2874
 6633SOL    HW220808   7.239   6.352   5.539 -0.7385 -0.2135  0.7552
 6634SOL     OW20809   1.200   0.202   2.294  0.3322 -0.1673 -0.3392
 6634SOL    HW120810   1.147   0.282   2.293  0.7414  0.1085 -0.5792
 6634SOL    HW220811   1.279   0.226   2.244  0.3228 -0.8134 -0.6712
 6635SOL     OW20812   4.454   4.009   0.969  0.3774  0.0012  0.4536
 6635SOL    HW120813   4.471   3.915   0.968  0.5186  0.0061  1.4618
 6635SOL    HW220814   4.540   4.049   0.953  0.0439 -0.0211 -1.8094
 6636SOL     OW20815   6.261   7.072   4.851  0.0529 -0.5729  0.4981
 6636SOL    HW120816   6.228   7.143   4.907  2.2002  0.8479  0.0944
 6636SOL    HW220817   6.354   7.069   4.870  0.5387 -1.2043 -1.7561
 6637SOL     OW20818   6.490   6.398   1.017 -0.5474 -0.1933 -0.4638
 6637SOL    HW120819   6.472   6.434   1.104  1.2978  1.1253 -0.5821
 6637SOL    HW220820   6.513   6.306   1.034 -2.0312 -0.4676  0.2066
 6638SOL     OW20821   2.675   0.333   7.255  0.5412  0.0077  0.1924
 6638SOL    HW120822   2.704   0.243   7.237 -0.0126 -0.2365  0.4845
 6638SOL    HW220823   2.583   0.334   7.227  0.4586  0.3927  0.4684
 6639SOL     OW20824   0.827   5.273   7.262  0.3618 -0.2104  0.2170
 6639SOL    HW120825   0.856   5.356   7.299 -0.2417 -0.0721  0.3841
 6639SOL    HW220826   0.778   5.297   7.183  0.4803 -0.4287  0.0739
 6640SOL     OW20827   7.686   5.646   4.388  0.5637  0.3470 -0.3403
 6640SOL    HW120828   7.667   5.667   4.297  1.0801  1.8761 -0.1108
 6640SOL    HW220829   7.662   5.553   4.396 -0.7581  0.5434 -1.6654
 6641SOL     OW20830   1.533   3.289   2.386  0.2692  0.3618  0.1604
 6641SOL    HW120831   1.445   3.327   2.387  1.0391  2.2542 -0.0891
 6641SOL    HW220832   1.586   3.349   2.439  1.6188 -0.1749 -0.5392
 6642SOL     OW20833   3.646   1.866   7.354  0.6297  0.0351 -0.4247
 6642SOL    HW120834   3.598   1.841   7.432 -0.4813  1.0345 -0.7619
 6642SOL    HW220835   3.733   1.828   7.366  0.9506  1.3641  1.9522
 6643SOL     OW20836   3.707   2.846   3.849 -0.5161  0.2543 -0.0593
 6643SOL    HW120837   3.731   2.765   3.804 -0.5345  0.0217  0.3446
 6643SOL    HW220838   3.736   2.832   3.939 -0.9014  0.5279  0.1080
 6644SOL     OW20839   3.224   0.671   3.200 -0.7889 -0.7185 -0.4578
 6644SOL    HW120840   3.220   0.597   3.140 -0.5196  0.2635 -1.7172
 6644SOL    HW220841   3.318   0.685   3.214 -0.8036  0.1504 -1.2032
 6645SOL     OW20842   6.662   6.228   6.779  0.0776 -0.2172  0.6231
 6645SOL    HW120843   6.701   6.266   6.858  0.0081  0.9438  0.1150
 6645SOL    HW220844   6.716   6.260   6.707 -0.5884 -0.2772  0.0882
 6646SOL     OW20845   4.565   5.209   7.597  0.1947  0.4661 -0.4848
 6646SOL    HW120846   4.529   5.128   7.561  0.8527  0.1547 -0.4572
 6646SOL    HW220847   4.636   5.181   7.654  1.1710  1.0985 -1.3375
 6647SOL     OW20848   4.609   3.491   1.191 -0.3909 -0.2667  0.0182
 6647SOL    HW120849   4.555   3.417   1.161  1.0850 -0.9455 -1.1007
 6647SOL    HW220850   4.697   3.454   1.199  0.4724  1.4602 -1.0033
 6648SOL     OW20851   3.942   3.297   3.661 -0.0541 -0.4469  0.5118
 6648SOL    HW120852   3.871   3.235   3.672  0.2515 -0.9055 -0.0927
 6648SOL    HW220853   3.907   3.365   3.603  0.5430 -1.5702 -1.2236
 6649SOL     OW20854   6.677   5.021   4.111  0.2007  0.3450 -0.3711
 6649SOL    HW120855   6.762   5.053   4.142 -0.7905  1.3026  1.5596
 6649SOL    HW220856   6.669   4.934   4.150 -1.1382  1.6289  2.5856
 6650SOL     OW20857   2.308   2.031   3.171 -0.3278 -0.2557 -0.8548
 6650SOL    HW120858   2.364   1.954   3.173  1.6321  1.0773 -1.3302
 6650SOL    HW220859   2.257   2.022   3.091 -1.3654 -1.8274 -0.0709
 6651SOL     OW20860   3.105   4.421   4.775 -0.1742 -0.2841  0.1412
 6651SOL    HW120861   3.100   4.440   4.869 -1.9106 -1.0120  0.2354
 6651SOL    HW220862   3.101   4.506   4.733  1.0671  0.0842  0.7113
 6652SOL     OW20863   4.223   2.380   1.494  0.2284 -0.1213  0.0325
 6652SOL    HW120864   4.284   2.437   1.539 -0.9891  0.1874  1.3709
 6652SOL    HW220865   4.186   2.325   1.564 -1.1218 -0.1874 -0.7055
 6653SOL     OW20866   4.083   2.033   3.263 -0.2762 -0.2484 -0.2617
 6653SOL    HW120867   4.114   2.000   3.179 -0.7289 -0.8173 -0.2100
 6653SOL    HW220868   4.037   1.959   3.303 -0.3888  0.1270  0.3233
 6654SOL     OW20869   2.355   4.010   2.377  0.1762  0.2007 -0.1496
 6654SOL    HW120870   2.433   4.028   2.428 -0.3147 -0.4250  0.8601
 6654SOL    HW220871   2.375   4.042   2.289  1.0337  1.3188  0.4345
 6655SOL     OW20872   5.435   3.540   6.204 -0.0507  0.2191 -0.2792
 6655SOL    HW120873   5.403   3.535   6.294 -3.3497  0.7597 -1.2911
 6655SOL    HW220874   5.462   3.632   6.193 -0.2768  0.3140 -0.0358
 6656SOL     OW20875   5.040   6.522   2.668  0.2755  0.4098 -0.1919
 6656SOL    HW120876   5.037   6.427   2.682 -2.4076  0.3933 -0.3123
 6656SOL    HW220877   4.963   6.555   2.714  1.1451  2.5498 -0.1822
 6657SOL     OW20878   1.393   4.248   0.563  0.3101  0.0727 -0.2860
 6657SOL    HW120879   1.361   4.338   0.560  1.8744  0.6360 -1.2027
 6657SOL    HW220880   1.322   4.196   0.526 -0.8193  0.8418  0.7352
 6658SOL     OW20881   1.984   2.421   3.746  0.0997 -0.2643 -0.5417
 6658SOL    HW120882   1.917   2.483   3.717 -0.0018 -0.7082 -1.2916
 6658SOL    HW220883   1.968   2.342   3.694  0.4326 -0.8092  0.1637
 6659SOL     OW20884   2.828   2.244   2.625 -0.0579 -1.0067  0.5313
 6659SOL    HW120885   2.845   2.326   2.579  1.7491 -1.4282  0.3944
 6659SOL    HW220886   2.744   2.259   2.670 -0.1072  0.6507 -0.0541
 6660SOL     OW20887   3.242   0.218   3.403  0.1237  0.3667 -0.0264
 6660SOL    HW120888   3.263   0.165   3.326 -2.3856 -0.9105  0.0538
 6660SOL    HW220889   3.320   0.271   3.418  1.1690 -0.2790 -2.6557
 6661SOL     OW20890   1.972   0.945   1.370  0.0628 -0.0977  0.4491
 6661SOL    HW120891   1.993   0.992   1.289  3.1442 -1.1027  0.5126
 6661SOL    HW220892   1.884   0.911   1.356  0.4958 -0.2890 -2.5512
 6662SOL     OW20893   3.783   1.029   1.888 -0.1779 -0.8393  0.6627
 6662SOL    HW120894   3.878   1.029   1.900 -0.2088 -0.9150  0.9105
 6662SOL    HW220895   3.770   0.988   1.802 -0.0084 -1.1966  0.8061
 6663SOL     OW20896   0.532   6.347   6.356  0.1506  0.6840  0.1679
 6663SOL    HW120897   0.465   6.406   6.322  1.5590  0.9442 -2.4415
 6663SOL    HW220898   0.499   6.259   6.338 -0.1390  0.7704  0.2747
 6664SOL     OW20899   3.107   2.568   6.857 -0.2792  0.1186 -0.2061
 6664SOL    HW120900   3.154   2.633   6.910 -1.0838  0.3169  0.2712
 6664SOL    HW220901   3.123   2.485   6.900  1.0675 -0.0828 -1.0286
 6665SOL     OW20902   1.527   3.020   5.031  0.3716  0.1796 -0.3497
 6665SOL    HW120903   1.498   3.058   5.114 -0.2108 -1.8825  0.4478
 6665SOL    HW220904   1.593   3.081   4.999  0.5287  1.1034  1.5732
 6666SOL     OW20905   2.992   7.225   3.451  0.1341 -0.3063  0.2358
 6666SOL    HW120906   2.950   7.139   3.441 -1.9376  0.5041  1.4377
 6666SOL    HW220907   2.937   7.272   3.514  0.8356  2.1390 -0.8510
 6667SOL     OW20908   6.077   5.136   6.494  0.2824 -0.4037 -0.1265
 6667SOL    HW120909   6.172   5.144   6.482  0.0481  0.0585 -1.8722
 6667SOL    HW220910   6.046   5.093   6.414 -1.0097 -0.3680  0.3304
 6668SOL     OW20911   0.953   6.104   1.413 -0.6214  0.0816  0.7880
 6668SOL    HW120912   0.895   6.127   1.485 -0.0179  0.4982  1.1463
 6668SOL    HW220913   0.985   6.188   1.379  0.4191 -0.1617  1.1324
 6669SOL     OW20914   3.416   5.918   6.857  0.1453  0.4803 -0.0855
 6669SOL    HW120915   3.465   5.995   6.885  1.5341 -0.6964  0.8125
 6669SOL    HW220916   3.417   5.922   6.761  0.7993  1.1888 -0.0537
 6670SOL     OW20917   2.726   4.047   4.083 -0.2952 -0.6759 -0.7170
 6670SOL    HW120918   2.720   4.047   3.987 -3.6119  0.0618 -0.6306
 6670SOL    HW220919   2.718   4.139   4.107 -1.1861 -1.0077  0.3086
 6671SOL     OW20920   0.701   0.597   7.151 -0.1724 -0.1304  0.1017
 6671SOL    HW120921   0.694   0.681   7.196  0.5421  0.0233 -0.0578
 6671SOL    HW220922   0.749   0.541   7.213 -0.3047 -0.2999  0.0514
 6672SOL     OW20923   5.883   1.396   1.573 -0.2201  0.1397 -0.0681
 6672SOL    HW120924   5.969   1.356   1.570 -1.2021 -2.2549  1.0843
 6672SOL    HW220925   5.827   1.330   1.615 -3.1571  0.5617 -2.9422
 6673SOL     OW20926   1.056   2.106   5.745 -0.1600 -0.0891  0.2159
 6673SOL    HW120927   1.081   2.197   5.725  2.2974 -0.3488  1.7427
 6673SOL    HW220928   0.978   2.115   5.800 -1.5978  0.9131 -1.8157
 6674SOL     OW20929   2.929   5.796   6.276 -0.1678  0.5834  0.4368
 6674SOL    HW120930   2.890   5.717   6.312 -1.3701  0.7847 -0.3751
 6674SOL    HW220931   2.890   5.806   6.189  4.5524 -1.3842 -2.3303
 6675SOL     OW20932   6.262   0.938   0.671 -0.1708 -0.9527  0.5397
 6675SOL    HW120933   6.193   0.942   0.604  0.0235  2.5351  0.3455
 6675SOL    HW220934   6.343   0.953   0.622  0.0737  0.6354  1.3407
 6676SOL     OW20935   0.656   5.235   2.774  0.0457 -0.2680 -0.0876
 6676SOL    HW120936   0.626   5.182   2.700  0.2914 -0.0509 -0.3468
 6676SOL    HW220937   0.686   5.171   2.838  1.4879 -0.4461 -0.8858
 6677SOL     OW20938   3.032   2.348   0.132 -0.3471 -0.2462 -0.3063
 6677SOL    HW120939   3.075   2.266   0.153 -0.9824 -0.2404  1.1129
 6677SOL    HW220940   2.939   2.325   0.123 -0.5787  0.3521  0.4366
 6678SOL     OW20941   5.535   0.587   2.239 -0.3314  0.5733 -0.1739
 6678SOL    HW120942   5.531   0.674   2.278  0.4547  0.8262 -0.6525
 6678SOL    HW220943   5.569   0.601   2.151  0.7750 -0.3131  0.0871
 6679SOL     OW20944   0.442   7.480   1.703 -0.5597  0.3218  0.1627
 6679SOL    HW120945   0.417   7.391   1.676  1.0798  0.5297 -2.4150
 6679SOL    HW220946   0.523   7.467   1.753 -0.2253  0.3496 -0.3616
 6680SOL     OW20947   5.885   6.550   4.226  0.8154 -0.3582 -0.0276
 6680SOL    HW120948   5.814   6.555   4.289  0.4430 -0.2039 -0.4534
 6680SOL    HW220949   5.937   6.629   4.242  1.3471 -0.8763  0.8194
 6681SOL     OW20950   5.816   3.800   1.081  0.0059 -0.7901 -0.1295
 6681SOL    HW120951   5.785   3.727   1.027  0.8550 -0.4783 -1.0755
 6681SOL    HW220952   5.805   3.769   1.171 -0.2372 -1.8311 -0.4940
 6682SOL     OW20953   1.330   0.123   6.990  1.2286  0.3897  0.1411
 6682SOL    HW120954   1.337   0.150   7.081  1.2940  0.1722  0.2015
 6682SOL    HW220955   1.306   0.203   6.942 -1.8783 -0.0468  0.7480
 6683SOL     OW20956   6.814   0.275   4.548  0.1443 -0.4852  0.1069
 6683SOL    HW120957   6.902   0.253   4.579  1.1662  0.6193 -1.8074
 6683SOL    HW220958   6.804   0.368   4.565 -0.1643 -0.3455 -0.7682
 6684SOL     OW20959   2.096   0.569   0.651  0.6991 -0.2484  0.0234
 6684SOL    HW120960   2.069   0.658   0.676  0.9988  0.1220 -0.9237
 6684SOL    HW220961   2.172   0.583   0.594  2.3336 -1.2119  1.8291
 6685SOL     OW20962   6.626   0.157   3.335 -0.4262  0.7037 -0.1788
 6685SOL    HW120963   6.637   0.243   3.295 -3.2713  2.1347  1.7610
 6685SOL    HW220964   6.597   0.100   3.264  0.1676  1.6766 -1.2267
 6686SOL     OW20965   2.435   2.833   2.583  0.0113 -0.5785 -0.0015
 6686SOL    HW120966   2.363   2.896   2.589 -0.2078 -0.9170  1.6489
 6686SOL    HW220967   2.392   2.749   2.569 -0.0346 -0.9201  1.9218
 6687SOL     OW20968   2.194   1.019   2.061 -0.1632 -0.0304 -0.1921
 6687SOL    HW120969   2.182   1.075   2.139 -0.2126  1.3461 -1.1484
 6687SOL    HW220970   2.263   1.062   2.011  0.8200 -1.6481 -0.2793
 6688SOL     OW20971   7.739   2.199   1.884  0.0528  0.5335 -0.6154
 6688SOL    HW120972   7.654   2.155   1.891 -0.3892  1.1272 -1.8094
 6688SOL    HW220973   7.790   2.143   1.826  0.0442  0.7789 -0.8644
 6689SOL     OW20974   3.770   2.605   3.719 -0.1542  0.4781 -0.3732
 6689SOL    HW120975   3.700   2.552   3.682  0.9179 -1.1731 -0.1341
 6689SOL    HW220976   3.848   2.551   3.710  0.5570  0.9495  2.1756
 6690SOL     OW20977   3.871   4.705   4.482 -0.2625  0.5220 -0.2409
 6690SOL    HW120978   3.850   4.614   4.462  0.5597  0.3135 -0.1996
 6690SOL    HW220979   3.967   4.709   4.480 -0.2756  1.3096  0.0886
 6691SOL     OW20980   6.964   1.065   1.757  0.4799  0.2595  0.0258
 6691SOL    HW120981   6.940   1.140   1.703  0.1344 -0.9583 -1.5864
 6691SOL    HW220982   7.027   1.101   1.820 -1.3915  2.3632  0.8421
 6692SOL     OW20983   1.798   0.376   3.569  0.1056  0.2254  0.0933
 6692SOL    HW120984   1.713   0.364   3.611  0.3452  0.6962  0.7409
 6692SOL    HW220985   1.779   0.420   3.487 -0.4465 -1.3848 -0.6894
 6693SOL     OW20986   3.677   1.233   4.422  0.3185  0.2345 -0.7698
 6693SOL    HW120987   3.608   1.168   4.412  0.4538  0.1771 -1.3889
 6693SOL    HW220988   3.722   1.233   4.337  0.6529  0.7518 -0.5964
 6694SOL     OW20989   2.075   6.365   4.465 -0.3720  0.0217 -0.0441
 6694SOL    HW120990   2.135   6.319   4.407  0.1109  0.3099  0.2165
 6694SOL    HW220991   2.015   6.297   4.496  0.9051 -0.6500  1.0757
 6695SOL     OW20992   5.819   2.482   5.808  0.7283 -1.0697  0.6740
 6695SOL    HW120993   5.874   2.541   5.757 -2.0201  0.2403 -1.0092
 6695SOL    HW220994   5.861   2.397   5.801  2.2296 -0.2500 -0.9826
 6696SOL     OW20995   6.955   6.326   3.123 -0.3248 -0.6548  0.6167
 6696SOL    HW120996   6.963   6.420   3.138  0.2035 -0.3143 -1.4075
 6696SOL    HW220997   7.045   6.293   3.126 -0.4106 -0.9180  0.4191
 6697SOL     OW20998   0.655   6.660   6.971 -0.0819 -0.5374 -0.0518
 6697SOL    HW120999   0.631   6.610   7.049  2.1007 -0.3327  0.8057
 6697SOL    HW221000   0.577   6.714   6.952 -0.0104  0.9315  3.2016
 6698SOL     OW21001   1.195   1.967   2.170  0.1472  0.4778 -1.0649
 6698SOL    HW121002   1.290   1.969   2.159  0.1625 -0.4285 -1.1733
 6698SOL    HW221003   1.177   1.879   2.205 -0.5470  1.0084 -0.0421
 6699SOL     OW21004   4.016   7.724   6.676  1.1364 -0.2888  0.1618
 6699SOL    HW121005   4.093   7.686   6.634 -0.3345  0.0229 -3.0924
 6699SOL    HW221006   3.989   7.795   6.618 -0.8906  0.4188  1.8457
 6700SOL     OW21007   6.571   7.192   1.887  0.8621  0.5746 -0.1286
 6700SOL    HW121008   6.649   7.201   1.832  1.5895  0.9000  0.9342
 6700SOL    HW221009   6.605   7.183   1.976 -0.3489  2.5101  0.5892
 6701SOL     OW21010   3.021   4.805   5.192  0.2847 -0.1702  0.5756
 6701SOL    HW121011   3.097   4.792   5.134  0.0774 -0.4546  0.3690
 6701SOL    HW221012   2.974   4.722   5.188  1.6076 -1.1398  3.1215
 6702SOL     OW21013   1.805   0.890   0.156  0.0942 -0.0238 -0.2358
 6702SOL    HW121014   1.720   0.874   0.197  0.2524 -0.6761 -0.1508
 6702SOL    HW221015   1.830   0.805   0.120  1.1927 -0.1021  0.6667
 6703SOL     OW21016   5.851   4.487   1.031 -0.8190 -0.0052 -0.1776
 6703SOL    HW121017   5.791   4.512   1.102 -0.2385  0.1468  0.2710
 6703SOL    HW221018   5.906   4.564   1.019  0.6279 -0.8319  0.8402
 6704SOL     OW21019   4.582   6.175   5.169  0.3617  0.6489 -0.7169
 6704SOL    HW121020   4.607   6.265   5.187 -0.5585  0.9228 -0.7503
 6704SOL    HW221021   4.654   6.122   5.204  0.3465  1.3467  0.4060
 6705SOL     OW21022   3.108   1.854   3.361  0.4845 -0.0961  0.0852
 6705SOL    HW121023   3.059   1.882   3.438 -0.2845  1.1671 -0.8227
 6705SOL    HW221024   3.140   1.936   3.322  0.0082 -0.6155 -1.4741
 6706SOL     OW21025   1.606   4.913   1.854 -0.5492 -0.2540  0.6495
 6706SOL    HW121026   1.560   4.937   1.773 -0.6588 -0.8952  0.5099
 6706SOL    HW221027   1.568   4.968   1.921 -1.3484 -0.5882  0.4838
 6707SOL     OW21028   2.197   6.536   4.626  0.0267 -0.2528 -0.1413
 6707SOL    HW121029   2.127   6.590   4.663  0.6276  1.7845 -1.7567
 6707SOL    HW221030   2.151   6.472   4.571 -0.6562 -0.7134  0.9355
 6708SOL     OW21031   5.381   5.343   3.639 -0.9134 -0.0867  0.0421
 6708SOL    HW121032   5.347   5.301   3.718 -1.0746  0.1022  0.0737
 6708SOL    HW221033   5.449   5.283   3.608  0.1527  0.5156  1.1115
 6709SOL     OW21034   0.993   2.447   2.226  0.4475  0.5761 -0.8330
 6709SOL    HW121035   1.032   2.475   2.143  0.1320  1.0112 -0.8435
 6709SOL    HW221036   1.041   2.369   2.251  0.7164  0.5909 -1.2997
 6710SOL     OW21037   2.984   6.329   2.817  0.1424  0.0108  0.2746
 6710SOL    HW121038   3.030   6.412   2.811  2.4397 -1.2566 -1.2556
 6710SOL    HW221039   3.053   6.263   2.824 -1.5833 -1.7818  1.9003
 6711SOL     OW21040   4.513   1.290   7.353  0.1387 -0.3133 -0.0069
 6711SOL    HW121041   4.459   1.368   7.342 -1.4681 -1.0552  2.0144
 6711SOL    HW221042   4.508   1.245   7.269 -1.7439  0.0784 -0.1414
 6712SOL     OW21043   6.210   1.045   4.551 -0.4152 -0.2868  0.0293
 6712SOL    HW121044   6.127   1.050   4.598 -0.5237  1.1624 -0.2588
 6712SOL    HW221045   6.212   0.956   4.514 -1.5622 -0.5297  0.5135
 6713SOL     OW21046   6.349   2.564   5.011 -0.1534  0.1427  0.0488
 6713SOL    HW121047   6.403   2.635   4.973 -0.7497  0.5860  0.0111
 6713SOL    HW221048   6.411   2.492   5.025  0.4043  0.5575 -0.2171
 6714SOL     OW21049   0.853   6.052   7.003  0.4571 -0.3687 -0.1883
 6714SOL    HW121050   0.918   6.013   7.061  0.1039 -1.9529 -0.8073
 6714SOL    HW221051   0.878   6.021   6.916 -1.2589 -1.2542 -0.4087
 6715SOL     OW21052   7.113   2.685   5.175  0.1542 -0.0718  0.3333
 6715SOL    HW121053   7.200   2.726   5.176  0.2088 -0.1877  0.3986
 6715SOL    HW221054   7.052   2.758   5.169  0.3045 -0.0578 -1.5755
 6716SOL     OW21055   5.683   2.581   6.250  0.1683  0.6717  0.5456
 6716SOL    HW121056   5.728   2.501   6.225  0.8151  0.7633  1.3848
 6716SOL    HW221057   5.728   2.650   6.201 -0.7303  0.4875 -0.5909
 6717SOL     OW21058   6.348   5.586   1.915 -0.1347  0.1788  0.8950
 6717SOL    HW121059   6.401   5.525   1.966 -0.6177 -0.1753  0.9834
 6717SOL    HW221060   6.411   5.639   1.866  0.2862 -0.5822  0.5994
 6718SOL     OW21061   2.220   5.152   4.489  0.3889  0.2232  0.6723
 6718SOL    HW121062   2.164   5.137   4.565 -0.9100  2.7224  0.3007
 6718SOL    HW221063   2.308   5.133   4.521 -0.3630 -1.1071  2.0898
 6719SOL     OW21064   7.274   3.375   4.049 -0.4469  0.6010 -0.6136
 6719SOL    HW121065   7.261   3.438   4.120  1.3216  1.5825 -1.0994
 6719SOL    HW221066   7.187   3.365   4.010 -1.0201  1.7137  0.3052
 6720SOL     OW21067   0.511   6.630   3.324  0.0296  0.0085 -0.0940
 6720SOL    HW121068   0.506   6.586   3.239  1.2464  1.9674 -1.2534
 6720SOL    HW221069   0.605   6.637   3.342 -0.1979 -1.8023  2.2612
 6721SOL     OW21070   6.717   6.486   6.063  0.0198  0.7441 -0.2167
 6721SOL    HW121071   6.654   6.525   6.124  0.7710  0.8158  0.5463
 6721SOL    HW221072   6.772   6.430   6.119  0.5174  0.5535 -0.8873
 6722SOL     OW21073   2.561   6.252   6.781 -0.5926 -0.3506  0.1328
 6722SOL    HW121074   2.603   6.329   6.819 -0.0989  0.8013 -2.5135
 6722SOL    HW221075   2.632   6.190   6.767 -0.9448 -1.2528  1.9779
 6723SOL     OW21076   4.862   7.620   4.214 -0.1513  0.2500 -0.2249
 6723SOL    HW121077   4.855   7.620   4.309 -0.6257 -0.9306 -0.2435
 6723SOL    HW221078   4.834   7.708   4.188 -2.1638 -0.1044  0.5959
 6724SOL     OW21079   0.241   6.561   5.769  0.1369 -0.5103 -0.0671
 6724SOL    HW121080   0.324   6.605   5.751 -0.2905  0.8460  1.0344
 6724SOL    HW221081   0.210   6.601   5.850 -1.2985 -1.4252 -0.1242
 6725SOL     OW21082   4.844   1.302   4.604  0.4851  0.1233 -0.1460
 6725SOL    HW121083   4.834   1.231   4.667  0.3666  0.3733  0.1248
 6725SOL    HW221084   4.836   1.382   4.657  0.0807  0.3398 -0.5195
 6726SOL     OW21085   3.022   0.912   4.930 -0.0317 -0.0141  0.5341
 6726SOL    HW121086   3.081   0.861   4.874 -0.0751  1.0113 -0.4971
 6726SOL    HW221087   2.945   0.928   4.875  0.0853  1.3513  0.7317
 6727SOL     OW21088   6.755   6.843   7.633 -0.2952  0.4654 -0.5831
 6727SOL    HW121089   6.691   6.913   7.645 -0.3292  0.1018  1.8721
 6727SOL    HW221090   6.703   6.768   7.605 -0.6455  0.7172 -0.6134
 6728SOL     OW21091   3.587   1.256   6.436 -0.0699 -0.3907 -0.3995
 6728SOL    HW121092   3.630   1.199   6.500  0.2764 -0.2377 -0.4915
 6728SOL    HW221093   3.527   1.198   6.389  1.1075 -0.9563 -1.2815
 6729SOL     OW21094   5.361   6.469   7.600  0.1524 -0.1338 -0.0894
 6729SOL    HW121095   5.278   6.501   7.566  0.4553 -1.0748 -1.8122
 6729SOL    HW221096   5.339   6.430   7.685 -1.1777 -0.4882 -0.5793
 6730SOL     OW21097   0.319   1.016   0.805 -0.6557 -0.1400  0.0271
 6730SOL    HW121098   0.251   1.009   0.738 -0.6012 -0.4074 -0.0030
 6730SOL    HW221099   0.319   0.931   0.848  0.3536 -0.5090 -0.6504
 6731SOL     OW21100   0.251   5.331   1.737  0.6224  0.2320 -0.0745
 6731SOL    HW121101   0.299   5.369   1.812  0.7811  0.7661 -0.4416
 6731SOL    HW221102   0.224   5.407   1.686  0.8745 -0.1516 -0.7840
 6732SOL     OW21103   4.661   1.192   5.685 -0.3841 -0.2848 -0.1973
 6732SOL    HW121104   4.615   1.201   5.601  0.3104  0.7447 -0.4909
 6732SOL    HW221105   4.744   1.149   5.662  0.7239  1.8227 -0.4218
 6733SOL     OW21106   5.493   6.934   3.612  0.3181 -0.2665 -0.1214
 6733SOL    HW121107   5.501   7.028   3.602 -0.3164 -0.2241 -0.2499
 6733SOL    HW221108   5.502   6.919   3.706 -1.8633  0.1755  0.2128
 6734SOL     OW21109   6.675   0.542   2.970 -0.2154  0.3729  0.2099
 6734SOL    HW121110   6.731   0.496   2.907 -3.1751 -0.8818 -1.7059
 6734SOL    HW221111   6.701   0.634   2.962  2.7194 -0.3190  0.7685
 6735SOL     OW21112   7.314   7.263   4.927  0.4656  0.1944  0.5752
 6735SOL    HW121113   7.388   7.316   4.954 -0.6910  2.1347  0.1426
 6735SOL    HW221114   7.284   7.303   4.845  0.6573 -2.2939 -0.8205
 6736SOL     OW21115   7.572   4.438   7.472 -0.4496  0.2071 -0.1408
 6736SOL    HW121116   7.625   4.512   7.502 -2.0235  0.7421  1.4753
 6736SOL    HW221117   7.502   4.477   7.421 -2.0504  0.0364  1.8132
 6737SOL     OW21118   7.399   6.066   2.623 -0.3553 -0.1794 -0.2079
 6737SOL    HW121119   7.487   6.084   2.657 -0.4192 -0.8652  0.3718
 6737SOL    HW221120   7.413   6.010   2.547 -0.3032 -1.1215  0.4662
 6738SOL     OW21121   2.347   6.782   4.676 -0.0074 -0.0845 -0.0649
 6738SOL    HW121122   2.390   6.801   4.593  0.2320 -0.3411 -0.0008
 6738SOL    HW221123   2.298   6.701   4.660  0.7541 -0.6248  0.2967
 6739SOL     OW21124   7.154   2.833   2.875 -0.5229 -0.1758  0.6865
 6739SOL    HW121125   7.110   2.748   2.875 -0.8598 -0.0222 -0.3571
 6739SOL    HW221126   7.246   2.812   2.893 -0.6440 -0.7457  0.6638
 6740SOL     OW21127   0.351   4.020   3.336 -0.1733 -0.0594 -0.2389
 6740SOL    HW121128   0.286   4.073   3.382 -0.7661 -0.3565 -0.7231
 6740SOL    HW221129   0.399   4.083   3.282  0.2330  0.2243  0.4497
 6741SOL     OW21130   4.678   3.535   5.335  0.2441  0.3956 -0.3728
 6741SOL    HW121131   4.607   3.542   5.271 -0.0355  1.7294  0.0393
 6741SOL    HW221132   4.739   3.472   5.298 -1.8371 -1.9134 -0.0756
 6742SOL     OW21133   6.899   1.998   6.261 -0.2309 -0.0963 -0.1251
 6742SOL    HW121134   6.838   2.050   6.208 -0.4752 -0.0215  0.2266
 6742SOL    HW221135   6.975   2.056   6.273  0.2312 -0.4516 -1.1700
 6743SOL     OW21136   0.464   4.690   7.066 -0.2553 -0.4908 -0.2095
 6743SOL    HW121137   0.458   4.682   6.971 -1.3859  0.9887 -0.3053
 6743SOL    HW221138   0.540   4.746   7.081  0.1067 -0.9740 -0.2111
 6744SOL     OW21139   3.584   3.263   7.346  0.0058  0.5136 -0.1759
 6744SOL    HW121140   3.578   3.302   7.259 -1.0686 -0.2089 -0.4436
 6744SOL    HW221141   3.674   3.232   7.352  0.0677  0.4928 -1.0546
 6745SOL     OW21142   0.019   3.591   5.662  0.4128  0.1762  0.0267
 6745SOL    HW121143   0.101   3.553   5.692  0.8877  0.1979 -1.1696
 6745SOL    HW221144  -0.005   3.538   5.586 -0.0655  0.8845 -0.3272
 6746SOL     OW21145   5.067   2.514   7.636  0.3437  0.1293  0.6606
 6746SOL    HW121146   5.100   2.590   7.589  2.0233 -0.2160  1.2106
 6746SOL    HW221147   5.135   2.493   7.699  0.5462 -2.5802 -0.3109
 6747SOL     OW21148   5.251   5.625   6.753  0.8807 -0.0021 -0.2655
 6747SOL    HW121149   5.207   5.709   6.762 -4.6155 -2.6050  1.8320
 6747SOL    HW221150   5.263   5.594   6.843  3.2234 -1.3593 -0.9432
 6748SOL     OW21151   3.275   3.525   2.246  0.6853  0.3456  0.3089
 6748SOL    HW121152   3.278   3.470   2.324 -0.9382  1.7903  1.4841
 6748SOL    HW221153   3.272   3.463   2.173  0.4065 -1.0821  1.4821
 6749SOL     OW21154   7.375   0.863   0.370  0.7028 -0.1307 -0.4275
 6749SOL    HW121155   7.399   0.852   0.462  0.9335 -0.4826 -0.5257
 6749SOL    HW221156   7.450   0.907   0.329 -0.0843  1.5847 -0.1090
 6750SOL     OW21157   0.601   3.020   5.316 -0.0768  0.0591  0.0699
 6750SOL    HW121158   0.579   3.042   5.226 -0.0327  1.8095  0.4479
 6750SOL    HW221159   0.561   2.934   5.330  0.4744 -0.5526 -1.7969
 6751SOL     OW21160   6.595   6.742   3.313  0.0581 -0.1852  0.3596
 6751SOL    HW121161   6.546   6.741   3.231  1.2695  0.2839 -0.3884
 6751SOL    HW221162   6.544   6.797   3.372  0.5089  1.6781 -0.9383
 6752SOL     OW21163   3.377   6.372   3.442  0.0914 -0.0685  0.0432
 6752SOL    HW121164   3.285   6.366   3.465 -0.5635  0.4646 -2.1979
 6752SOL    HW221165   3.388   6.310   3.369  0.9877  1.3067 -1.0484
 6753SOL     OW21166   5.380   3.958   3.829  0.1183 -0.4239  0.5074
 6753SOL    HW121167   5.358   3.982   3.919 -1.2648 -0.4630  0.2045
 6753SOL    HW221168   5.305   3.988   3.777  1.0701 -0.0292 -0.7023
 6754SOL     OW21169   4.723   6.805   0.202 -0.1265 -0.4162 -0.0454
 6754SOL    HW121170   4.691   6.755   0.126  0.4662 -0.1609 -0.4730
 6754SOL    HW221171   4.646   6.853   0.233 -0.7400 -1.6530  0.4417
 6755SOL     OW21172   3.945   0.145   4.250  0.5825  0.6094 -0.1623
 6755SOL    HW121173   3.958   0.073   4.188  1.1108  0.8107 -0.2887
 6755SOL    HW221174   3.860   0.126   4.291  0.0309  0.7090 -1.2421
 6756SOL     OW21175   3.802   5.003   5.666 -0.6547 -0.1243  0.1172
 6756SOL    HW121176   3.721   5.054   5.670 -0.7270 -0.3024  1.1364
 6756SOL    HW221177   3.782   4.922   5.711  0.0548 -0.2187  0.2760
 6757SOL     OW21178   2.498   2.105   0.110 -0.3844  0.0764  0.2954
 6757SOL    HW121179   2.542   2.112   0.195  0.3338  1.4400 -0.1502
 6757SOL    HW221180   2.409   2.135   0.125  0.1263  1.6553  0.3154
 6758SOL     OW21181   3.991   4.136   1.970  0.1026 -0.1316  0.3054
 6758SOL    HW121182   3.997   4.135   1.875  1.2097  2.7341  0.2403
 6758SOL    HW221183   3.908   4.092   1.990  0.5710 -2.1600 -1.8311
 6759SOL     OW21184   1.371   2.848   2.867 -0.4648 -0.1450 -0.2883
 6759SOL    HW121185   1.336   2.764   2.837  0.1507 -0.6137  0.2780
 6759SOL    HW221186   1.293   2.902   2.882 -0.8759 -0.6866 -0.4423
 6760SOL     OW21187   3.126   4.522   3.166  0.6003 -0.0732 -0.3794
 6760SOL    HW121188   3.134   4.560   3.079  2.3378 -2.0233 -1.1769
 6760SOL    HW221189   3.041   4.478   3.166 -0.1599  1.3567 -0.4461
 6761SOL     OW21190   3.814   6.455   4.589 -0.2383  0.1788 -0.1422
 6761SOL    HW121191   3.807   6.550   4.601  1.2293 -0.0433  3.9298
 6761SOL    HW221192   3.869   6.445   4.512 -1.8764  2.5069 -1.7862
 6762SOL     OW21193   0.271   6.894   5.081 -0.2873 -0.1910 -0.1133
 6762SOL    HW121194   0.323   6.871   5.158  0.2365 -0.8434 -0.6613
 6762SOL    HW221195   0.187   6.849   5.094 -0.0466 -0.6470 -0.1282
 6763SOL     OW21196   1.892   3.849   2.399 -0.1742  0.1576  0.3225
 6763SOL    HW121197   1.975   3.886   2.430 -0.3791 -1.0044  2.3939
 6763SOL    HW221198   1.827   3.880   2.462 -1.3265  0.8295 -1.1186
 6764SOL     OW21199   4.846   7.653   5.364 -0.5521 -0.3642  0.1829
 6764SOL    HW121200   4.832   7.573   5.414 -0.4310 -0.9511 -0.7028
 6764SOL    HW221201   4.804   7.637   5.279  0.9292 -0.1777 -0.6370
 6765SOL     OW21202   2.769   3.239   4.275 -0.2310  0.4626 -0.4567
 6765SOL    HW121203   2.681   3.243   4.312  0.8379 -0.8323  2.5238
 6765SOL    HW221204   2.798   3.148   4.290  2.3288  1.3439  0.6163
 6766SOL     OW21205   7.721   5.894   1.386  0.3473  0.0532 -0.7902
 6766SOL    HW121206   7.700   5.979   1.426  2.3497  1.2372 -2.1341
 6766SOL    HW221207   7.813   5.880   1.406  0.1498 -1.6672 -0.9203
 6767SOL     OW21208   6.597   4.671   4.064  0.1228 -0.2141  0.4920
 6767SOL    HW121209   6.627   4.585   4.091 -0.6824 -0.7642 -0.3007
 6767SOL    HW221210   6.538   4.654   3.990 -0.3680  0.9813  0.5796
 6768SOL     OW21211   5.316   3.531   3.453  0.0284  0.0928  0.7251
 6768SOL    HW121212   5.344   3.571   3.536 -1.9261  0.9122  1.0411
 6768SOL    HW221213   5.334   3.597   3.387  1.7128 -0.6119  0.4254
 6769SOL     OW21214   1.884   1.084   0.495 -0.4755 -0.1168 -0.2239
 6769SOL    HW121215   1.972   1.094   0.456 -0.9686 -1.4036 -1.7715
 6769SOL    HW221216   1.824   1.105   0.423 -1.4236 -1.9270 -0.0049
 6770SOL     OW21217   6.594   4.641   5.737  0.2141  0.4302 -0.1574
 6770SOL    HW121218   6.584   4.730   5.703 -0.1085  0.4211 -0.0935
 6770SOL    HW221219   6.504   4.610   5.751  0.3280  0.2099  0.1202
 6771SOL     OW21220   6.896   4.760   4.504 -0.0225  0.5214  0.1807
 6771SOL    HW121221   6.813   4.747   4.458 -1.0278 -1.3641  2.3570
 6771SOL    HW221222   6.938   4.674   4.503  0.7707  0.8773  1.1864
 6772SOL     OW21223   3.866   0.919   4.512  0.2851  0.2395  0.2619
 6772SOL    HW121224   3.897   0.905   4.422 -1.8091 -0.1230 -0.4562
 6772SOL    HW221225   3.874   1.013   4.526 -0.3082  0.4440 -0.6840
 6773SOL     OW21226   5.156   3.642   3.102 -0.1685 -0.0560 -1.3075
 6773SOL    HW121227   5.108   3.631   3.184 -1.0198  1.5679 -1.5370
 6773SOL    HW221228   5.093   3.619   3.034  0.5202 -1.3497 -1.5343
 6774SOL     OW21229   4.779   5.109   1.439 -0.0031  0.3149  0.1091
 6774SOL    HW121230   4.844   5.046   1.469 -0.0509 -0.0846 -0.5924
 6774SOL    HW221231   4.724   5.126   1.515 -0.1498 -0.6986  0.2358
 6775SOL     OW21232   7.268   6.302   3.484 -0.4496 -0.0655 -0.5040
 6775SOL    HW121233   7.179   6.335   3.492 -0.8038 -0.8074 -1.1609
 6775SOL    HW221234   7.313   6.332   3.563 -1.3732  0.0428 -0.0107
 6776SOL     OW21235   7.688   3.650   7.052  0.1076  0.6010  0.0679
 6776SOL    HW121236   7.662   3.743   7.051 -0.4044  0.4696  0.7130
 6776SOL    HW221237   7.614   3.605   7.092  0.5497 -0.0322  0.1826
 6777SOL     OW21238   5.705   3.866   5.064 -0.0799 -0.5072 -0.1568
 6777SOL    HW121239   5.762   3.923   5.116  3.0266 -2.1867 -1.4478
 6777SOL    HW221240   5.725   3.888   4.973 -1.3088 -1.3858 -0.6779
 6778SOL     OW21241   2.946   4.561   6.204  0.3871 -0.2363  0.3215
 6778SOL    HW121242   3.039   4.559   6.185  0.6449  1.0533  1.3072
 6778SOL    HW221243   2.933   4.490   6.268  1.5493  2.1112  3.4215
 6779SOL     OW21244   2.365   0.974   5.961 -0.4612  0.7659 -0.1756
 6779SOL    HW121245   2.320   0.927   6.031  2.1849  1.0281  1.8379
 6779SOL    HW221246   2.294   1.006   5.905 -2.5982 -1.0378  1.3157
 6780SOL     OW21247   5.500   5.351   1.712  0.4274 -0.2190 -0.2074
 6780SOL    HW121248   5.505   5.415   1.642  0.2662 -0.2518 -0.2508
 6780SOL    HW221249   5.480   5.268   1.668 -2.9458  0.2882  0.0688
 6781SOL     OW21250   7.322   0.461   4.654 -0.0611 -0.2877  0.0639
 6781SOL    HW121251   7.341   0.509   4.735 -0.3229 -1.8943  1.1172
 6781SOL    HW221252   7.301   0.530   4.591  1.3291  1.0913  1.0008
 6782SOL     OW21253   0.934   5.579   0.504  0.2620 -0.4598 -0.5627
 6782SOL    HW121254   0.868   5.510   0.493  0.2029 -0.2255 -1.8298
 6782SOL    HW221255   0.976   5.586   0.419  0.0482  1.2897 -0.5708
 6783SOL     OW21256   1.096   0.340   7.246 -0.0245 -0.2330 -0.2454
 6783SOL    HW121257   1.030   0.306   7.186  0.8597 -2.4151 -0.0415
 6783SOL    HW221258   1.062   0.321   7.333  0.6931 -1.0443 -0.1348
 6784SOL     OW21259   3.548   1.170   0.628 -0.1929  0.3220 -0.2034
 6784SOL    HW121260   3.461   1.139   0.655  0.3623 -1.7743 -0.6461
 6784SOL    HW221261   3.595   1.090   0.604  1.8181  1.4391 -0.1224
 6785SOL     OW21262   5.902   0.949   0.809  0.0207 -0.2669  0.2024
 6785SOL    HW121263   5.840   0.936   0.881 -0.4273 -0.4962 -0.2164
 6785SOL    HW221264   5.847   0.974   0.735  0.4051 -0.7466 -0.2487
 6786SOL     OW21265   5.470   2.718   0.951  0.1297  0.0301  0.1991
 6786SOL    HW121266   5.379   2.710   0.980  0.3138 -1.8212  0.3351
 6786SOL    HW221267   5.522   2.707   1.030  0.5043  0.2662 -0.0078
 6787SOL     OW21268   4.501   4.540   3.897  0.4041 -0.2353  0.5349
 6787SOL    HW121269   4.461   4.458   3.924  1.3617 -1.1466 -0.6725
 6787SOL    HW221270   4.508   4.591   3.978 -0.9351 -1.0054  1.1681
 6788SOL     OW21271   1.792   0.836   6.977  0.4207 -0.1034 -0.0027
 6788SOL    HW121272   1.758   0.871   6.895 -1.4264  0.1685  0.8308
 6788SOL    HW221273   1.773   0.903   7.042  2.4027 -0.0430  0.5995
 6789SOL     OW21274   1.395   4.165   3.092 -0.0057 -0.4694 -0.2427
 6789SOL    HW121275   1.466   4.229   3.098 -1.2732  0.8834  1.5598
 6789SOL    HW221276   1.363   4.156   3.181 -2.1937 -0.9157 -1.0050
 6790SOL     OW21277   7.368   2.712   0.220  0.2479  0.6635  0.9195
 6790SOL    HW121278   7.272   2.704   0.227  0.2089  1.7520  1.8355
 6790SOL    HW221279   7.381   2.788   0.164  0.5714  0.9243  1.3460
 6791SOL     OW21280   2.699   5.698   2.378 -0.3577 -0.5308  0.4148
 6791SOL    HW121281   2.711   5.622   2.321 -1.7476 -0.2462 -0.3109
 6791SOL    HW221282   2.725   5.772   2.324 -0.8693 -0.3312  0.4370
 6792SOL     OW21283   4.305   6.470   5.820 -0.4441  0.6599  0.0048
 6792SOL    HW121284   4.311   6.384   5.778  0.2149  0.9643 -0.5619
 6792SOL    HW221285   4.251   6.456   5.897  0.6866 -0.5420  0.6212
 6793SOL     OW21286   2.980   0.021   6.984  0.0012  0.3442 -0.1366
 6793SOL    HW121287   3.076   0.022   6.993 -0.0622 -1.3143  1.5054
 6793SOL    HW221288   2.963  -0.039   6.912  0.2046 -0.2273  0.2798
 6794SOL     OW21289   6.710   2.954   3.507  0.1194 -0.5180  0.0286
 6794SOL    HW121290   6.658   2.979   3.431  0.7046 -1.1336 -0.5813
 6794SOL    HW221291   6.699   2.859   3.514  0.5857 -0.5564  0.3208
 6795SOL     OW21292   5.845   2.830   4.377 -0.0536  0.1206 -0.2466
 6795SOL    HW121293   5.939   2.827   4.393 -0.0805  0.5025 -0.0135
 6795SOL    HW221294   5.813   2.903   4.430 -0.6079 -0.5183  0.3331
 6796SOL     OW21295   2.843   2.098   5.997 -0.9491 -0.4149  0.0707
 6796SOL    HW121296   2.895   2.031   5.952  1.2004  2.0307 -1.3591
 6796SOL    HW221297   2.769   2.113   5.939 -0.1301  0.1144 -0.8775
 6797SOL     OW21298   2.878   4.284   7.171 -0.1742 -0.0828  0.3771
 6797SOL    HW121299   2.840   4.361   7.128 -2.6407 -0.0940  2.2818
 6797SOL    HW221300   2.943   4.320   7.231  0.0048  0.3372 -0.0627
 6798SOL     OW21301   3.477   5.836   1.759  0.4031  0.2788 -0.3817
 6798SOL    HW121302   3.522   5.865   1.839  1.0401  1.8679 -1.2744
 6798SOL    HW221303   3.518   5.753   1.738  1.0119  0.3819  0.3311
 6799SOL     OW21304   4.763   3.079   3.094  0.0887  0.0622 -0.3035
 6799SOL    HW121305   4.706   3.111   3.164  0.2521 -0.1630 -0.0680
 6799SOL    HW221306   4.851   3.081   3.131  0.2106  0.2180 -0.6011
 6800SOL     OW21307   4.781   5.375   6.977  0.1355 -0.1402  0.5265
 6800SOL    HW121308   4.808   5.303   7.033 -0.1753 -2.0648 -1.6583
 6800SOL    HW221309   4.855   5.390   6.918 -0.1860  0.6722  0.3037
 6801SOL     OW21310   1.513   0.712   1.214 -0.2332 -0.4369  0.1179
 6801SOL    HW121311   1.461   0.672   1.284  2.5038 -2.6923  1.0410
 6801SOL    HW221312   1.555   0.639   1.170  1.3689  1.1998 -1.2280
 6802SOL     OW21313   1.375   2.381   5.940 -0.6606  0.6128  0.3146
 6802SOL    HW121314   1.469   2.370   5.952 -0.6742 -2.2333 -1.2800
 6802SOL    HW221315   1.337   2.356   6.025 -0.0234  0.2527  0.5015
 6803SOL     OW21316   0.619   7.264   5.275  0.3339  0.5903 -0.1610
 6803SOL    HW121317   0.540   7.316   5.262  0.1977  0.8957  1.6052
 6803SOL    HW221318   0.687   7.310   5.225 -0.1691  1.4583 -0.0614
 6804SOL     OW21319   0.568   3.181   7.133  0.0896 -0.7908 -0.1296
 6804SOL    HW121320   0.552   3.107   7.191 -2.1766 -0.0141  0.3512
 6804SOL    HW221321   0.509   3.167   7.059 -1.3164  1.0592  0.5472
 6805SOL     OW21322   4.803   5.902   6.982  0.0912 -0.3748 -0.0297
 6805SOL    HW121323   4.791   5.854   6.900  1.2780 -1.5652  0.4515
 6805SOL    HW221324   4.720   5.891   7.028 -0.9756  1.1981 -1.4678
 6806SOL     OW21325   3.371   5.465   3.118  0.1627  0.1886 -0.0308
 6806SOL    HW121326   3.421   5.383   3.113 -0.5432 -0.2123 -0.8284
 6806SOL    HW221327   3.365   5.495   3.027 -0.1714  0.7740  0.1786
 6807SOL     OW21328   0.005   0.181   5.772  0.5574 -0.1888  0.2673
 6807SOL    HW121329  -0.069   0.207   5.717  0.7128 -0.5426 -0.1144
 6807SOL    HW221330   0.079   0.229   5.737  0.5635 -0.0501  0.4712
 6808SOL     OW21331   0.612   1.802   1.676 -0.8988  0.1756 -0.3415
 6808SOL    HW121332   0.597   1.874   1.738 -0.9945  1.1910 -1.5234
 6808SOL    HW221333   0.696   1.823   1.635  1.2717 -2.5624  2.2037
 6809SOL     OW21334   1.889   2.727   6.095 -0.3892 -0.0459 -0.9373
 6809SOL    HW121335   1.981   2.707   6.114 -0.6928 -1.1210 -0.5217
 6809SOL    HW221336   1.884   2.822   6.097  0.7245  0.0277 -1.0167
 6810SOL     OW21337   5.211   0.105   3.439 -0.2758 -0.0089  0.4064
 6810SOL    HW121338   5.164   0.188   3.450 -0.1271  0.1158  0.1106
 6810SOL    HW221339   5.262   0.095   3.520  1.6888  1.4561 -0.5751
 6811SOL     OW21340   1.251   4.040   1.412  0.8295  0.0386  0.1787
 6811SOL    HW121341   1.253   4.116   1.470  0.0391  0.0426  0.2096
 6811SOL    HW221342   1.272   3.966   1.468 -0.5050 -0.0378  0.6289
 6812SOL     OW21343   0.699   0.960   5.541  0.3632  0.5417 -0.3425
 6812SOL    HW121344   0.667   1.027   5.482  1.1373  2.2854  1.1205
 6812SOL    HW221345   0.622   0.907   5.561  0.0858 -0.1287 -2.8468
 6813SOL     OW21346   2.780   3.029   2.648  0.3885 -0.2330 -0.0754
 6813SOL    HW121347   2.762   2.935   2.651 -0.6308 -0.0184  0.9313
 6813SOL    HW221348   2.875   3.034   2.638  0.4758 -1.3670  0.0384
 6814SOL     OW21349   6.046   7.647   3.662  0.4251  0.4275 -0.0157
 6814SOL    HW121350   6.064   7.736   3.692  0.3329 -0.0686  1.5997
 6814SOL    HW221351   5.957   7.651   3.627 -0.3671  0.5666  1.9093
 6815SOL     OW21352   7.017   0.246   1.438  0.2613 -0.2357  0.3912
 6815SOL    HW121353   7.024   0.220   1.347  0.9315  0.5701  0.1948
 6815SOL    HW221354   6.960   0.323   1.438 -0.2192 -0.5830  0.7307
 6816SOL     OW21355   0.609   0.831   7.264 -0.2544  0.0078 -0.5656
 6816SOL    HW121356   0.578   0.805   7.351  1.2386 -2.3112 -0.6278
 6816SOL    HW221357   0.532   0.866   7.220 -1.7181 -1.4012  0.7386
 6817SOL     OW21358   3.767   5.060   6.296  0.0011 -0.1011  0.1808
 6817SOL    HW121359   3.678   5.080   6.323 -0.3068 -1.5908  0.3877
 6817SOL    HW221360   3.780   4.969   6.324  0.7500 -0.7036 -1.9350
 6818SOL     OW21361   0.878   7.727   2.986  0.1573  0.1703 -0.2939
 6818SOL    HW121362   0.897   7.796   2.923  2.1808 -0.0650 -0.0102
 6818SOL    HW221363   0.887   7.646   2.936  0.0780  0.0384 -0.0964
 6819SOL     OW21364   1.322   4.436   5.544 -0.1758  0.8119  0.3878
 6819SOL    HW121365   1.340   4.527   5.520  1.3987  1.0828  2.3150
 6819SOL    HW221366   1.406   4.391   5.532  0.4716  0.7566  4.0263
 6820SOL     OW21367   6.346   5.873   7.714  0.2048 -0.5520  0.0710
 6820SOL    HW121368   6.382   5.792   7.679  0.3003 -1.0086  1.1775
 6820SOL    HW221369   6.343   5.859   7.809 -1.2758  0.1329  0.1609
 6821SOL     OW21370   0.874   6.704   7.578  0.2652 -0.1354  0.2181
 6821SOL    HW121371   0.952   6.759   7.570 -0.1093  0.2949 -0.6676
 6821SOL    HW221372   0.901   6.619   7.544  0.3892 -0.0217  0.0270
 6822SOL     OW21373   0.739   4.192   6.563  0.4970 -0.0820 -0.3261
 6822SOL    HW121374   0.824   4.164   6.528  0.3866 -0.0723 -0.5998
 6822SOL    HW221375   0.759   4.275   6.608  1.2180 -1.5134  2.2150
 6823SOL     OW21376   3.190   1.948   4.626 -0.2338  0.1370  0.4033
 6823SOL    HW121377   3.241   2.009   4.573 -0.0964 -1.4402 -1.3855
 6823SOL    HW221378   3.254   1.907   4.684 -0.3443  1.6945  1.6857
 6824SOL     OW21379   1.212   7.120   2.347 -0.7462  0.3032  0.4068
 6824SOL    HW121380   1.157   7.166   2.284 -0.4908  0.6315  0.4263
 6824SOL    HW221381   1.150   7.083   2.411 -0.8555  2.0320  1.3512
 6825SOL     OW21382   0.482   7.592   3.393 -0.2296 -0.0758 -0.0717
 6825SOL    HW121383   0.542   7.546   3.453 -0.5664  0.6329  0.8297
 6825SOL    HW221384   0.504   7.684   3.402 -0.6562  0.0881 -0.6358
 6826SOL     OW21385   1.955   2.490   2.027  0.0811  1.0001  0.3672
 6826SOL    HW121386   1.909   2.457   2.104  0.4528 -1.3156 -0.3359
 6826SOL    HW221387   1.939   2.425   1.959  0.7931  2.3549 -1.1845
 6827SOL     OW21388   5.431   4.023   1.707  0.4457  0.1961  0.1262
 6827SOL    HW121389   5.477   4.096   1.663  1.8124 -0.3058  0.6695
 6827SOL    HW221390   5.359   4.065   1.754 -1.8528  0.6822 -3.3845
 6828SOL     OW21391   6.011   0.495   0.217 -0.0348  0.1907 -0.2277
 6828SOL    HW121392   6.105   0.480   0.215 -0.3203 -1.8044 -2.2511
 6828SOL    HW221393   5.973   0.408   0.229 -1.6353  1.0342  1.2161
 6829SOL     OW21394   4.441   7.583   0.972  0.0991 -0.1729 -0.0458
 6829SOL    HW121395   4.495   7.643   0.921  0.5716 -0.3428  0.2456
 6829SOL    HW221396   4.440   7.620   1.060 -0.2671 -0.1687 -0.0514
 6830SOL     OW21397   5.526   0.400   4.547  0.1356  0.0235 -0.5090
 6830SOL    HW121398   5.473   0.463   4.594 -1.4440  0.6785 -2.9797
 6830SOL    HW221399   5.471   0.322   4.542  1.2580 -0.9036  0.7284
 6831SOL     OW21400   4.141   4.953   2.208 -0.4147  0.1889 -0.1395
 6831SOL    HW121401   4.094   4.977   2.128 -0.4115  0.1489 -0.1532
 6831SOL    HW221402   4.162   4.861   2.197  0.6414  0.4635 -0.6299
 6832SOL     OW21403   6.942   7.645   1.198  0.9242  0.0561 -0.3952
 6832SOL    HW121404   6.880   7.607   1.261  3.0999  2.0609  3.3552
 6832SOL    HW221405   7.011   7.579   1.190  0.0654 -0.7291 -1.8443
 6833SOL     OW21406   1.697   3.963   1.898  0.1861 -0.0530  0.7017
 6833SOL    HW121407   1.612   3.952   1.941  0.0445  1.5228  0.9041
 6833SOL    HW221408   1.761   3.958   1.969  0.1876 -0.3627  0.6775
 6834SOL     OW21409   0.726   3.616   5.709 -0.1113  0.5062  0.1504
 6834SOL    HW121410   0.737   3.633   5.803 -2.7771 -2.2415  1.1276
 6834SOL    HW221411   0.779   3.538   5.692 -0.7968  0.1201 -0.2460
 6835SOL     OW21412   7.582   4.217   6.842 -0.0103 -0.0295  0.5156
 6835SOL    HW121413   7.571   4.312   6.848  0.2738  0.0422 -0.0097
 6835SOL    HW221414   7.669   4.200   6.878  0.9129  0.1894 -1.4594
 6836SOL     OW21415   3.748   5.210   3.727 -0.0139  0.5428  0.0352
 6836SOL    HW121416   3.825   5.158   3.704  1.4710  0.6617  3.8894
 6836SOL    HW221417   3.784   5.295   3.754 -1.7088  1.2737  0.1497
 6837SOL     OW21418   0.906   6.924   4.241 -0.0416  0.3674  0.2585
 6837SOL    HW121419   0.982   6.945   4.294 -0.0655 -0.0626  0.4640
 6837SOL    HW221420   0.902   6.828   4.241 -1.0644  0.3981  0.9387
 6838SOL     OW21421   2.579   7.322   0.191 -0.2866 -0.1151 -0.0484
 6838SOL    HW121422   2.647   7.370   0.240  0.0902 -0.9828  0.2915
 6838SOL    HW221423   2.552   7.383   0.122 -0.2469  0.8259  0.7379
 6839SOL     OW21424   5.606   1.481   6.961 -0.3539  0.1126 -0.6323
 6839SOL    HW121425   5.618   1.449   7.051 -5.0773 -0.2850  0.1328
 6839SOL    HW221426   5.649   1.566   6.960  0.7189 -0.3157  1.6759
 6840SOL     OW21427   1.366   3.417   3.249 -0.1479 -0.6185  0.3536
 6840SOL    HW121428   1.442   3.360   3.261 -0.5887 -1.0475  1.2466
 6840SOL    HW221429   1.404   3.504   3.237  0.5247 -1.0480 -0.8062
 6841SOL     OW21430   6.687   4.144   4.187 -0.3887  0.0737 -0.1427
 6841SOL    HW121431   6.704   4.051   4.173  1.3860  0.0817  1.5446
 6841SOL    HW221432   6.671   4.151   4.281 -0.6713  1.4530 -0.2820
 6842SOL     OW21433   5.063   7.303   3.156  0.6878  0.4351 -0.5151
 6842SOL    HW121434   5.095   7.245   3.086  1.9927  2.0215 -1.3019
 6842SOL    HW221435   5.136   7.362   3.173 -0.0207  0.8335  1.4221
 6843SOL     OW21436   3.777   6.546   7.539  0.5694 -0.6047  0.0382
 6843SOL    HW121437   3.764   6.456   7.571  1.7387 -0.1363  1.9968
 6843SOL    HW221438   3.854   6.577   7.586  0.8189  1.0863 -1.4047
 6844SOL     OW21439   4.463   6.709   2.654  0.1745 -0.1684  0.1637
 6844SOL    HW121440   4.401   6.639   2.676  0.0986 -0.3537 -0.5994
 6844SOL    HW221441   4.531   6.665   2.603  1.7117 -0.2499  2.1475
 6845SOL     OW21442   5.669   4.143   0.131  0.1635 -0.1974 -0.3607
 6845SOL    HW121443   5.654   4.119   0.039 -2.5470 -0.7957  0.1439
 6845SOL    HW221444   5.743   4.089   0.158 -0.7686 -2.1556 -1.4645
 6846SOL     OW21445   7.712   5.370   1.028  0.0288 -0.3873 -0.5777
 6846SOL    HW121446   7.767   5.391   1.104 -2.6267 -0.5360  1.5247
 6846SOL    HW221447   7.694   5.277   1.037 -3.6346  0.2933  1.1701
 6847SOL     OW21448   2.931   0.043   1.938 -0.1771 -0.3642  0.3832
 6847SOL    HW121449   3.024   0.025   1.924 -0.0771  0.8628 -0.7975
 6847SOL    HW221450   2.930   0.118   1.998 -0.3314  0.6340 -0.8330
 6848SOL     OW21451   0.004   1.844   7.675  0.1925  0.3554 -0.1256
 6848SOL    HW121452   0.081   1.813   7.723  0.1397 -0.6091 -0.6305
 6848SOL    HW221453  -0.069   1.795   7.712 -0.3595  2.0236  1.0637
 6849SOL     OW21454   3.981   3.253   3.971 -0.4060  0.4081 -0.2087
 6849SOL    HW121455   4.018   3.165   3.972  0.4577  0.7649  0.1198
 6849SOL    HW221456   3.941   3.261   3.884  1.7942  0.5991 -1.2726
 6850SOL     OW21457   0.710   6.622   0.644 -0.3564 -0.4868 -0.0128
 6850SOL    HW121458   0.684   6.564   0.715 -2.4091  0.4612  0.1042
 6850SOL    HW221459   0.671   6.583   0.566 -0.4115 -0.1045 -0.1784
 6851SOL     OW21460   7.630   4.141   3.169 -0.2275 -0.8514 -0.0570
 6851SOL    HW121461   7.556   4.109   3.119 -0.9973  0.3681  0.2571
 6851SOL    HW221462   7.631   4.089   3.249 -0.6895 -0.9200 -0.0983
 6852SOL     OW21463   4.033   6.885   0.663  0.2306 -0.0865  0.6816
 6852SOL    HW121464   4.065   6.802   0.627 -1.2851  0.1268 -1.3781
 6852SOL    HW221465   4.035   6.945   0.589 -2.3752  0.6112  1.0718
 6853SOL     OW21466   2.045   0.399   1.799  0.0115  0.1134 -0.0408
 6853SOL    HW121467   2.129   0.401   1.844 -0.3594  1.0010  0.6307
 6853SOL    HW221468   2.045   0.477   1.744 -0.5955  0.4139  0.3778
 6854SOL     OW21469   0.130   1.760   4.267 -0.5629 -0.0121 -0.6478
 6854SOL    HW121470   0.217   1.735   4.295 -0.2375  0.3688 -1.2843
 6854SOL    HW221471   0.139   1.852   4.239 -1.3062  0.2385 -0.1145
 6855SOL     OW21472   3.478   4.785   4.023 -0.0643 -0.2099 -0.1920
 6855SOL    HW121473   3.472   4.857   3.960 -0.9809  0.2805  0.4488
 6855SOL    HW221474   3.443   4.820   4.105 -0.1797 -1.2670  0.2351
 6856SOL     OW21475   7.133   6.997   0.066  0.6391 -0.1065  0.0818
 6856SOL    HW121476   7.183   7.074   0.037  0.1660 -0.3036 -1.3399
 6856SOL    HW221477   7.198   6.940   0.107  1.7121 -0.5141 -2.0378
 6857SOL     OW21478   3.302   2.147   2.354 -0.2884 -0.2421  0.2927
 6857SOL    HW121479   3.306   2.083   2.425 -0.7659  0.5122  1.0241
 6857SOL    HW221480   3.375   2.207   2.371 -0.1997 -0.2510 -0.0452
 6858SOL     OW21481   4.558   3.615   2.284  0.1900  0.3992  0.1760
 6858SOL    HW121482   4.589   3.671   2.355  0.3597  1.1596 -0.4846
 6858SOL    HW221483   4.631   3.612   2.222 -0.6297  1.2854 -0.8585
 6859SOL     OW21484   2.793   6.064   3.248 -0.1718  0.0242 -0.4502
 6859SOL    HW121485   2.762   6.134   3.192  0.3439  0.4715 -0.1872
 6859SOL    HW221486   2.750   5.985   3.215 -1.0558  0.5228 -0.5011
 6860SOL     OW21487   5.612   0.315   7.096 -0.3346  0.1050  0.1663
 6860SOL    HW121488   5.649   0.403   7.109  2.3330 -0.9022  0.1073
 6860SOL    HW221489   5.615   0.275   7.183 -0.9368 -0.1453  0.0737
 6861SOL     OW21490   3.184   3.372   4.826  0.0968  0.4600 -0.1264
 6861SOL    HW121491   3.238   3.451   4.820 -0.3530  0.9046  1.2648
 6861SOL    HW221492   3.208   3.333   4.910  0.5839 -1.1187 -0.9665
 6862SOL     OW21493   6.458   2.655   0.038 -0.1577 -0.4117 -0.4599
 6862SOL    HW121494   6.442   2.563   0.018  1.0938 -0.5800 -0.7430
 6862SOL    HW221495   6.543   2.656   0.081  1.2206  0.8771 -2.9975
 6863SOL     OW21496   5.696   6.551   2.519 -0.3304  0.0076 -0.5298
 6863SOL    HW121497   5.704   6.456   2.510 -1.3272  0.0638 -2.7564
 6863SOL    HW221498   5.649   6.564   2.601 -0.2754 -1.4200 -0.2492
 6864SOL     OW21499   2.230   1.471   1.820 -0.7787 -0.3131 -0.2537
 6864SOL    HW121500   2.146   1.465   1.776 -0.1791  0.3868 -1.5435
 6864SOL    HW221501   2.221   1.415   1.897 -1.4975 -2.5066 -1.8335
 6865SOL     OW21502   0.503   7.372   4.398 -0.3314 -0.6893 -0.1722
 6865SOL    HW121503   0.546   7.363   4.314  0.9373 -0.3149  0.4221
 6865SOL    HW221504   0.465   7.460   4.397  2.2609  0.5434  0.7558
 6866SOL     OW21505   6.940   5.532   7.486  0.1880 -0.2192 -0.3371
 6866SOL    HW121506   6.973   5.497   7.569 -0.1520  0.7313  0.2183
 6866SOL    HW221507   6.960   5.625   7.490 -0.5946 -0.0128 -0.9468
 6867SOL     OW21508   7.392   1.839   3.964  0.3455  0.5379 -0.1545
 6867SOL    HW121509   7.419   1.912   3.908 -0.8937 -0.1921 -1.8147
 6867SOL    HW221510   7.296   1.844   3.965  0.1060 -1.9262 -1.6400
 6868SOL     OW21511   1.932   3.706   7.133 -0.1144  0.3913 -0.0941
 6868SOL    HW121512   1.974   3.784   7.097 -0.3033  0.6686  0.2884
 6868SOL    HW221513   1.848   3.736   7.165  0.5874  0.4281  1.8161
 6869SOL     OW21514   0.571   2.899   4.719 -0.3703 -0.0257  0.2219
 6869SOL    HW121515   0.488   2.896   4.670 -0.4415  0.8519  0.2785
 6869SOL    HW221516   0.638   2.898   4.652 -0.4502  0.2384  0.1362
 6870SOL     OW21517   3.960   5.820   7.693 -0.2627 -0.7561  0.1086
 6870SOL    HW121518   3.996   5.884   7.633 -0.5175 -0.4670  0.2620
 6870SOL    HW221519   3.954   5.865   7.777 -0.6338 -0.9109  0.1708
 6871SOL     OW21520   1.902   3.450   1.855  0.3805  0.3153  0.1156
 6871SOL    HW121521   1.821   3.468   1.902  0.7251  1.6285  0.2532
 6871SOL    HW221522   1.935   3.537   1.831  1.4656 -0.2263 -0.4152
 6872SOL     OW21523   5.821   7.554   1.641 -0.2280  0.2781  0.2050
 6872SOL    HW121524   5.852   7.517   1.723 -0.3735  0.3883  0.3097
 6872SOL    HW221525   5.766   7.485   1.603  0.5950 -0.1416 -0.2563
 6873SOL     OW21526   6.282   4.805   5.939  0.2091  0.0593  0.4502
 6873SOL    HW121527   6.277   4.721   5.893  0.7031 -0.9649  2.1537
 6873SOL    HW221528   6.373   4.831   5.933  0.3054 -0.1515  0.9483
 6874SOL     OW21529   2.550   1.323   4.669  0.4810  0.4112 -0.4024
 6874SOL    HW121530   2.530   1.400   4.616  1.5971  2.0090  1.3517
 6874SOL    HW221531   2.487   1.328   4.742  0.6743 -0.2600 -0.1836
 6875SOL     OW21532   1.935   7.021   2.816 -0.0421 -0.6546 -0.2784
 6875SOL    HW121533   1.935   6.954   2.748  3.0895 -0.3801 -0.6857
 6875SOL    HW221534   1.967   6.977   2.894 -0.5528 -0.2268  0.1862
 6876SOL     OW21535   2.752   0.859   1.983  0.4295 -0.0377  0.2787
 6876SOL    HW121536   2.767   0.908   1.903  0.4257 -0.8217 -0.2099
 6876SOL    HW221537   2.711   0.922   2.042  1.1422  0.7585 -0.0584
 6877SOL     OW21538   5.667   7.573   0.415 -0.6025  0.1139 -0.3866
 6877SOL    HW121539   5.681   7.562   0.509  0.2984  0.1768 -0.5091
 6877SOL    HW221540   5.574   7.555   0.403 -0.7018 -0.0150  0.4995
 6878SOL     OW21541   4.419   5.760   6.843 -0.2030  0.0542  0.2794
 6878SOL    HW121542   4.512   5.736   6.839  0.1350  0.7465  2.4724
 6878SOL    HW221543   4.419   5.853   6.864 -1.3636 -0.0740  0.9670
 6879SOL     OW21544   4.201   2.443   0.225  0.2361  0.2608 -0.1338
 6879SOL    HW121545   4.278   2.490   0.257 -0.5558  1.6282 -0.1639
 6879SOL    HW221546   4.217   2.432   0.131  1.0664 -0.8439  0.1079
 6880SOL     OW21547   0.051   7.273   6.799 -0.2998 -0.3435 -0.4172
 6880SOL    HW121548   0.078   7.251   6.710  2.3450  0.8647 -0.0078
 6880SOL    HW221549   0.025   7.365   6.794  1.7307  0.3196  0.3554
 6881SOL     OW21550   1.891   0.102   5.762  0.0287 -0.0914 -0.0439
 6881SOL    HW121551   1.924   0.171   5.705  2.0862 -0.0418  1.1022
 6881SOL    HW221552   1.915   0.131   5.850 -0.6396 -1.4580  0.6125
 6882SOL     OW21553   3.275   0.418   7.489 -0.3281 -0.3260  0.5868
 6882SOL    HW121554   3.306   0.386   7.574 -0.7307  1.2542  1.3698
 6882SOL    HW221555   3.201   0.475   7.511  1.0171  2.0012 -0.5945
 6883SOL     OW21556   3.056   4.634   4.605 -0.0101 -0.1800  0.1742
 6883SOL    HW121557   3.015   4.604   4.524 -0.9139 -0.1722  0.6122
 6883SOL    HW221558   2.996   4.701   4.639 -0.2215 -0.9393  1.3850
 6884SOL     OW21559   6.168   1.076   3.359 -0.3223 -0.2076 -0.6387
 6884SOL    HW121560   6.155   0.981   3.362 -0.5505 -0.1607 -0.0440
 6884SOL    HW221561   6.098   1.107   3.302 -0.1826 -0.4055 -0.9212
 6885SOL     OW21562   3.735   7.690   0.948 -0.1357 -0.5061 -0.2730
 6885SOL    HW121563   3.792   7.767   0.948 -0.8989  0.0916 -1.5426
 6885SOL    HW221564   3.784   7.625   0.998  1.5918  0.0425 -1.1389
 6886SOL     OW21565   3.858   5.967   2.301 -0.0090 -0.4181 -0.2723
 6886SOL    HW121566   3.815   5.881   2.301 -0.3123 -0.3083  1.6927
 6886SOL    HW221567   3.789   6.029   2.277 -0.8787 -0.3292  2.1495
 6887SOL     OW21568   3.719   0.963   2.348 -0.8114  0.6302  0.6760
 6887SOL    HW121569   3.639   1.000   2.311  0.4104  2.9303  0.1241
 6887SOL    HW221570   3.760   1.036   2.394  1.9377  0.1519 -0.7575
 6888SOL     OW21571   2.427   5.409   1.245 -0.3427  0.3353 -0.8168
 6888SOL    HW121572   2.415   5.450   1.331 -1.0625  0.8219 -1.1372
 6888SOL    HW221573   2.356   5.345   1.238  0.1810 -0.2537 -0.7302
 6889SOL     OW21574   4.520   6.415   2.233  0.3856  0.0205 -0.1674
 6889SOL    HW121575   4.540   6.343   2.293  2.8795  1.6679  1.1729
 6889SOL    HW221576   4.544   6.380   2.147  1.7734 -0.7552  0.4817
 6890SOL     OW21577   4.394   6.051   7.367  0.2969 -0.1981 -0.0189
 6890SOL    HW121578   4.382   5.958   7.384  1.4072 -0.2760  0.3552
 6890SOL    HW221579   4.488   6.065   7.367  0.1356  1.2669  1.8006
 6891SOL     OW21580   3.731   4.789   6.317  0.3972 -0.4528 -0.5631
 6891SOL    HW121581   3.818   4.759   6.290  0.2591  0.1979 -1.7787
 6891SOL    HW221582   3.670   4.732   6.269  0.1363 -1.0198  0.4111
 6892SOL     OW21583   2.689   7.197   4.212  0.8731 -0.4044  0.1413
 6892SOL    HW121584   2.782   7.177   4.216  0.7506 -1.1031 -0.2724
 6892SOL    HW221585   2.676   7.268   4.275  1.7146 -0.1677  0.0514
 6893SOL     OW21586   3.439   5.056   0.630  0.2727 -0.3798  0.1392
 6893SOL    HW121587   3.528   5.029   0.605  0.7093 -1.2053  2.2992
 6893SOL    HW221588   3.397   4.974   0.656 -0.6692  0.1961  0.4577
 6894SOL     OW21589   1.348   3.729   1.848  0.0130  0.6887 -0.0784
 6894SOL    HW121590   1.296   3.685   1.915 -1.0519  0.6586 -0.9145
 6894SOL    HW221591   1.395   3.797   1.896  1.3236 -0.9952  1.1574
 6895SOL     OW21592   6.549   2.737   1.722 -0.0445 -0.1265 -0.4927
 6895SOL    HW121593   6.522   2.650   1.692 -2.6225  0.1173  0.8334
 6895SOL    HW221594   6.474   2.793   1.704 -0.0856  0.9149  2.4218
 6896SOL     OW21595   6.502   2.566   5.302 -0.3424  0.5297  0.2545
 6896SOL    HW121596   6.495   2.651   5.259  0.0445  1.7293  2.4072
 6896SOL    HW221597   6.575   2.523   5.258  0.5067  1.9923  0.1740
 6897SOL     OW21598   7.565   6.832   3.241 -0.7195  0.1090 -0.3726
 6897SOL    HW121599   7.488   6.784   3.210  0.4634 -2.6488  0.6234
 6897SOL    HW221600   7.617   6.846   3.162 -1.7273  1.0830 -0.8947
 6898SOL     OW21601   2.411   0.658   4.790  0.2567 -0.1733  0.0296
 6898SOL    HW121602   2.325   0.616   4.797 -0.1407  0.6210 -0.0258
 6898SOL    HW221603   2.467   0.591   4.749 -0.2174 -0.8462  0.4656
 6899SOL     OW21604   5.532   5.542   4.234 -0.0323 -0.3284 -0.3297
 6899SOL    HW121605   5.561   5.620   4.187  0.1113 -0.0680  0.1844
 6899SOL    HW221606   5.532   5.568   4.326 -0.4999 -0.7726 -0.2009
 6900SOL     OW21607   1.055   3.440   5.850  0.1877  0.0331 -0.0855
 6900SOL    HW121608   1.053   3.488   5.933  0.8680  0.6368 -0.4106
 6900SOL    HW221609   0.981   3.379   5.856 -0.9174  1.3522  0.2001
 6901SOL     OW21610   5.102   0.247   4.034 -0.0967 -0.1579 -0.7850
 6901SOL    HW121611   5.118   0.337   4.060  0.3939 -0.6977  0.9410
 6901SOL    HW221612   5.056   0.208   4.109 -0.6346 -1.2530 -1.6433
 6902SOL     OW21613   7.353   5.981   0.350 -0.0090 -0.1757  0.5098
 6902SOL    HW121614   7.330   6.072   0.369  1.1611  0.3334 -0.3875
 6902SOL    HW221615   7.445   5.973   0.376  0.8450 -0.1994 -2.1991
 6903SOL     OW21616   0.294   4.601   4.688  0.0626  0.0232  0.4040
 6903SOL    HW121617   0.288   4.665   4.617  0.0449  0.9958  1.2558
 6903SOL    HW221618   0.310   4.654   4.767 -0.4140 -0.9882  1.2075
 6904SOL     OW21619   7.392   3.627   2.675 -0.4314 -0.1955  0.0675
 6904SOL    HW121620   7.313   3.580   2.651 -1.0799  1.0739 -0.3956
 6904SOL    HW221621   7.414   3.595   2.763 -0.1917 -2.1344 -0.6438
 6905SOL     OW21622   4.713   4.705   1.594 -0.7786 -0.5481 -0.6760
 6905SOL    HW121623   4.707   4.613   1.570  1.9875 -0.7639 -0.8716
 6905SOL    HW221624   4.805   4.718   1.618 -1.1283  2.1148 -0.4188
 6906SOL     OW21625   5.938   0.264   4.334 -0.2687 -0.6837 -0.7701
 6906SOL    HW121626   5.963   0.354   4.315 -2.5305  0.1012 -0.2530
 6906SOL    HW221627   5.843   0.264   4.332 -0.3379 -2.9284 -0.1105
 6907SOL     OW21628   7.236   4.064   7.613  0.1162 -0.5817  0.3534
 6907SOL    HW121629   7.301   4.103   7.555 -1.8872  0.2562 -1.4860
 6907SOL    HW221630   7.275   4.067   7.700  1.6446  1.8796 -0.3367
 6908SOL     OW21631   6.944   3.784   1.972  0.6270 -0.1435 -0.4918
 6908SOL    HW121632   6.956   3.739   1.889 -0.6819  1.7650 -1.7762
 6908SOL    HW221633   7.013   3.850   1.974  0.3171  0.1774 -0.3078
 6909SOL     OW21634   4.338   1.511   2.781 -0.5232  0.3316 -0.0898
 6909SOL    HW121635   4.290   1.586   2.817 -1.2040  0.1583 -0.6276
 6909SOL    HW221636   4.277   1.470   2.720 -0.5372 -1.2631  0.9301
 6910SOL     OW21637   3.464   2.021   6.288  0.7510 -0.1138  0.3190
 6910SOL    HW121638   3.393   2.023   6.224 -0.1013  1.0501  1.2605
 6910SOL    HW221639   3.454   1.937   6.333  0.9454 -0.6419 -0.6039
 6911SOL     OW21640   1.109   7.616   7.510  0.2620 -0.0744 -0.8089
 6911SOL    HW121641   1.201   7.631   7.533 -0.4108  2.7971  0.5462
 6911SOL    HW221642   1.077   7.555   7.577  0.7263  0.4673 -0.0780
 6912SOL     OW21643   5.386   3.212   5.327 -0.2601 -0.3032 -0.7777
 6912SOL    HW121644   5.356   3.277   5.391 -0.5668 -0.4893 -0.7271
 6912SOL    HW221645   5.389   3.259   5.244 -0.3016 -0.1764 -0.7075
 6913SOL     OW21646   6.973   2.492   1.382  0.3551 -0.3240  0.2642
 6913SOL    HW121647   7.049   2.464   1.331  2.1428  1.0420  1.9907
 6913SOL    HW221648   6.958   2.583   1.355 -0.5373 -0.5035  0.1137
 6914SOL     OW21649   7.193   3.565   5.079  0.2228  0.1070 -0.5024
 6914SOL    HW121650   7.204   3.481   5.123  0.4648  0.1132 -0.5473
 6914SOL    HW221651   7.123   3.609   5.127  1.2421  0.5872  0.5983
 6915SOL     OW21652   4.432   3.203   2.625 -0.0623 -0.3566 -0.3322
 6915SOL    HW121653   4.471   3.123   2.590  2.6140  0.3125  0.8708
 6915SOL    HW221654   4.465   3.272   2.568  0.1417  0.1822  0.4253
 6916SOL     OW21655   4.046   3.502   1.849 -0.1479  0.5367  0.3567
 6916SOL    HW121656   4.076   3.535   1.934  2.6980 -0.1136 -0.2906
 6916SOL    HW221657   4.126   3.497   1.796 -0.9418 -3.8026 -0.7851
 6917SOL     OW21658   3.449   6.251   6.289 -0.5804 -0.4892 -0.5296
 6917SOL    HW121659   3.381   6.236   6.224 -0.4667  0.3177 -0.8491
 6917SOL    HW221660   3.524   6.281   6.239 -0.1282 -0.9327 -0.1311
 6918SOL     OW21661   5.369   2.233   2.571  0.1259  0.2787  0.2639
 6918SOL    HW121662   5.453   2.225   2.617  1.1533  0.7926 -1.4250
 6918SOL    HW221663   5.360   2.150   2.525  1.5392  1.4793 -2.3883
 6919SOL     OW21664   1.139   2.465   4.367  0.1520 -0.3069  0.0937
 6919SOL    HW121665   1.149   2.370   4.364 -1.1355 -0.4461  0.0265
 6919SOL    HW221666   1.123   2.491   4.277  0.0823 -0.0754  0.1718
 6920SOL     OW21667   0.061   2.300   4.035 -0.0544 -0.1088  0.0055
 6920SOL    HW121668   0.025   2.233   3.977  0.0942 -0.0017 -0.2114
 6920SOL    HW221669   0.017   2.381   4.009  0.3128  0.0166 -0.2406
 6921SOL     OW21670   3.411   2.050   6.574 -0.3442 -0.6996  0.2182
 6921SOL    HW121671   3.438   2.069   6.484 -2.4150 -1.0321 -0.5340
 6921SOL    HW221672   3.336   2.108   6.588 -0.8412 -1.5653  1.2660
 6922SOL     OW21673   5.591   3.312   1.725 -0.2378  0.2199 -0.4174
 6922SOL    HW121674   5.637   3.386   1.684 -1.2123  0.1529 -1.6706
 6922SOL    HW221675   5.544   3.270   1.653 -0.0572 -1.3746  0.3558
 6923SOL     OW21676   1.406   2.643   5.615 -0.1706 -0.3883 -0.3333
 6923SOL    HW121677   1.313   2.628   5.597 -0.0900  0.3163 -1.3758
 6923SOL    HW221678   1.449   2.634   5.531  0.4779  1.0360 -0.1849
 6924SOL     OW21679   4.222   2.806   5.063  0.4592 -0.0124 -0.1378
 6924SOL    HW121680   4.260   2.890   5.037 -1.2178  0.8466  0.0382
 6924SOL    HW221681   4.228   2.752   4.984  2.0741  0.0472 -0.0861
 6925SOL     OW21682   0.288   0.920   4.070 -0.2057  0.3223 -0.2940
 6925SOL    HW121683   0.197   0.897   4.052 -0.5706  0.6668  1.0048
 6925SOL    HW221684   0.338   0.867   4.008 -1.2807  0.1902 -1.0885
 6926SOL     OW21685   2.155   0.469   6.815  0.2823  0.5764 -0.4219
 6926SOL    HW121686   2.168   0.559   6.844 -0.0704  0.6966 -0.6348
 6926SOL    HW221687   2.169   0.416   6.894 -1.2695  0.9365  0.1288
 6927SOL     OW21688   2.385   4.392   7.338  0.6591  0.3715  0.3827
 6927SOL    HW121689   2.385   4.486   7.322  0.3476 -0.0250 -2.4375
 6927SOL    HW221690   2.451   4.357   7.278 -0.1488 -1.3145  0.4146
 6928SOL     OW21691   6.895   3.841   6.744  0.4631 -0.2913 -0.3815
 6928SOL    HW121692   6.857   3.893   6.815 -1.3390 -1.6897 -0.2598
 6928SOL    HW221693   6.925   3.906   6.681 -1.6310  0.9635 -0.2034
 6929SOL     OW21694   4.895   1.160   6.035  0.3621 -0.2106 -0.0803
 6929SOL    HW121695   4.838   1.237   6.034  0.9425  0.2254 -0.3075
 6929SOL    HW221696   4.866   1.106   5.961 -0.6392 -0.6635  0.6156
 6930SOL     OW21697   2.735   2.910   6.198  0.1894  0.1556  0.4059
 6930SOL    HW121698   2.754   2.817   6.184 -0.5689 -0.5686  3.4938
 6930SOL    HW221699   2.759   2.952   6.115  1.3253 -2.6472 -0.8095
 6931SOL     OW21700   5.594   1.842   1.563 -0.3170 -0.1160  0.1841
 6931SOL    HW121701   5.629   1.845   1.652 -1.7899 -1.4338  0.8546
 6931SOL    HW221702   5.668   1.866   1.508  1.1437 -0.9877  1.6540
 6932SOL     OW21703   4.104   6.163   4.303  0.5748  0.4087  0.0779
 6932SOL    HW121704   4.105   6.112   4.383  0.3813 -2.2239 -1.4740
 6932SOL    HW221705   4.031   6.129   4.252  1.4099  1.1158 -1.7300
 6933SOL     OW21706   6.241   3.587   0.826  0.2473  0.3504  0.3254
 6933SOL    HW121707   6.281   3.674   0.838  1.4248  0.0484 -1.1572
 6933SOL    HW221708   6.152   3.606   0.794  0.0019  1.0037  1.3347
 6934SOL     OW21709   2.799   6.962   0.328 -0.1806 -0.4748 -0.2295
 6934SOL    HW121710   2.812   6.890   0.390 -0.8903 -1.1043 -0.7887
 6934SOL    HW221711   2.712   6.996   0.349  0.1333  0.1983  0.0009
 6935SOL     OW21712   3.712   3.423   2.863 -0.6198 -0.2550 -0.0753
 6935SOL    HW121713   3.656   3.366   2.811 -0.5671  0.5086 -1.0002
 6935SOL    HW221714   3.665   3.507   2.864 -0.2051 -0.0253  0.3934
 6936SOL     OW21715   4.980   3.081   0.784 -0.2785  0.4173  0.0661
 6936SOL    HW121716   5.057   3.046   0.829 -0.0850  2.6840  1.6621
 6936SOL    HW221717   5.015   3.124   0.706 -0.1338 -0.0312 -0.1169
 6937SOL     OW21718   2.943   4.192   4.689 -0.2361  0.0917 -0.2526
 6937SOL    HW121719   2.966   4.161   4.601 -0.2388  0.6397 -0.4510
 6937SOL    HW221720   3.019   4.243   4.717 -0.0269 -0.4929  0.2715
 6938SOL     OW21721   6.993   2.066   2.837  0.2358  0.2129  0.0899
 6938SOL    HW121722   6.946   1.984   2.853  1.0527  0.0881  2.2785
 6938SOL    HW221723   7.051   2.047   2.763 -0.0483 -0.9779  0.1611
 6939SOL     OW21724   6.751   5.622   2.875  0.0006  0.3820  0.3953
 6939SOL    HW121725   6.767   5.715   2.860  0.3006  0.4520  1.1271
 6939SOL    HW221726   6.837   5.582   2.873 -0.2070 -0.0684 -1.0211
 6940SOL     OW21727   6.945   4.193   4.089 -0.2102 -0.1534  0.5237
 6940SOL    HW121728   6.852   4.207   4.073 -0.3285 -1.5289 -0.1907
 6940SOL    HW221729   6.968   4.119   4.033  2.2517  2.4849 -2.3154
 6941SOL     OW21730   7.164   4.367   7.511  0.1210 -0.1081  0.3236
 6941SOL    HW121731   7.081   4.383   7.467  0.1567  1.2702  0.7220
 6941SOL    HW221732   7.156   4.279   7.547 -1.2334  0.0727  0.5076
 6942SOL     OW21733   6.878   3.014   4.733  0.2809 -0.3162 -0.0672
 6942SOL    HW121734   6.888   3.108   4.750  0.6146 -0.0346 -1.6656
 6942SOL    HW221735   6.957   2.974   4.769  1.1191  0.2881 -1.1835
 6943SOL     OW21736   1.027   6.487   2.233  0.0825 -0.0365 -0.0847
 6943SOL    HW121737   0.985   6.411   2.192  2.1463 -0.8931 -0.7243
 6943SOL    HW221738   1.059   6.539   2.160  0.9211  0.1206  0.3869
 6944SOL     OW21739   3.627   6.543   0.342  0.4391 -0.4020  0.1870
 6944SOL    HW121740   3.617   6.549   0.437 -1.2839  0.6638 -0.0092
 6944SOL    HW221741   3.582   6.462   0.319  0.9021 -0.6876  0.2747
 6945SOL     OW21742   6.775   3.240   5.667 -0.5782  0.5670 -0.0319
 6945SOL    HW121743   6.802   3.154   5.697 -0.8969  0.0631 -1.1385
 6945SOL    HW221744   6.734   3.281   5.743 -0.7738 -0.4104  0.3934
 6946SOL     OW21745   6.964   1.835   1.007 -0.1528 -0.1543 -0.5247
 6946SOL    HW121746   6.879   1.796   1.026  0.1860 -0.3778  0.6869
 6946SOL    HW221747   6.967   1.844   0.912 -0.8447 -1.7074 -0.7213
 6947SOL     OW21748   4.158   5.011   7.464  0.0589  0.8014 -0.0798
 6947SOL    HW121749   4.124   5.010   7.375  1.7971 -2.4665 -0.9027
 6947SOL    HW221750   4.115   4.937   7.507  1.0279  0.8162  0.9704
 6948SOL     OW21751   1.440   2.023   2.147  0.1423  0.4756 -0.1026
 6948SOL    HW121752   1.510   1.977   2.100  0.5640 -0.5569  1.4743
 6948SOL    HW221753   1.486   2.090   2.198 -0.2483  1.1767 -0.6546
 6949SOL     OW21754   4.489   4.858   1.524  0.1250 -0.5099  0.6114
 6949SOL    HW121755   4.411   4.829   1.572 -0.7455 -0.4588 -0.7194
 6949SOL    HW221756   4.551   4.785   1.533 -0.3091 -0.8167  1.1747
 6950SOL     OW21757   0.268   2.153   3.232 -0.1300 -0.4267 -0.8016
 6950SOL    HW121758   0.322   2.131   3.157 -0.0944 -2.6103 -0.1982
 6950SOL    HW221759   0.329   2.157   3.305 -0.3864  0.0639 -0.6115
 6951SOL     OW21760   0.408   0.422   3.383 -0.2675 -0.1102  0.3983
 6951SOL    HW121761   0.412   0.330   3.411 -2.1584 -0.1012  0.8681
 6951SOL    HW221762   0.496   0.456   3.401  1.2259 -2.3592 -1.9147
 6952SOL     OW21763   3.506   5.487   4.529  0.5280 -0.5950  0.0511
 6952SOL    HW121764   3.558   5.566   4.544 -0.1856  0.3255 -1.8754
 6952SOL    HW221765   3.563   5.431   4.476 -0.2777  0.3470 -1.9247
 6953SOL     OW21766   4.423   3.004   2.867  0.4389 -0.1747  0.3042
 6953SOL    HW121767   4.399   2.925   2.819  0.6804  0.1047 -0.2965
 6953SOL    HW221768   4.455   3.064   2.799 -2.0539  1.3822  0.3825
 6954SOL     OW21769   5.103   0.758   3.701  0.1168  0.1153 -0.4980
 6954SOL    HW121770   5.031   0.778   3.641 -1.0062  1.8645  1.3033
 6954SOL    HW221771   5.182   0.783   3.652 -0.6672  0.3715 -1.6756
 6955SOL     OW21772   3.442   0.898   5.380 -0.2065 -0.1753  0.0251
 6955SOL    HW121773   3.416   0.828   5.441 -1.1182 -1.1816 -1.4408
 6955SOL    HW221774   3.378   0.968   5.396 -1.4232 -1.0527 -0.8015
 6956SOL     OW21775   3.128   2.491   4.231  0.5816 -0.6463  0.1832
 6956SOL    HW121776   3.135   2.567   4.173  0.3093 -1.2291 -0.6160
 6956SOL    HW221777   3.193   2.429   4.198  1.8893 -0.1848  1.7532
 6957SOL     OW21778   1.348   3.938   2.623  0.1028  0.0589  0.2764
 6957SOL    HW121779   1.371   3.982   2.542 -1.6904  1.2748  0.3603
 6957SOL    HW221780   1.398   3.984   2.690  1.3965 -0.7855 -0.0807
 6958SOL     OW21781   1.663   1.704   7.593  0.1321 -0.0562  0.6176
 6958SOL    HW121782   1.598   1.730   7.528  0.4245 -1.8557 -0.4793
 6958SOL    HW221783   1.612   1.671   7.667 -0.2144  2.5598  1.6196
 6959SOL     OW21784   2.695   4.969   6.468  0.2070  0.5324  0.0678
 6959SOL    HW121785   2.655   5.029   6.405 -1.7546 -1.8899 -1.1951
 6959SOL    HW221786   2.650   4.989   6.551 -0.7552  0.5352 -0.4379
 6960SOL     OW21787   3.995   4.080   4.590  0.1026  0.1304  0.1177
 6960SOL    HW121788   4.066   4.025   4.622  1.7145  1.3830 -1.0882
 6960SOL    HW221789   3.978   4.141   4.662 -2.0953 -2.1484  1.6872
 6961SOL     OW21790   6.675   0.196   4.185  0.0285 -0.7598 -0.3139
 6961SOL    HW121791   6.700   0.147   4.106 -1.5074 -0.0704 -1.2760
 6961SOL    HW221792   6.705   0.140   4.258  0.9406 -1.7028 -1.3603
 6962SOL     OW21793   4.147   1.461   5.136  0.0627 -0.6971 -0.2798
 6962SOL    HW121794   4.225   1.504   5.170  0.5448 -0.5636 -1.5268
 6962SOL    HW221795   4.167   1.368   5.138  0.4070 -0.6382 -0.9709
 6963SOL     OW21796   0.442   3.570   3.257 -0.1658 -0.6170  0.4106
 6963SOL    HW121797   0.515   3.618   3.297 -0.8892 -0.7077  1.9175
 6963SOL    HW221798   0.465   3.564   3.164  0.7914  1.0887  0.4968
 6964SOL     OW21799   2.057   2.978   4.140  0.1165  0.0101  0.1260
 6964SOL    HW121800   1.993   2.944   4.078  1.3094  0.0042 -1.1785
 6964SOL    HW221801   2.014   2.973   4.225 -1.4031 -0.4532 -0.6309
 6965SOL     OW21802   7.700   4.908   0.931 -0.6841 -0.1814 -0.1205
 6965SOL    HW121803   7.644   4.973   0.889 -0.8050 -0.3413 -0.2091
 6965SOL    HW221804   7.681   4.827   0.885 -1.7008 -0.6157  1.0388
 6966SOL     OW21805   1.685   4.750   7.460 -1.0490  0.3275  1.0966
 6966SOL    HW121806   1.625   4.824   7.451  0.9773  1.8869 -0.9394
 6966SOL    HW221807   1.756   4.783   7.515 -0.4051 -0.2728  0.6569
 6967SOL     OW21808   4.717   6.728   7.150  0.2302  0.3776  0.1524
 6967SOL    HW121809   4.670   6.783   7.088  2.0218  0.0272 -1.6062
 6967SOL    HW221810   4.795   6.777   7.172  0.6183 -0.3827  0.5325
 6968SOL     OW21811   5.601   6.296   3.066  0.3412  0.5117  0.3327
 6968SOL    HW121812   5.598   6.201   3.080 -0.1394  0.1808 -1.7098
 6968SOL    HW221813   5.521   6.316   3.018  1.6137  1.5004 -1.5132
 6969SOL     OW21814   4.053   1.530   1.342 -0.1435 -0.4706  0.5196
 6969SOL    HW121815   4.138   1.540   1.385 -1.3121 -0.5670  2.9801
 6969SOL    HW221816   4.030   1.619   1.314  0.3445 -0.2975  0.6511
 6970SOL     OW21817   2.777   3.073   4.871 -0.1342 -0.5203 -0.2150
 6970SOL    HW121818   2.864   3.101   4.840 -0.6021 -0.0529 -1.1564
 6970SOL    HW221819   2.788   2.980   4.891  1.0412 -0.0601  1.4433
 6971SOL     OW21820   1.778   1.403   1.052 -0.5469  0.4174  0.7098
 6971SOL    HW121821   1.838   1.382   0.981 -1.6223  0.3668 -0.2121
 6971SOL    HW221822   1.697   1.430   1.009 -1.6787 -0.8929  1.8814
 6972SOL     OW21823   7.331   3.867   1.146  0.2491  0.8811  0.3783
 6972SOL    HW121824   7.244   3.834   1.169  1.1873 -1.3169  1.0460
 6972SOL    HW221825   7.316   3.957   1.120 -2.3773  0.2740 -0.5075
 6973SOL     OW21826   2.506   3.567   1.779 -0.0542  0.4573  0.3507
 6973SOL    HW121827   2.561   3.589   1.854  0.3639 -0.7385  0.4185
 6973SOL    HW221828   2.442   3.505   1.815 -1.1668  1.4615  0.1657
 6974SOL     OW21829   3.326   5.755   5.227  0.7155 -0.4297 -0.3533
 6974SOL    HW121830   3.344   5.798   5.143 -0.8548  4.3119  1.4270
 6974SOL    HW221831   3.233   5.735   5.224  0.9840 -1.7409 -0.2851
 6975SOL     OW21832   7.013   5.424   5.409 -0.5184  0.7659 -0.0649
 6975SOL    HW121833   7.041   5.511   5.380  0.2361  0.1209 -1.3812
 6975SOL    HW221834   6.930   5.409   5.364  0.0046  0.2995 -0.9168
 6976SOL     OW21835   6.308   4.650   4.173 -0.0837 -0.4326 -0.5839
 6976SOL    HW121836   6.354   4.573   4.141  0.3875 -0.0954 -0.7358
 6976SOL    HW221837   6.377   4.705   4.211 -0.6913 -1.2336  1.9048
 6977SOL     OW21838   1.917   7.570   1.019 -0.1838 -0.4570 -0.5710
 6977SOL    HW121839   1.929   7.477   1.002 -1.9483 -1.4513  2.7553
 6977SOL    HW221840   1.995   7.595   1.070  0.1707 -0.1302 -1.2541
 6978SOL     OW21841   3.876   2.978   5.512 -0.3948 -0.2578  0.5236
 6978SOL    HW121842   3.926   2.970   5.430 -0.3756  1.5540  0.3166
 6978SOL    HW221843   3.900   2.900   5.561  2.0125  0.0847  0.0679
 6979SOL     OW21844   5.682   3.681   1.840  0.0392  0.1563  0.0031
 6979SOL    HW121845   5.735   3.761   1.835  1.5139 -0.8551 -1.9221
 6979SOL    HW221846   5.594   3.709   1.816  0.3727  1.3288  0.0767
 6980SOL     OW21847   2.254   2.107   6.914 -0.7655  0.2223  0.3581
 6980SOL    HW121848   2.295   2.146   6.991 -0.3889 -0.9059  0.7364
 6980SOL    HW221849   2.271   2.171   6.844  1.6373 -0.1708  0.5109
 6981SOL     OW21850   7.595   0.565   0.161 -0.0454 -0.5081 -0.6255
 6981SOL    HW121851   7.579   0.639   0.103 -2.1993  0.3498  0.9202
 6981SOL    HW221852   7.541   0.494   0.125  0.4489 -0.7203 -0.9637
 6982SOL     OW21853   6.053   3.776   6.768 -0.3622  0.0601 -0.3417
 6982SOL    HW121854   6.078   3.785   6.860 -0.6968 -2.1427  0.0248
 6982SOL    HW221855   6.130   3.739   6.725 -0.7897 -0.6510 -0.5328
 6983SOL     OW21856   3.009   0.131   1.698 -0.0270 -0.2648 -0.0260
 6983SOL    HW121857   3.098   0.104   1.719  0.2752  0.5513 -0.2306
 6983SOL    HW221858   2.959   0.109   1.777  1.0459  2.5166  1.5869
 6984SOL     OW21859   3.109   6.610   6.806  0.6488 -0.1455 -0.2658
 6984SOL    HW121860   3.193   6.656   6.807  1.2461 -1.2404  0.2165
 6984SOL    HW221861   3.118   6.541   6.871  0.0508 -1.4743 -1.5586
 6985SOL     OW21862   7.235   5.827   5.677  1.0201 -0.5666 -0.2922
 6985SOL    HW121863   7.278   5.845   5.594  0.1894  0.9606 -0.4120
 6985SOL    HW221864   7.154   5.782   5.653  0.1736  0.9749 -0.4292
 6986SOL     OW21865   6.333   6.354   5.832  0.0442  0.9313 -0.3996
 6986SOL    HW121866   6.241   6.378   5.832  0.3514  2.1826 -1.2387
 6986SOL    HW221867   6.379   6.435   5.852  1.0871  0.9180 -2.5008
 6987SOL     OW21868   3.987   1.083   3.125  0.1808  0.2703 -0.0389
 6987SOL    HW121869   3.912   1.051   3.175  0.9796 -0.7720  0.5444
 6987SOL    HW221870   4.062   1.036   3.162  0.7721 -0.9060 -2.5124
 6988SOL     OW21871   0.272   7.478   1.331  0.1248  0.4124  0.6402
 6988SOL    HW121872   0.358   7.438   1.316 -1.2167 -1.9286 -1.6247
 6988SOL    HW221873   0.231   7.423   1.398 -0.4108  0.0988  0.0727
 6989SOL     OW21874   1.234   6.064   1.488 -0.0436 -0.2695  0.0331
 6989SOL    HW121875   1.269   6.147   1.456 -0.1429  0.2818  1.2735
 6989SOL    HW221876   1.176   6.033   1.419 -1.2072  1.4613  0.1777
 6990SOL     OW21877   7.718   2.115   3.853 -0.5502 -0.1756  0.1662
 6990SOL    HW121878   7.627   2.133   3.830 -0.6019 -1.3487 -0.6612
 6990SOL    HW221879   7.764   2.117   3.769  0.8081  3.3808  0.8200
 6991SOL     OW21880   0.535   6.558   4.617 -0.2284 -0.4741 -0.1211
 6991SOL    HW121881   0.566   6.643   4.584 -1.8512  0.4648  0.6389
 6991SOL    HW221882   0.476   6.526   4.548 -1.2777  0.0558  0.5124
 6992SOL     OW21883   4.754   5.404   1.539  0.0005  0.2691 -0.2543
 6992SOL    HW121884   4.748   5.498   1.552 -2.5319  0.0755  0.6066
 6992SOL    HW221885   4.737   5.366   1.625 -0.4783 -0.9742 -0.8647
 6993SOL     OW21886   4.794   3.615   2.201  0.1599 -0.3293 -0.2465
 6993SOL    HW121887   4.848   3.693   2.188 -0.0723 -0.2672 -0.9095
 6993SOL    HW221888   4.848   3.557   2.255  0.2613  0.3521  0.3925
 6994SOL     OW21889   2.956   1.022   5.192  0.1505  0.6260  0.0166
 6994SOL    HW121890   2.894   1.020   5.119 -1.7650  1.4830  1.5299
 6994SOL    HW221891   3.006   0.941   5.183 -0.6095  0.2986 -1.7405
 6995SOL     OW21892   2.925   5.603   2.524  0.3691  0.0557  0.0275
 6995SOL    HW121893   2.843   5.647   2.501  0.5495  0.7571  0.7006
 6995SOL    HW221894   2.937   5.537   2.455 -1.5434 -1.1193  0.7509
 6996SOL     OW21895   3.026   3.624   2.594  0.4264 -0.0856 -0.7468
 6996SOL    HW121896   3.011   3.682   2.520  2.2072  0.8594 -0.4365
 6996SOL    HW221897   3.093   3.668   2.646 -0.1316 -1.1500  0.9639
 6997SOL     OW21898   1.181   5.856   2.174 -0.2177 -0.2119 -0.3430
 6997SOL    HW121899   1.257   5.906   2.144  0.0464  0.0954  0.7802
 6997SOL    HW221900   1.216   5.800   2.244 -1.3115  1.1234  1.3406
 6998SOL     OW21901   5.275   5.571   7.071  0.0502 -0.1609  0.4737
 6998SOL    HW121902   5.200   5.606   7.120  0.2509  1.6682 -0.4493
 6998SOL    HW221903   5.344   5.563   7.136 -0.0898  0.9598  0.7938
 6999SOL     OW21904   3.582   7.733   1.669  0.5972 -0.2890 -0.3889
 6999SOL    HW121905   3.530   7.757   1.591 -1.3004 -0.1311  0.8461
 6999SOL    HW221906   3.667   7.774   1.654 -0.1263  0.8205 -1.8175
 7000SOL     OW21907   6.608   1.571   1.540  0.4063  0.7736 -0.1811
 7000SOL    HW121908   6.612   1.570   1.444 -1.1768  1.4750 -0.2871
 7000SOL    HW221909   6.654   1.652   1.564  0.3395  0.8705 -0.3750
 7001SOL     OW21910   6.396   4.085   0.363  0.6770 -0.1377 -0.1781
 7001SOL    HW121911   6.485   4.066   0.391  1.0505 -0.2346 -1.3611
 7001SOL    HW221912   6.399   4.079   0.267 -0.8376 -1.2636 -0.2078
 7002SOL     OW21913   7.032   2.769   0.583 -0.0750  0.5097 -0.1388
 7002SOL    HW121914   6.965   2.702   0.592  0.4825 -0.0541 -0.0906
 7002SOL    HW221915   7.063   2.784   0.673  0.4221  0.1718 -0.2459
 7003SOL     OW21916   1.889   5.844   1.159 -0.0342 -0.1121 -0.1549
 7003SOL    HW121917   1.954   5.852   1.089  0.0938  2.1457  0.1497
 7003SOL    HW221918   1.883   5.749   1.175  1.8800 -0.5049 -1.3726
 7004SOL     OW21919   2.275   0.384   1.947 -0.5083  0.2342 -0.5227
 7004SOL    HW121920   2.316   0.311   1.993  1.5758 -0.7714 -3.6333
 7004SOL    HW221921   2.298   0.461   1.998  1.7986 -0.7616  0.0448
 7005SOL     OW21922   3.023   5.738   3.751  0.0311 -0.0865 -0.0207
 7005SOL    HW121923   2.996   5.684   3.825 -4.3739  0.6493 -0.7862
 7005SOL    HW221924   3.040   5.824   3.790 -0.9569 -0.0380  0.3494
 7006SOL     OW21925   7.496   0.674   3.350 -0.1849  0.4318 -0.5930
 7006SOL    HW121926   7.557   0.700   3.419  0.6500  1.0717 -1.5421
 7006SOL    HW221927   7.483   0.580   3.363  0.0716  0.5186  0.3437
 7007SOL     OW21928   6.153   0.546   4.426  0.6881  0.2071  0.2979
 7007SOL    HW121929   6.115   0.531   4.340  0.7908 -0.2583  0.3320
 7007SOL    HW221930   6.199   0.465   4.447  1.4599  0.6490  0.3788
 7008SOL     OW21931   4.121   0.459   1.644  0.0203 -0.0700 -0.1685
 7008SOL    HW121932   4.124   0.539   1.591  0.2029 -1.0225 -1.6288
 7008SOL    HW221933   4.206   0.417   1.630 -0.8845 -1.6467 -1.2623
 7009SOL     OW21934   1.704   7.058   4.566  0.7634 -0.0230 -0.1488
 7009SOL    HW121935   1.654   6.976   4.565  1.2657 -0.3294 -0.1646
 7009SOL    HW221936   1.637   7.126   4.573  0.2632 -0.3785 -1.2737
 7010SOL     OW21937   6.229   5.857   1.794  0.4438 -0.3330 -0.2163
 7010SOL    HW121938   6.289   5.789   1.822 -1.0965 -1.3321  0.8124
 7010SOL    HW221939   6.276   5.905   1.726  2.5409 -0.7706  0.8602
 7011SOL     OW21940   3.782   6.974   0.760 -0.2248 -0.3044 -0.1565
 7011SOL    HW121941   3.759   6.978   0.668  0.2443 -0.7391 -0.2961
 7011SOL    HW221942   3.868   6.933   0.762 -0.6416 -1.2174  0.5282
 7012SOL     OW21943   4.381   2.411   6.092 -0.6939 -0.0710 -0.5857
 7012SOL    HW121944   4.292   2.410   6.056 -1.0508  0.0438  0.2637
 7012SOL    HW221945   4.368   2.411   6.187  0.1302  2.6296 -0.3787
 7013SOL     OW21946   2.301   4.297   3.424 -0.9474  0.7471  0.4954
 7013SOL    HW121947   2.349   4.314   3.343  0.4247  0.8783  1.2987
 7013SOL    HW221948   2.325   4.207   3.447 -0.2764  1.1451  1.4183
 7014SOL     OW21949   3.678   3.892   4.084 -0.3311 -0.7277  0.3707
 7014SOL    HW121950   3.588   3.912   4.107 -1.1248 -2.3340 -1.1581
 7014SOL    HW221951   3.707   3.832   4.153 -1.1693 -1.8887 -0.2512
 7015SOL     OW21952   0.776   5.375   0.568 -0.2619 -0.7111  0.2040
 7015SOL    HW121953   0.808   5.372   0.658 -2.5426  1.7110  1.2285
 7015SOL    HW221954   0.680   5.370   0.576 -0.6516  1.4262 -1.8710
 7016SOL     OW21955   3.980   6.071   6.003  0.2635  0.1601 -0.0392
 7016SOL    HW121956   3.891   6.046   6.030  0.7481 -1.7014 -0.0936
 7016SOL    HW221957   4.014   6.119   6.079 -0.0694 -0.9254  0.8353
 7017SOL     OW21958   3.976   3.034   0.608 -0.0127 -0.1029 -0.2183
 7017SOL    HW121959   3.930   2.952   0.593  0.3620 -0.6547  1.3833
 7017SOL    HW221960   4.028   3.048   0.529  0.7063 -1.9636 -0.1260
 7018SOL     OW21961   3.494   6.575   5.848 -0.4390 -0.2256  0.2250
 7018SOL    HW121962   3.551   6.648   5.823 -0.3883 -0.2534  0.2568
 7018SOL    HW221963   3.526   6.501   5.795  1.7408 -1.1203  2.5407
 7019SOL     OW21964   3.951   0.867   0.514  0.2553  0.4871 -0.1006
 7019SOL    HW121965   3.945   0.817   0.595 -0.0548 -1.4298 -1.2300
 7019SOL    HW221966   4.043   0.865   0.490  0.2185  0.3257 -0.2285
 7020SOL     OW21967   0.800   1.601   1.726 -0.1139  0.1029 -0.2525
 7020SOL    HW121968   0.710   1.633   1.730 -0.2462 -0.2662 -0.2399
 7020SOL    HW221969   0.796   1.513   1.764  0.6546  0.9436  1.9848
 7021SOL     OW21970   5.516   5.349   7.193 -0.1447 -0.0576 -0.2216
 7021SOL    HW121971   5.520   5.335   7.098 -0.2797 -0.1444 -0.2163
 7021SOL    HW221972   5.535   5.263   7.230  2.7451  0.5416 -0.0983
 7022SOL     OW21973   1.892   5.057   6.581  0.2480  0.6159 -0.3680
 7022SOL    HW121974   1.857   4.992   6.519 -1.3156 -0.3722  1.4358
 7022SOL    HW221975   1.829   5.058   6.653  2.7731  0.4890  2.0118
 7023SOL     OW21976   5.089   3.288   7.185  0.3478 -0.2884 -0.3368
 7023SOL    HW121977   5.085   3.365   7.128 -1.3143 -0.4139 -0.4486
 7023SOL    HW221978   5.056   3.216   7.130 -1.1581 -0.4334  0.6912
 7024SOL     OW21979   7.161   0.573   0.071 -0.1697 -0.3321 -0.5582
 7024SOL    HW121980   7.109   0.652   0.086 -2.5000 -1.7264 -0.6692
 7024SOL    HW221981   7.145   0.552  -0.021  2.0247  0.0884 -1.0785
 7025SOL     OW21982   3.496   6.340   5.196  0.8421 -0.0657 -0.2827
 7025SOL    HW121983   3.416   6.311   5.240  2.1622 -1.3343  1.4428
 7025SOL    HW221984   3.512   6.273   5.129 -0.0251  0.7101 -1.2886
 7026SOL     OW21985   7.423   1.456   4.791  0.3939  0.1900  0.4499
 7026SOL    HW121986   7.328   1.454   4.786  0.4281 -2.0641 -0.8703
 7026SOL    HW221987   7.444   1.540   4.831 -2.1385  0.6823  0.8735
 7027SOL     OW21988   0.424   0.433   4.053 -0.7066 -0.2961 -0.2158
 7027SOL    HW121989   0.432   0.422   4.148  0.4406 -2.1372 -0.4734
 7027SOL    HW221990   0.340   0.476   4.040  0.0746  2.0367  1.7410
 7028SOL     OW21991   1.708   1.776   6.633  0.1095  0.1163  0.1500
 7028SOL    HW121992   1.636   1.810   6.687 -0.1317 -0.2558  0.0649
 7028SOL    HW221993   1.671   1.766   6.546  0.1881 -0.3377  0.1671
 7029SOL     OW21994   2.919   1.757   4.791  0.1432 -0.1581 -0.2621
 7029SOL    HW121995   2.968   1.675   4.781 -0.9650 -0.8848  0.0976
 7029SOL    HW221996   2.846   1.749   4.730  1.2291  1.5639 -1.8923
 7030SOL     OW21997   3.329   0.073   0.023  0.3629  0.5723  0.6121
 7030SOL    HW121998   3.381   0.097  -0.054  2.5627 -1.2046  1.4583
 7030SOL    HW221999   3.287  -0.009  -0.002  0.2828  0.5051  0.9693
 7031SOL     OW22000   4.412   2.590   0.337 -0.0021  0.2138 -0.2486
 7031SOL    HW122001   4.427   2.665   0.394  0.9701 -0.8278  0.9153
 7031SOL    HW222002   4.498   2.568   0.302  0.1798 -1.6673  1.1664
 7032SOL     OW22003   1.005   4.806   4.633 -0.1869  0.2362  0.1220
 7032SOL    HW122004   1.046   4.827   4.549 -0.2120  0.3249  0.1322
 7032SOL    HW222005   0.913   4.792   4.611 -0.6016  2.1690  0.4179
 7033SOL     OW22006   4.509   0.434   3.315  0.2174 -0.4021 -0.1285
 7033SOL    HW122007   4.499   0.445   3.221  0.8283  0.2906 -0.1172
 7033SOL    HW222008   4.494   0.340   3.330 -0.0229 -0.4898 -0.8855
 7034SOL     OW22009   7.708   2.773   0.939  0.4131  0.5576 -0.1775
 7034SOL    HW122010   7.666   2.716   1.004 -0.1265  1.7037  0.4992
 7034SOL    HW222011   7.639   2.831   0.909  0.6469  0.0184 -1.8522
 7035SOL     OW22012   6.097   5.587   3.462 -0.1597  0.1248 -0.2755
 7035SOL    HW122013   6.135   5.584   3.550  0.1329  2.6178 -0.2327
 7035SOL    HW222014   6.003   5.583   3.476 -0.1450  1.2127  0.2535
 7036SOL     OW22015   0.757   5.883   1.737  0.3014 -0.1884  0.6662
 7036SOL    HW122016   0.818   5.839   1.678 -0.2088 -2.6301  1.7997
 7036SOL    HW222017   0.765   5.976   1.716  1.9991 -0.7306 -1.4214
 7037SOL     OW22018   5.509   5.183   4.770  0.5931 -0.1115  0.3142
 7037SOL    HW122019   5.454   5.220   4.838  0.4328  0.0793  0.0833
 7037SOL    HW222020   5.478   5.223   4.689  0.0681 -1.1371 -0.0049
 7038SOL     OW22021   2.691   4.009   1.896  0.1770 -0.0431 -0.3027
 7038SOL    HW122022   2.767   4.053   1.858  0.7386 -1.5943 -1.1082
 7038SOL    HW222023   2.642   3.977   1.820 -0.6781 -0.0326  0.2315
 7039SOL     OW22024   5.653   5.067   0.855 -0.4521  0.0696 -0.3630
 7039SOL    HW122025   5.598   5.085   0.931  0.7965 -0.0985  0.6125
 7039SOL    HW222026   5.724   5.131   0.861  0.0436 -0.4096 -0.9750
 7040SOL     OW22027   7.433   0.165   1.176  0.1495  0.3210  0.0223
 7040SOL    HW122028   7.426   0.118   1.259  1.4620  0.7393  0.3944
 7040SOL    HW222029   7.497   0.115   1.125  0.6565  1.0243 -0.0483
 7041SOL     OW22030   6.102   0.817   3.313 -0.2381 -0.4471 -0.0568
 7041SOL    HW122031   6.080   0.778   3.228 -2.2265 -1.3127  0.7827
 7041SOL    HW222032   6.084   0.747   3.377  1.4239  0.1025  1.0873
 7042SOL     OW22033   0.386   2.333   6.336  0.5725  0.6439  0.0877
 7042SOL    HW122034   0.406   2.244   6.365  0.8752  0.7831  0.3160
 7042SOL    HW222035   0.312   2.360   6.390  0.6093  0.6048  0.1576
 7043SOL     OW22036   5.101   3.264   4.727  0.2185 -0.0377 -0.4085
 7043SOL    HW122037   5.038   3.319   4.679  0.4724  0.3652 -0.2869
 7043SOL    HW222038   5.180   3.318   4.733  0.4366 -0.3783 -0.1913
 7044SOL     OW22039   7.473   2.534   2.120 -0.6184  0.7837  0.2802
 7044SOL    HW122040   7.468   2.606   2.057  0.1040  0.7999  0.2285
 7044SOL    HW222041   7.504   2.459   2.070  1.5859  1.2067  0.8932
 7045SOL     OW22042   0.262   0.267   1.057  0.1375  0.4604 -0.0075
 7045SOL    HW122043   0.334   0.275   1.120  0.4447 -0.3516 -0.2381
 7045SOL    HW222044   0.287   0.325   0.984  1.5469 -1.2588 -0.9689
 7046SOL     OW22045   2.693   3.042   4.555 -0.5897 -0.1114  0.3223
 7046SOL    HW122046   2.630   3.000   4.615  0.4789  0.9216  2.2405
 7046SOL    HW222047   2.655   3.128   4.537 -0.3677  0.0085  0.4264
 7047SOL     OW22048   7.142   6.558   3.307  0.2676  0.0969  0.1795
 7047SOL    HW122049   7.077   6.626   3.325  0.4251  0.3866 -0.3462
 7047SOL    HW222050   7.097   6.476   3.329 -0.1274  0.3250  0.2302
 7048SOL     OW22051   5.051   3.011   0.042 -0.8706  0.2552  0.3674
 7048SOL    HW122052   5.074   3.032  -0.049 -1.4792  0.8127  0.3354
 7048SOL    HW222053   4.957   3.031   0.048 -0.4465  2.1267  1.6460
 7049SOL     OW22054   3.009   1.652   7.020  0.5511 -0.0128 -0.0252
 7049SOL    HW122055   3.076   1.646   6.951  2.5497  1.7351  1.6138
 7049SOL    HW222056   3.059   1.667   7.100 -1.8077  0.6358  1.4067
 7050SOL     OW22057   3.937   2.415   3.606  0.3031  0.3329  0.9288
 7050SOL    HW122058   3.907   2.327   3.585 -0.5769  0.4831  1.4750
 7050SOL    HW222059   3.979   2.446   3.526 -1.0932  0.1270  0.0727
 7051SOL     OW22060   3.972   5.069   3.591  0.5094 -0.3564  0.2075
 7051SOL    HW122061   3.984   5.143   3.532  0.6122  0.0371  0.7248
 7051SOL    HW222062   4.036   5.082   3.660 -1.4726  0.7223  1.9538
 7052SOL     OW22063   0.295   6.582   1.514  0.1646 -0.3095  0.0402
 7052SOL    HW122064   0.363   6.619   1.569  0.8934  1.3725 -1.8559
 7052SOL    HW222065   0.213   6.615   1.552  0.5632 -0.2364  0.8495
 7053SOL     OW22066   1.921   6.097   2.039 -0.6696  0.3720  0.2652
 7053SOL    HW122067   1.925   6.095   2.135  0.2645  0.5967  0.2386
 7053SOL    HW222068   1.893   6.186   2.018 -1.2898  0.1961  0.3376
 7054SOL     OW22069   7.481   0.881   1.721 -0.4346  1.1637  0.3284
 7054SOL    HW122070   7.572   0.865   1.695 -0.1065  4.3199 -0.9030
 7054SOL    HW222071   7.436   0.799   1.701  2.0881 -0.5616  1.0950
 7055SOL     OW22072   4.177   2.646   2.593  0.5375 -0.1357  0.0203
 7055SOL    HW122073   4.172   2.582   2.523 -2.0675  0.4249 -0.4457
 7055SOL    HW222074   4.093   2.693   2.588  1.5676  2.0443  1.5119
 7056SOL     OW22075   7.419   7.302   2.531  0.0617 -0.1076  0.1477
 7056SOL    HW122076   7.411   7.386   2.575 -1.0128 -0.0161 -0.2100
 7056SOL    HW222077   7.431   7.324   2.439 -1.3574 -0.3445 -0.1136
 7057SOL     OW22078   1.468   0.076   4.407 -0.3152  0.0804 -0.1677
 7057SOL    HW122079   1.400   0.099   4.345 -1.0359 -0.8202  0.2555
 7057SOL    HW222080   1.513   0.002   4.367  0.1770  0.4318 -0.2739
 7058SOL     OW22081   3.180   0.124   6.011 -0.1271  0.0071 -0.4003
 7058SOL    HW122082   3.160   0.214   5.985 -0.5045  0.3732  1.0804
 7058SOL    HW222083   3.258   0.131   6.066 -0.0560 -0.5845 -0.4213
 7059SOL     OW22084   0.486   3.709   5.610  0.2772  1.1274 -0.3548
 7059SOL    HW122085   0.566   3.664   5.639  0.1993  1.5780  0.5679
 7059SOL    HW222086   0.446   3.648   5.549  1.4579  0.9956 -1.0412
 7060SOL     OW22087   5.686   1.194   4.774 -0.3101  0.0303 -0.6330
 7060SOL    HW122088   5.645   1.269   4.731 -1.6635 -0.6704 -0.6194
 7060SOL    HW222089   5.688   1.219   4.867  0.8062  0.7289 -0.8291
 7061SOL     OW22090   7.219   0.722   3.933  0.2373 -0.0370  0.4633
 7061SOL    HW122091   7.129   0.705   3.907  0.7919 -1.4172 -0.6959
 7061SOL    HW222092   7.215   0.805   3.981 -1.7677 -0.5603  1.2788
 7062SOL     OW22093   5.001   1.419   6.482  0.2238 -0.4094 -0.2855
 7062SOL    HW122094   5.070   1.367   6.523 -0.3772 -0.5688  0.5434
 7062SOL    HW222095   4.997   1.499   6.534  1.6261  0.8436 -1.9772
 7063SOL     OW22096   1.345   2.487   5.056 -0.4687 -0.2051  0.8889
 7063SOL    HW122097   1.350   2.491   4.960 -0.5444 -0.8027  0.8555
 7063SOL    HW222098   1.289   2.561   5.080 -0.8161 -0.3140  0.4340
 7064SOL     OW22099   5.847   2.761   4.723  0.0156  0.0170 -0.2687
 7064SOL    HW122100   5.767   2.743   4.772  0.2564 -0.1060  0.0937
 7064SOL    HW222101   5.917   2.725   4.779  0.1628 -1.9410 -1.6202
 7065SOL     OW22102   3.352   0.712   0.799  0.1585 -0.0706 -0.0104
 7065SOL    HW122103   3.271   0.660   0.799  1.1398 -1.7775  2.4665
 7065SOL    HW222104   3.422   0.647   0.788  1.2577  1.3230 -1.6629
 7066SOL     OW22105   0.045   4.193   3.495 -0.1521 -0.0280 -0.3057
 7066SOL    HW122106   0.107   4.242   3.550 -0.2463  0.7454 -0.8660
 7066SOL    HW222107   0.075   4.208   3.406 -0.0125 -1.2602 -0.4835
 7067SOL     OW22108   6.774   0.765   3.357 -0.0671 -0.2248 -0.4044
 7067SOL    HW122109   6.800   0.856   3.372 -2.4588  0.1249  2.7109
 7067SOL    HW222110   6.827   0.715   3.419 -0.9978 -0.4714  0.2227
 7068SOL     OW22111   6.273   3.981   4.429  0.3795 -0.3069  0.5264
 7068SOL    HW122112   6.313   3.927   4.497  1.3464  0.5846  0.7003
 7068SOL    HW222113   6.232   4.053   4.478  1.8489  0.8289  0.1526
 7069SOL     OW22114   4.030   5.244   6.364  0.1114  0.3432  0.3236
 7069SOL    HW122115   3.942   5.206   6.362  1.6055 -3.5753 -1.5045
 7069SOL    HW222116   4.074   5.197   6.434  1.6112 -0.1211 -0.8872
 7070SOL     OW22117   4.569   2.390   3.800  0.4597  0.1908  0.3623
 7070SOL    HW122118   4.495   2.451   3.802 -0.9785 -1.4850  2.4141
 7070SOL    HW222119   4.638   2.436   3.848 -0.0634  0.8258  0.5342
 7071SOL     OW22120   4.324   3.671   7.009 -0.3944  0.2682  0.0318
 7071SOL    HW122121   4.234   3.644   7.029  0.1795 -2.1206 -0.3132
 7071SOL    HW222122   4.332   3.657   6.914  1.2327 -2.8085  0.4774
 7072SOL     OW22123   3.508   0.823   4.245 -0.3140  0.3468 -0.3120
 7072SOL    HW122124   3.463   0.744   4.275  0.1359  0.4073  0.5333
 7072SOL    HW222125   3.539   0.801   4.157  1.3077 -1.0594  0.5430
 7073SOL     OW22126   3.286   1.794   5.697  0.5810  0.1124 -0.1850
 7073SOL    HW122127   3.210   1.776   5.642  1.0743  0.9291 -1.1624
 7073SOL    HW222128   3.279   1.887   5.718  0.1622 -0.2774  1.5307
 7074SOL     OW22129   4.373   3.149   2.206  0.5653  0.2546  0.3184
 7074SOL    HW122130   4.346   3.199   2.128 -0.4343  0.0562  0.5328
 7074SOL    HW222131   4.342   3.060   2.189  1.0963  0.0179  0.5757
 7075SOL     OW22132   3.225   7.326   5.613 -0.5012 -0.2859 -0.1605
 7075SOL    HW122133   3.256   7.301   5.526  0.9372 -1.2972  0.6131
 7075SOL    HW222134   3.225   7.422   5.611  0.4010 -0.2880 -0.9862
 7076SOL     OW22135   6.794   0.543   4.582  0.2674  0.1078 -0.7296
 7076SOL    HW122136   6.819   0.632   4.604  0.1144 -0.0010 -0.0907
 7076SOL    HW222137   6.770   0.547   4.490  0.9818  0.5662 -0.9065
 7077SOL     OW22138   2.516   0.021   1.490 -0.3883  0.6682  0.1329
 7077SOL    HW122139   2.583  -0.027   1.539 -0.8637  0.3057  0.4373
 7077SOL    HW222140   2.565   0.066   1.421  0.3900  1.6495  1.2590
 7078SOL     OW22141   6.234   5.740   5.627  0.0155 -0.2683 -0.5165
 7078SOL    HW122142   6.323   5.725   5.659 -0.0961  0.0006 -0.0647
 7078SOL    HW222143   6.230   5.695   5.543  0.1177 -1.5493  0.1447
 7079SOL     OW22144   7.067   1.966   6.774 -0.1512  0.5071 -0.1412
 7079SOL    HW122145   7.152   1.952   6.814 -0.4015  0.3788  0.3536
 7079SOL    HW222146   7.012   1.896   6.810 -0.4480  0.5483 -0.5054
 7080SOL     OW22147   2.656   6.105   4.380 -0.3849 -0.0338 -0.0153
 7080SOL    HW122148   2.728   6.044   4.361 -0.1587 -0.5549  2.2093
 7080SOL    HW222149   2.671   6.178   4.321  1.4344 -0.5568 -0.2835
 7081SOL     OW22150   7.398   5.199   7.571 -0.4909 -0.0370  0.2620
 7081SOL    HW122151   7.452   5.236   7.501 -1.2483 -1.7846 -1.3335
 7081SOL    HW222152   7.319   5.168   7.527 -0.6263 -1.9712  1.7221
 7082SOL     OW22153   0.890   2.948   0.292  0.3294 -0.4432  0.4207
 7082SOL    HW122154   0.919   2.908   0.210  2.4566 -0.9237  1.3459
 7082SOL    HW222155   0.802   2.913   0.306 -0.3320  0.1120 -1.9124
 7083SOL     OW22156   7.562   1.440   2.685 -0.1448  0.0212  0.4382
 7083SOL    HW122157   7.598   1.370   2.630 -0.3170  0.5277 -0.3368
 7083SOL    HW222158   7.479   1.405   2.716 -0.1676 -0.1679  0.1669
 7084SOL     OW22159   1.136   3.842   6.075 -0.8596  0.2152 -0.2530
 7084SOL    HW122160   1.133   3.913   6.011  2.0205  1.6388  0.9926
 7084SOL    HW222161   1.089   3.877   6.151  0.7398  0.9833  0.4376
 7085SOL     OW22162   3.401   4.633   1.534  0.4523  0.6966 -0.1977
 7085SOL    HW122163   3.495   4.645   1.551  0.3691  0.5499  0.3788
 7085SOL    HW222164   3.387   4.676   1.449  1.1971  0.0179 -0.6766
 7086SOL     OW22165   1.147   3.547   5.603 -0.1053  0.4214  0.4382
 7086SOL    HW122166   1.132   3.471   5.547 -0.0147  1.3662 -0.9225
 7086SOL    HW222167   1.124   3.517   5.691  0.1674 -1.2419 -0.0173
 7087SOL     OW22168   3.708   4.573   0.026 -0.2823  0.1320 -0.0691
 7087SOL    HW122169   3.729   4.492  -0.022  3.3198  1.0822 -0.3633
 7087SOL    HW222170   3.614   4.583   0.013 -0.4163 -2.5303 -2.3985
 7088SOL     OW22171   5.527   2.534   3.563  0.2772 -0.5174 -0.5369
 7088SOL    HW122172   5.591   2.576   3.621  0.6810 -0.0466 -1.3096
 7088SOL    HW222173   5.580   2.484   3.501 -0.0872 -0.0646 -1.2286
 7089SOL     OW22174   3.339   2.504   3.241  0.6101  0.3270 -0.7000
 7089SOL    HW122175   3.415   2.487   3.185 -0.5427 -1.6343 -1.8114
 7089SOL    HW222176   3.324   2.421   3.287 -2.0927 -0.1109 -2.1517
 7090SOL     OW22177   3.494   5.039   6.380  0.8445 -0.2605 -0.3665
 7090SOL    HW122178   3.494   5.009   6.471  0.4731  0.6373 -0.0617
 7090SOL    HW222179   3.433   4.980   6.336  0.0147  0.1157  0.2546
 7091SOL     OW22180   4.394   7.005   5.865 -0.2532 -0.0382  0.0747
 7091SOL    HW122181   4.390   7.088   5.911 -0.8423 -0.7764  1.4034
 7091SOL    HW222182   4.479   7.006   5.821  0.1240  0.8752  0.7998
 7092SOL     OW22183   5.075   1.739   5.276 -0.2638  0.0550  0.2397
 7092SOL    HW122184   5.100   1.650   5.253  0.0172  0.6088 -1.7561
 7092SOL    HW222185   5.137   1.764   5.345 -0.8829 -1.5360  1.4453
 7093SOL     OW22186   3.626   3.390   5.403  0.6287 -0.8749 -0.2319
 7093SOL    HW122187   3.638   3.295   5.402 -0.2058 -1.0123 -2.6593
 7093SOL    HW222188   3.712   3.425   5.427  0.5557 -2.2032  2.3457
 7094SOL     OW22189   2.527   3.541   6.196 -0.4028  0.0510  0.1614
 7094SOL    HW122190   2.501   3.492   6.274 -0.9845  0.3218  0.1393
 7094SOL    HW222191   2.574   3.617   6.229 -0.5824  0.1256  0.2460
 7095SOL     OW22192   6.026   1.849   5.212  0.6048 -0.2183  0.2348
 7095SOL    HW122193   6.108   1.799   5.210  1.0473  0.3404 -3.6152
 7095SOL    HW222194   5.959   1.786   5.185  0.7139  0.4805 -1.8463
 7096SOL     OW22195   4.860   5.380   5.205 -0.3887 -0.4087  0.4805
 7096SOL    HW122196   4.821   5.308   5.254  0.2696 -1.1379 -0.0337
 7096SOL    HW222197   4.924   5.338   5.147 -0.8418  0.4556 -0.7017
 7097SOL     OW22198   4.122   4.473   4.806 -0.3305 -0.2627 -0.4089
 7097SOL    HW122199   4.118   4.420   4.885 -0.6035 -1.4488 -1.1932
 7097SOL    HW222200   4.131   4.563   4.838  2.5677 -0.9212  0.9621
 7098SOL     OW22201   0.234   2.732   1.078  0.2998  1.2099  0.4681
 7098SOL    HW122202   0.321   2.736   1.038 -0.7518  0.8465 -2.0966
 7098SOL    HW222203   0.179   2.783   1.019 -1.2904  1.2211  1.9069
 7099SOL     OW22204   0.706   4.824   7.050  0.2598  0.5741  0.1937
 7099SOL    HW122205   0.798   4.815   7.078  0.5908 -0.0506 -1.0196
 7099SOL    HW222206   0.709   4.884   6.976 -0.1582 -0.2307 -0.5013
 7100SOL     OW22207   5.635   6.753   1.348 -0.5793 -0.0206 -0.4188
 7100SOL    HW122208   5.668   6.843   1.341  0.1856 -0.1338  1.1763
 7100SOL    HW222209   5.632   6.737   1.442 -0.8421 -1.6249 -0.6803
 7101SOL     OW22210   0.428   5.511   1.097  0.2911  0.1440 -0.7676
 7101SOL    HW122211   0.439   5.593   1.145  0.0287 -0.5742  0.5582
 7101SOL    HW222212   0.488   5.449   1.139  0.4130 -0.3933 -1.6816
 7102SOL     OW22213   4.133   5.488   7.107 -0.6637  0.2988 -0.2309
 7102SOL    HW122214   4.093   5.401   7.114 -3.6989  1.3487 -2.4496
 7102SOL    HW222215   4.059   5.548   7.096  1.2704  3.2954  1.5547
 7103SOL     OW22216   1.413   6.463   5.027 -0.0220  0.2351  0.4507
 7103SOL    HW122217   1.455   6.424   4.951 -1.2496  0.7229 -0.5083
 7103SOL    HW222218   1.341   6.403   5.049  0.7986 -0.3205  1.7440
 7104SOL     OW22219   1.888   1.611   1.219 -0.3995 -0.2483  0.3980
 7104SOL    HW122220   1.944   1.639   1.146  0.0477  1.0077  1.1944
 7104SOL    HW222221   1.856   1.525   1.193  0.0405  0.0179 -1.1216
 7105SOL     OW22222   1.639   4.270   3.584  0.2298  0.1960 -0.2910
 7105SOL    HW122223   1.590   4.220   3.649 -0.1719 -0.0484 -0.7738
 7105SOL    HW222224   1.572   4.316   3.534  0.6281  2.1689  0.8786
 7106SOL     OW22225   3.571   3.055   0.030 -0.1027  0.2055 -0.1194
 7106SOL    HW122226   3.578   3.079  -0.063  1.0060  0.9305  0.1337
 7106SOL    HW222227   3.582   3.137   0.077 -0.5439 -0.1755  0.6673
 7107SOL     OW22228   3.954   5.990   0.570  0.6036  0.2903  0.2933
 7107SOL    HW122229   3.981   5.901   0.545 -0.8258 -0.0769 -0.0472
 7107SOL    HW222230   4.028   6.045   0.545  1.4497 -0.7837  0.3586
 7108SOL     OW22231   6.037   5.421   3.756  0.4363  0.9026  0.0286
 7108SOL    HW122232   6.032   5.367   3.678 -3.5016  0.5908  0.3040
 7108SOL    HW222233   6.002   5.366   3.826 -1.9277  3.0105  0.6955
 7109SOL     OW22234   2.488   4.792   3.680 -0.0342  0.0870 -0.1622
 7109SOL    HW122235   2.508   4.698   3.678 -1.6498 -0.3113  0.3571
 7109SOL    HW222236   2.452   4.807   3.767  3.1880  1.9436  1.0152
 7110SOL     OW22237   4.909   0.821   1.584 -0.4077  0.3411 -0.2147
 7110SOL    HW122238   4.932   0.857   1.669 -0.1649  0.4446 -0.3247
 7110SOL    HW222239   4.814   0.808   1.589 -0.4799  0.8861 -0.1349
 7111SOL     OW22240   1.034   4.548   0.400 -0.0241  0.5965 -0.1788
 7111SOL    HW122241   0.979   4.626   0.391 -0.7500  0.0751 -0.2631
 7111SOL    HW222242   0.993   4.482   0.345 -0.8757 -0.6420  1.8131
 7112SOL     OW22243   5.358   0.942   1.506 -0.1077 -0.2388 -0.2120
 7112SOL    HW122244   5.415   0.946   1.583 -0.5052 -1.1239  0.1429
 7112SOL    HW222245   5.376   1.023   1.459  0.5464  0.0623  0.5276
 7113SOL     OW22246   6.512   4.378   5.430 -0.6111  0.0617 -0.2489
 7113SOL    HW122247   6.484   4.341   5.514  1.4970  1.2986  1.1051
 7113SOL    HW222248   6.468   4.463   5.426 -0.4710  0.1356 -0.2289
 7114SOL     OW22249   6.118   5.862   2.390 -0.2100 -0.2982 -0.4181
 7114SOL    HW122250   6.192   5.918   2.412 -1.2145  0.9847 -0.2086
 7114SOL    HW222251   6.127   5.846   2.296  1.2492 -1.5801 -0.1075
 7115SOL     OW22252   7.293   4.780   5.552  0.0960 -0.5539  0.8653
 7115SOL    HW122253   7.338   4.714   5.500 -0.0847  0.5478 -0.7599
 7115SOL    HW222254   7.200   4.765   5.535  0.0728  1.5565 -1.5482
 7116SOL     OW22255   4.657   5.864   1.697  0.0865 -0.3269 -0.0297
 7116SOL    HW122256   4.599   5.891   1.626  0.8804  1.6157  0.0040
 7116SOL    HW222257   4.599   5.852   1.772 -0.5129 -0.3939 -0.4991
 7117SOL     OW22258   7.111   7.625   3.067 -0.1593  0.7053 -0.0326
 7117SOL    HW122259   7.114   7.700   3.008  2.3955 -0.1692 -1.1625
 7117SOL    HW222260   7.054   7.562   3.022 -0.9678  1.3150  0.1204
 7118SOL     OW22261   6.361   4.470   6.198 -0.7017 -0.6013  0.0099
 7118SOL    HW122262   6.284   4.528   6.202 -0.4984 -0.3904  1.7847
 7118SOL    HW222263   6.432   4.527   6.171 -0.4186  0.1715  2.1317
 7119SOL     OW22264   0.782   1.675   2.224  0.1992  0.1303 -0.1484
 7119SOL    HW122265   0.834   1.661   2.145  1.7429  1.8597  0.4816
 7119SOL    HW222266   0.749   1.588   2.247 -0.1008 -0.4491 -2.5283
 7120SOL     OW22267   2.931   7.366   7.733 -0.1356  0.1350  0.1870
 7120SOL    HW122268   2.984   7.301   7.779 -0.9447 -0.6407  0.0472
 7120SOL    HW222269   2.898   7.320   7.656  0.6843  1.2284 -0.8651
 7121SOL     OW22270   5.084   4.450   1.559 -0.2137  0.1061  0.3501
 7121SOL    HW122271   5.166   4.406   1.580 -0.6773 -0.4270  1.0912
 7121SOL    HW222272   5.015   4.387   1.582 -0.8316  0.3658 -0.6791
 7122SOL     OW22273   0.795   2.413   6.780 -0.3455 -0.4570 -0.3033
 7122SOL    HW122274   0.711   2.378   6.749 -0.9778  0.6340  0.1024
 7122SOL    HW222275   0.801   2.500   6.740 -1.1171  0.9530  2.3925
 7123SOL     OW22276   0.694   1.452   6.178 -0.0074  0.1544 -0.0629
 7123SOL    HW122277   0.648   1.528   6.214 -0.4154 -0.2163  0.2117
 7123SOL    HW222278   0.693   1.468   6.083 -0.9601  0.0269 -0.0908
 7124SOL     OW22279   7.489   6.647   7.325  0.0381  0.0104  0.5762
 7124SOL    HW122280   7.419   6.710   7.311 -0.8802 -1.0697  0.1546
 7124SOL    HW222281   7.517   6.622   7.237 -1.5496 -2.2207  0.6015
 7125SOL     OW22282   7.117   2.269   3.851  0.6381  0.0907 -0.4217
 7125SOL    HW122283   7.132   2.261   3.756  0.5427 -0.3010 -0.4023
 7125SOL    HW222284   7.202   2.295   3.886  0.9489 -0.7997 -0.4877
 7126SOL     OW22285   2.642   5.420   4.582 -0.0081 -0.2309  0.4579
 7126SOL    HW122286   2.594   5.498   4.555  0.2104 -0.0368  0.6307
 7126SOL    HW222287   2.712   5.410   4.517  1.0309  0.7116  1.3933
 7127SOL     OW22288   5.049   1.568   4.040 -0.6007 -0.5122  0.1113
 7127SOL    HW122289   5.063   1.550   3.947  1.5362  0.9037  0.0871
 7127SOL    HW222290   5.053   1.664   4.047 -2.4773 -0.4795  1.4477
 7128SOL     OW22291   7.186   7.544   1.600 -0.3951  0.3906  0.6370
 7128SOL    HW122292   7.135   7.466   1.576  0.0303  0.3466 -0.1564
 7128SOL    HW222293   7.122   7.615   1.602 -0.9685 -0.1210  2.3004
 7129SOL     OW22294   6.266   1.731   7.141  0.0093 -0.2923 -0.1572
 7129SOL    HW122295   6.227   1.750   7.055  1.5569  0.4185 -0.7251
 7129SOL    HW222296   6.278   1.816   7.181  1.2352 -0.4665 -0.1192
 7130SOL     OW22297   1.038   1.709   7.118 -0.3928 -0.9735 -0.6494
 7130SOL    HW122298   1.083   1.639   7.071  2.2715  0.0612  0.1635
 7130SOL    HW222299   0.953   1.672   7.141  1.1947 -4.3066  0.5169
 7131SOL     OW22300   5.827   7.066   3.758 -0.0227  0.2921  0.4115
 7131SOL    HW122301   5.792   7.066   3.669  1.8585 -0.2230 -0.3715
 7131SOL    HW222302   5.772   7.129   3.805 -0.1518  1.6926 -1.4859
 7132SOL     OW22303   3.447   3.814   6.605  0.2132  0.2730  0.4479
 7132SOL    HW122304   3.479   3.729   6.636 -0.6222 -0.0339  0.4982
 7132SOL    HW222305   3.353   3.813   6.625 -0.3553  0.1395 -1.8532
 7133SOL     OW22306   6.659   4.192   3.067 -0.1224  0.1306 -0.0310
 7133SOL    HW122307   6.732   4.133   3.045  0.7963  1.3806 -0.4170
 7133SOL    HW222308   6.596   4.180   2.996  1.3412  1.6821 -1.6862
 7134SOL     OW22309   1.218   0.831   2.284 -0.5095 -0.5509  0.2878
 7134SOL    HW122310   1.294   0.846   2.227 -0.2591 -2.5647 -0.0176
 7134SOL    HW222311   1.255   0.786   2.360 -1.1945 -0.2039  0.8259
 7135SOL     OW22312   7.365   2.272   4.788 -0.1094  0.0569  0.2538
 7135SOL    HW122313   7.403   2.360   4.779  0.6461 -0.3106 -0.2096
 7135SOL    HW222314   7.437   2.217   4.817 -0.0761 -0.7965 -1.3074
 7136SOL     OW22315   6.491   1.011   3.861  0.5864  0.0122  0.1422
 7136SOL    HW122316   6.539   0.951   3.804  0.0595 -0.5028  0.2308
 7136SOL    HW222317   6.416   0.959   3.893  0.8113  0.3125  1.2093
 7137SOL     OW22318   4.082   6.460   3.916 -0.3288  0.0643  0.3333
 7137SOL    HW122319   4.136   6.383   3.901  0.6587  0.7517  0.2926
 7137SOL    HW222320   3.992   6.428   3.908  0.0783 -0.9118 -0.5134
 7138SOL     OW22321   7.735   0.195   0.405 -0.5166  0.2490  0.0206
 7138SOL    HW122322   7.649   0.155   0.418  0.1489 -1.6279 -0.9193
 7138SOL    HW222323   7.739   0.214   0.311  0.7778 -1.5555 -0.3493
 7139SOL     OW22324   3.884   5.421   5.617  0.4383 -0.2258  0.5078
 7139SOL    HW122325   3.962   5.476   5.622  0.7237 -0.6822  1.1224
 7139SOL    HW222326   3.907   5.342   5.666 -0.8549  0.1679  1.8079
 7140SOL     OW22327   6.857   4.951   4.692 -0.8181  0.1365 -0.0198
 7140SOL    HW122328   6.870   4.878   4.631 -2.1836 -0.5182  0.4400
 7140SOL    HW222329   6.865   5.029   4.637  1.4368 -0.2717 -0.3894
 7141SOL     OW22330   7.437   0.782   7.283  0.2358 -0.3428  0.1804
 7141SOL    HW122331   7.454   0.870   7.250 -1.8148 -0.0995 -0.3361
 7141SOL    HW222332   7.471   0.724   7.214  0.1979  0.0675 -0.1885
 7142SOL     OW22333   2.465   2.682   6.506  0.2051 -0.2138 -0.8181
 7142SOL    HW122334   2.473   2.773   6.475 -0.3465 -0.1967 -0.9176
 7142SOL    HW222335   2.380   2.679   6.549  1.2662 -0.0277  1.4618
 7143SOL     OW22336   3.322   7.718   6.530  0.3233  0.1155 -0.2334
 7143SOL    HW122337   3.345   7.656   6.460  1.8608 -0.0965  0.4043
 7143SOL    HW222338   3.375   7.795   6.511  1.1441 -0.1345  0.9573
 7144SOL     OW22339   4.026   6.931   4.943 -0.3754 -0.3421 -0.3858
 7144SOL    HW122340   4.007   7.020   4.914  0.8416 -0.0604 -0.3697
 7144SOL    HW222341   3.955   6.910   5.003 -1.7083 -0.1005 -1.8018
 7145SOL     OW22342   0.689   6.181   2.404  0.4791 -0.2009 -0.7913
 7145SOL    HW122343   0.640   6.145   2.478  1.8302  1.1492  0.8513
 7145SOL    HW222344   0.752   6.112   2.382  0.3805 -0.4390 -0.3593
 7146SOL     OW22345   6.005   2.520   6.383  0.3728 -0.0019  0.0567
 7146SOL    HW122346   6.011   2.428   6.358  0.7803 -1.0866  3.6253
 7146SOL    HW222347   5.936   2.523   6.449  2.2250  1.6454  2.0828
 7147SOL     OW22348   3.193   4.907   5.445  0.4140 -0.0981 -0.4878
 7147SOL    HW122349   3.217   4.919   5.354  1.6080 -0.8294 -0.2902
 7147SOL    HW222350   3.097   4.908   5.445  0.3589 -1.2740 -1.9228
 7148SOL     OW22351   4.882   5.617   5.080  0.0219 -0.4102  0.3389
 7148SOL    HW122352   4.886   5.697   5.131 -1.5099 -1.3569  2.0836
 7148SOL    HW222353   4.892   5.547   5.145 -1.7263 -1.6582 -0.6513
 7149SOL     OW22354   5.936   3.869   4.253  0.0965 -0.2819  0.7583
 7149SOL    HW122355   5.841   3.874   4.263  0.1432  0.4511  0.9037
 7149SOL    HW222356   5.957   3.941   4.193  0.6659  0.1888  1.5066
 7150SOL     OW22357   6.974   6.629   4.035  0.3494 -0.1277 -0.6134
 7150SOL    HW122358   7.068   6.647   4.034 -0.0738  2.4769 -1.6345
 7150SOL    HW222359   6.939   6.692   4.097 -0.8311 -0.5369 -0.8480
 7151SOL     OW22360   0.037   5.086   3.240 -0.4083 -0.6601 -0.1832
 7151SOL    HW122361   0.072   5.101   3.327 -1.6697  0.1346  0.2121
 7151SOL    HW222362   0.003   5.171   3.212  3.2856  0.1251 -3.0530
 7152SOL     OW22363   5.900   7.530   6.811  0.1069 -0.2210  0.3905
 7152SOL    HW122364   5.851   7.489   6.740  0.7184  0.8794 -0.6947
 7152SOL    HW222365   5.989   7.540   6.777  0.4391  0.2709  1.3342
 7153SOL     OW22366   7.224   3.548   1.416 -0.2271 -0.0260  0.0414
 7153SOL    HW122367   7.145   3.501   1.443  0.6025  0.2705  3.5041
 7153SOL    HW222368   7.195   3.638   1.400 -0.8196 -0.2675 -0.2538
 7154SOL     OW22369   7.545   3.880   2.718 -0.1230  0.8909  0.1910
 7154SOL    HW122370   7.479   3.823   2.678 -0.1682  1.3718 -0.4341
 7154SOL    HW222371   7.513   3.969   2.701 -0.1100  1.1103  1.2460
 7155SOL     OW22372   1.451   2.908   7.286 -0.5764 -0.4039  0.0932
 7155SOL    HW122373   1.465   2.823   7.327  1.1154  0.0169  0.4519
 7155SOL    HW222374   1.500   2.904   7.204  0.4460  0.5707  0.6243
 7156SOL     OW22375   1.190   6.169   1.920 -0.4745 -0.9178 -0.5350
 7156SOL    HW122376   1.278   6.191   1.949 -0.6788 -0.4218 -0.2758
 7156SOL    HW222377   1.202   6.093   1.863 -0.0025 -1.5255  0.3521
 7157SOL     OW22378   0.369   4.832   5.169 -0.7030 -0.0924  0.4599
 7157SOL    HW122379   0.373   4.889   5.246 -0.3081  2.3813 -1.2892
 7157SOL    HW222380   0.434   4.764   5.186 -0.2713  0.6663  2.0741
 7158SOL     OW22381   2.943   4.015   6.888 -0.0384  0.0997  0.5061
 7158SOL    HW122382   2.895   4.031   6.970 -0.4458  0.0902  0.2748
 7158SOL    HW222383   3.033   3.999   6.916 -0.1752  0.0772  0.9556
 7159SOL     OW22384   0.395   5.255   2.746  0.1059 -0.4073  0.3284
 7159SOL    HW122385   0.489   5.263   2.758 -0.1851  1.0699  2.0592
 7159SOL    HW222386   0.380   5.277   2.654  1.3764  0.1712  0.2468
 7160SOL     OW22387   7.002   7.727   1.569 -0.0748 -0.5492  0.0009
 7160SOL    HW122388   7.010   7.816   1.536  0.4288 -0.6347 -0.1098
 7160SOL    HW222389   6.940   7.685   1.510  0.8125 -0.6993 -0.8347
 7161SOL     OW22390   3.001   7.209   1.884  0.1502  0.2431  0.5352
 7161SOL    HW122391   3.035   7.120   1.886  1.7885  0.8374  0.5637
 7161SOL    HW222392   3.051   7.252   1.815 -1.2159  0.9246 -0.0606
 7162SOL     OW22393   0.006   1.479   1.947  0.1554  0.3710  0.2201
 7162SOL    HW122394   0.025   1.488   1.853  0.9380  0.1511  0.3484
 7162SOL    HW222395  -0.080   1.435   1.949  0.0799  0.4697 -0.3894
 7163SOL     OW22396   2.215   0.714   4.357  0.6483  0.1678 -0.1159
 7163SOL    HW122397   2.240   0.659   4.430  2.0447  1.8062  0.7042
 7163SOL    HW222398   2.121   0.729   4.369  0.7698  0.0370  1.0782
 7164SOL     OW22399   1.382   2.979   6.728 -0.3930 -0.5323 -0.0198
 7164SOL    HW122400   1.421   2.921   6.663  0.5705 -0.1095  0.1569
 7164SOL    HW222401   1.449   2.989   6.795 -0.8631  0.1094  0.3733
 7165SOL     OW22402   6.504   3.242   4.538  0.1072 -0.1232  0.5027
 7165SOL    HW122403   6.441   3.314   4.540  1.2258  0.8842  1.1956
 7165SOL    HW222404   6.479   3.189   4.462 -0.5169  1.1976 -0.2394
 7166SOL     OW22405   5.459   3.171   1.554  0.0982  0.2818  0.1563
 7166SOL    HW122406   5.522   3.159   1.483 -1.2560 -0.4509 -0.9770
 7166SOL    HW222407   5.427   3.083   1.573 -0.8261  0.6589  0.4430
 7167SOL     OW22408   5.527   1.604   0.508  0.3378  0.0729  0.2570
 7167SOL    HW122409   5.465   1.676   0.523 -0.0418  0.0508 -1.1086
 7167SOL    HW222410   5.477   1.538   0.460  0.0115 -2.1710  3.3327
 7168SOL     OW22411   5.915   5.927   4.118  0.3575  0.4280 -0.6945
 7168SOL    HW122412   5.883   6.014   4.143 -0.9524 -0.4539  0.9117
 7168SOL    HW222413   5.974   5.943   4.044  0.2068  2.6747 -0.3922
 7169SOL     OW22414   6.902   3.423   1.055 -0.5675  0.7675 -0.3155
 7169SOL    HW122415   6.942   3.352   1.105  0.9878  0.8419 -1.3919
 7169SOL    HW222416   6.831   3.381   1.006 -0.0641  0.0708 -0.4600
 7170SOL     OW22417   6.728   0.590   2.402 -0.0701 -0.1038 -0.3138
 7170SOL    HW122418   6.732   0.680   2.370  1.9303  0.8164  2.2100
 7170SOL    HW222419   6.805   0.548   2.366 -0.5940 -0.6163 -0.8621
 7171SOL     OW22420   7.643   4.330   5.414 -0.0087  0.0109 -0.1650
 7171SOL    HW122421   7.711   4.274   5.378 -0.8397 -1.0976 -0.0529
 7171SOL    HW222422   7.679   4.362   5.497  0.8744  0.4876 -0.7245
 7172SOL     OW22423   6.881   6.776   1.845  0.2028  0.3389 -0.1112
 7172SOL    HW122424   6.970   6.747   1.865  0.7347  0.6973 -1.8184
 7172SOL    HW222425   6.878   6.868   1.873  0.0911  0.0809  0.7306
 7173SOL     OW22426   4.843   2.813   1.677 -0.5064 -0.6276  0.7341
 7173SOL    HW122427   4.786   2.736   1.672 -0.7503 -0.3892 -0.6302
 7173SOL    HW222428   4.786   2.882   1.712 -1.1916 -0.3148 -0.8884
 7174SOL     OW22429   1.932   1.722   3.037  0.1483 -0.3531 -0.3294
 7174SOL    HW122430   1.998   1.735   3.106  1.3994  0.3361 -1.6196
 7174SOL    HW222431   1.869   1.660   3.076  0.4993  0.4313  1.6287
 7175SOL     OW22432   3.619   0.153   4.851 -0.0691 -0.1508  0.0293
 7175SOL    HW122433   3.593   0.240   4.881 -2.3617 -0.6893 -0.2455
 7175SOL    HW222434   3.642   0.106   4.930  0.1612  0.3696  0.2800
 7176SOL     OW22435   4.067   2.481   1.957  0.2631 -0.1988 -0.0778
 7176SOL    HW122436   4.136   2.416   1.941  0.3900 -0.5197  1.6153
 7176SOL    HW222437   4.094   2.526   2.037 -1.3219 -0.0768  0.4220
 7177SOL     OW22438   6.944   4.465   1.943 -0.5219  0.0527  0.2359
 7177SOL    HW122439   6.939   4.556   1.972 -2.3735  0.2535 -0.5344
 7177SOL    HW222440   6.948   4.470   1.848  0.5785 -0.6674  0.2276
 7178SOL     OW22441   3.902   5.088   1.494  0.1281  0.0729 -0.5120
 7178SOL    HW122442   3.984   5.049   1.464 -0.3137 -0.2170 -1.3999
 7178SOL    HW222443   3.896   5.170   1.445  0.5000  0.7186  0.5045
 7179SOL     OW22444   3.154   1.760   1.353  0.0119  0.4316  0.6846
 7179SOL    HW122445   3.107   1.831   1.309 -2.3448 -0.6718  1.2540
 7179SOL    HW222446   3.243   1.765   1.318 -1.4665  0.0506 -3.7630
 7180SOL     OW22447   0.614   4.185   0.244 -0.8669 -0.0279 -0.3512
 7180SOL    HW122448   0.537   4.171   0.299  1.1504 -1.3593  2.3942
 7180SOL    HW222449   0.653   4.097   0.235  1.1787  0.8109 -0.2387
 7181SOL     OW22450   4.955   2.251   7.079 -0.0287  0.8200 -0.2889
 7181SOL    HW122451   4.973   2.230   7.171 -2.5099  2.2225  0.6019
 7181SOL    HW222452   4.991   2.176   7.031  1.5261  0.1258  1.7542
 7182SOL     OW22453   2.059   0.908   7.152  0.0700 -0.0795 -0.4070
 7182SOL    HW122454   2.024   0.971   7.216 -0.2425 -0.1937 -0.4659
 7182SOL    HW222455   2.148   0.940   7.134  0.6544 -0.7885  1.0912
 7183SOL     OW22456   1.763   6.053   7.247 -0.1241  0.1263  0.3216
 7183SOL    HW122457   1.753   6.067   7.341  0.6529  1.9841  0.1711
 7183SOL    HW222458   1.675   6.066   7.211 -0.6236 -1.5384  0.8486
 7184SOL     OW22459   1.400   6.993   5.502 -0.0894 -0.4462  0.2590
 7184SOL    HW122460   1.485   7.036   5.501 -0.7570  1.1366 -3.0257
 7184SOL    HW222461   1.390   6.958   5.413 -2.7377 -0.8499  0.6194
 7185SOL     OW22462   7.439   3.602   6.024  0.0710 -0.4214 -0.7565
 7185SOL    HW122463   7.447   3.684   6.073 -0.0166 -0.6010 -0.4393
 7185SOL    HW222464   7.347   3.601   5.996  0.3053  0.0384 -1.5607
 7186SOL     OW22465   5.619   4.067   7.626 -0.1073  0.0097 -0.0012
 7186SOL    HW122466   5.534   4.104   7.602 -0.4766 -0.8138  0.0194
 7186SOL    HW222467   5.601   3.974   7.642  0.9900 -0.4106 -1.0654
 7187SOL     OW22468   5.217   3.663   5.137 -0.4499 -0.1897  0.4947
 7187SOL    HW122469   5.165   3.673   5.057  0.2901 -1.7562 -0.2364
 7187SOL    HW222470   5.299   3.708   5.117 -0.5573  0.0942  0.6846
 7188SOL     OW22471   6.208   3.541   4.411 -0.6907 -0.0606  0.3354
 7188SOL    HW122472   6.198   3.625   4.366 -0.2541  0.1662  0.6577
 7188SOL    HW222473   6.291   3.507   4.379 -0.7260 -0.2323  0.4296
 7189SOL     OW22474   0.434   4.134   4.057 -0.1372 -0.1171 -0.1662
 7189SOL    HW122475   0.359   4.078   4.072  1.0194 -1.5683  0.3959
 7189SOL    HW222476   0.407   4.220   4.091 -1.1742 -0.8475  0.9119
 7190SOL     OW22477   0.882   7.048   2.649  0.0760  0.1481 -0.2340
 7190SOL    HW122478   0.923   6.987   2.588 -0.1486  0.5617 -0.8074
 7190SOL    HW222479   0.900   7.135   2.613 -2.3337  0.3296 -1.2320
 7191SOL     OW22480   6.212   6.086   0.611  0.1111 -0.0316 -0.1074
 7191SOL    HW122481   6.171   6.119   0.531  0.0959  0.1067 -0.0426
 7191SOL    HW222482   6.276   6.154   0.635  0.7055 -0.4563 -0.4607
 7192SOL     OW22483   7.400   0.571   0.780  0.1581 -0.3606  0.3789
 7192SOL    HW122484   7.357   0.487   0.761  0.6208 -0.4334 -0.3904
 7192SOL    HW222485   7.376   0.590   0.871  0.4476 -1.5672  0.7290
 7193SOL     OW22486   4.921   3.588   2.932  0.1200  0.5476 -0.3768
 7193SOL    HW122487   4.883   3.562   2.848  0.9420 -2.1909  0.0006
 7193SOL    HW222488   4.846   3.598   2.990 -0.3533  0.6316 -0.9943
 7194SOL     OW22489   5.222   4.392   4.094 -0.7146  0.2503 -0.1229
 7194SOL    HW122490   5.181   4.479   4.090 -2.0017 -0.3421 -0.3925
 7194SOL    HW222491   5.246   4.381   4.186  0.1220  1.1716 -0.2169
 7195SOL     OW22492   5.641   3.728   0.355 -0.0079  0.4612 -0.3303
 7195SOL    HW122493   5.689   3.659   0.310  0.2261 -0.4420  1.2302
 7195SOL    HW222494   5.555   3.729   0.312  0.0965 -0.5783 -0.5951
 7196SOL     OW22495   1.467   1.762   3.314 -0.5446  0.0442  0.2398
 7196SOL    HW122496   1.423   1.722   3.388 -0.1822 -0.5627  0.1341
 7196SOL    HW222497   1.522   1.830   3.353 -0.6661  0.0044  0.4824
 7197SOL     OW22498   1.267   1.538   4.779  0.2303  0.0136  0.0238
 7197SOL    HW122499   1.260   1.449   4.813  2.9514 -0.0786  0.5874
 7197SOL    HW222500   1.270   1.593   4.858 -2.2816  0.7666 -0.3222
 7198SOL     OW22501   3.304   3.294   0.053 -0.1156  0.0241  0.4441
 7198SOL    HW122502   3.296   3.390   0.051  1.3716  0.1616 -0.4660
 7198SOL    HW222503   3.397   3.278   0.038 -0.4210 -1.5871  0.1538
 7199SOL     OW22504   2.931   2.477   4.718 -0.2017 -0.0416 -0.2394
 7199SOL    HW122505   2.851   2.427   4.736 -0.0161 -0.7110 -1.1956
 7199SOL    HW222506   2.999   2.410   4.708  0.1232  0.4096 -1.1696
 7200SOL     OW22507   5.175   4.844   2.074 -0.9821  0.1887 -0.0781
 7200SOL    HW122508   5.128   4.912   2.025 -0.1018  1.1524  0.3647
 7200SOL    HW222509   5.148   4.762   2.033 -0.7731  0.9171 -1.7716
 7201SOL     OW22510   4.642   0.612   6.733  0.2825 -0.6148  0.2372
 7201SOL    HW122511   4.593   0.640   6.655 -0.6137 -2.3360  0.1081
 7201SOL    HW222512   4.733   0.611   6.705 -0.0258 -1.2313 -0.8271
 7202SOL     OW22513   0.847   2.332   7.511  0.5042 -0.1213 -0.1701
 7202SOL    HW122514   0.791   2.256   7.527  0.2550  0.2752  0.9343
 7202SOL    HW222515   0.931   2.308   7.550 -0.4252  1.2886  3.0008
 7203SOL     OW22516   4.893   6.590   0.537 -0.6891  0.2738  0.1178
 7203SOL    HW122517   4.974   6.545   0.561 -0.5285  0.7326  0.4580
 7203SOL    HW222518   4.889   6.665   0.597 -1.1734  0.4643 -0.1480
 7204SOL     OW22519   3.406   3.744   1.054  0.2763  0.5686  0.1920
 7204SOL    HW122520   3.323   3.790   1.069  0.2640 -0.2377  3.2321
 7204SOL    HW222521   3.470   3.814   1.038 -0.4918  1.3706  0.5665
 7205SOL     OW22522   2.088   5.465   5.146 -0.1100 -0.1073 -0.0483
 7205SOL    HW122523   2.064   5.485   5.055 -0.9690  0.6360  0.3176
 7205SOL    HW222524   2.012   5.419   5.181 -0.2955  0.6675  0.6196
 7206SOL     OW22525   6.765   4.401   6.833  0.3361 -0.0306  0.0101
 7206SOL    HW122526   6.854   4.405   6.799 -0.4405  1.3204 -2.0452
 7206SOL    HW222527   6.720   4.339   6.776 -0.1445 -0.4281  0.8022
 7207SOL     OW22528   6.357   5.159   0.440  0.2687 -0.1038  0.1527
 7207SOL    HW122529   6.274   5.129   0.476 -0.1469  1.6012  0.7406
 7207SOL    HW222530   6.362   5.120   0.352 -0.4368 -1.3871  0.6675
 7208SOL     OW22531   6.399   5.853   6.215  0.3304 -0.1764  0.5340
 7208SOL    HW122532   6.384   5.947   6.230  2.7376  0.6576 -1.4769
 7208SOL    HW222533   6.358   5.810   6.290 -1.0526  2.4400  1.4369
 7209SOL     OW22534   1.193   4.794   7.568  0.1163 -0.7155 -0.2189
 7209SOL    HW122535   1.210   4.701   7.558 -0.2590 -0.9649  1.2566
 7209SOL    HW222536   1.159   4.803   7.657 -2.9054  0.3846 -1.3691
 7210SOL     OW22537   5.611   6.138   5.423 -0.1325  0.3236  0.2063
 7210SOL    HW122538   5.685   6.124   5.481  0.6898  1.2763 -0.5644
 7210SOL    HW222539   5.536   6.150   5.481  0.2085 -1.0976  0.9847
 7211SOL     OW22540   4.400   6.259   7.727 -0.4804 -0.3088  0.6172
 7211SOL    HW122541   4.439   6.279   7.812 -0.5092  0.9687  0.3489
 7211SOL    HW222542   4.434   6.173   7.704  2.9738  1.0627 -0.0243
 7212SOL     OW22543   0.983   7.569   3.396 -0.1603 -0.1640 -0.1184
 7212SOL    HW122544   1.048   7.557   3.327  0.3187 -0.1969  0.3377
 7212SOL    HW222545   0.915   7.623   3.355  1.2379  1.8485  0.0850
 7213SOL     OW22546   0.848   6.201   4.683  0.0847 -0.7171 -0.3818
 7213SOL    HW122547   0.897   6.252   4.619  0.9444  0.2071  0.9518
 7213SOL    HW222548   0.765   6.247   4.692  0.6661  0.2166  0.4538
 7214SOL     OW22549   6.071   4.232   1.696  0.1992 -0.3317 -0.6684
 7214SOL    HW122550   6.039   4.185   1.619  0.3576 -3.8990  1.2246
 7214SOL    HW222551   6.136   4.174   1.735 -0.3089  0.9860  2.5146
 7215SOL     OW22552   3.667   1.925   0.943  0.2825  0.2428  0.0343
 7215SOL    HW122553   3.742   1.941   0.886 -0.2728 -0.4466 -0.9171
 7215SOL    HW222554   3.705   1.892   1.024  0.9593 -1.4267 -0.9230
 7216SOL     OW22555   2.866   3.239   3.051  0.1524 -0.1899 -0.0031
 7216SOL    HW122556   2.866   3.145   3.031  1.4364  0.1805 -1.9362
 7216SOL    HW222557   2.941   3.251   3.109 -1.2844 -0.6338  2.0821
 7217SOL     OW22558   4.112   3.902   7.198  0.3115 -0.5546 -0.0957
 7217SOL    HW122559   4.126   3.995   7.181  0.4343 -0.4435  0.5645
 7217SOL    HW222560   4.201   3.866   7.208  0.2482 -0.5802  0.4282
 7218SOL     OW22561   5.753   4.014   5.683  0.0799 -0.4205  0.0712
 7218SOL    HW122562   5.661   4.006   5.657  0.3775  1.8636 -1.9371
 7218SOL    HW222563   5.755   3.982   5.773 -2.1715 -2.9335 -0.6522
 7219SOL     OW22564   2.866   4.015   7.180  0.6652  0.8793 -0.2500
 7219SOL    HW122565   2.851   4.109   7.171 -0.8019  0.6684 -0.2056
 7219SOL    HW222566   2.867   4.000   7.275 -0.1944  0.7152 -0.2523
 7220SOL     OW22567   0.049   6.597   4.748 -0.0297 -0.1781  0.3071
 7220SOL    HW122568   0.070   6.507   4.775 -1.1669 -1.0388 -1.4710
 7220SOL    HW222569   0.134   6.641   4.742  0.6837 -1.5754 -0.2338
 7221SOL     OW22570   0.223   4.844   0.933  0.4221  0.3964 -0.0171
 7221SOL    HW122571   0.191   4.757   0.907  0.3726  1.0087 -2.1702
 7221SOL    HW222572   0.147   4.902   0.924  1.1443  1.1643 -1.4448
 7222SOL     OW22573   7.536   3.541   4.778 -0.1350  0.2374 -0.1892
 7222SOL    HW122574   7.564   3.563   4.689 -1.2171  0.7768 -0.4139
 7222SOL    HW222575   7.530   3.626   4.823 -0.3872  0.0404  0.1542
 7223SOL     OW22576   1.133   3.982   2.452 -0.1303  0.2208  0.4539
 7223SOL    HW122577   1.158   3.950   2.539 -1.5320 -1.4787  0.2788
 7223SOL    HW222578   1.214   3.978   2.401  0.7251  1.2992  1.6656
 7224SOL     OW22579   1.510   0.900   0.651  0.0750  0.2167  0.2541
 7224SOL    HW122580   1.436   0.888   0.592  0.2876 -1.2839  0.2611
 7224SOL    HW222581   1.494   0.839   0.723  1.6237 -0.5946 -0.0485
 7225SOL     OW22582   2.956   5.257   4.184 -0.7999  0.6283  0.0728
 7225SOL    HW122583   2.899   5.227   4.113  0.4018  1.3097 -1.2194
 7225SOL    HW222584   2.901   5.318   4.233 -1.4006  0.7893 -0.7696
 7226SOL     OW22585   0.802   6.118   5.714 -0.4774 -0.2330 -0.1895
 7226SOL    HW122586   0.774   6.063   5.641  1.4078  0.4323 -1.4958
 7226SOL    HW222587   0.725   6.171   5.736 -2.0035 -2.5139  0.3796
 7227SOL     OW22588   1.930   1.887   1.785 -0.8044  0.2420  0.3460
 7227SOL    HW122589   1.997   1.879   1.853 -0.0872  0.9820 -0.2513
 7227SOL    HW222590   1.976   1.924   1.709 -1.9318  1.0103 -0.0018
 7228SOL     OW22591   2.968   0.269   2.157  0.3569 -0.7141 -0.0060
 7228SOL    HW122592   2.995   0.360   2.140 -0.9437  0.0886  1.8960
 7228SOL    HW222593   2.876   0.267   2.133  0.2879 -1.4348  0.3177
 7229SOL     OW22594   0.215   1.575   7.575 -0.2747 -0.4768 -0.2699
 7229SOL    HW122595   0.170   1.577   7.490 -0.9055  0.4653  0.0659
 7229SOL    HW222596   0.307   1.592   7.553 -0.3736 -0.5947 -0.7982
 7230SOL     OW22597   3.253   7.059   6.694  0.2158 -0.9078 -0.5462
 7230SOL    HW122598   3.318   7.120   6.730 -1.4030  0.4610  0.2160
 7230SOL    HW222599   3.288   7.034   6.609  1.5336  0.1217 -0.3462
 7231SOL     OW22600   1.704   3.019   5.946 -0.1975 -0.3958  0.0352
 7231SOL    HW122601   1.657   2.938   5.928  0.1050 -0.3785 -0.9174
 7231SOL    HW222602   1.704   3.066   5.862 -0.2329  0.5177  0.5334
 7232SOL     OW22603   6.729   5.567   0.102 -0.2167  0.0602 -0.4204
 7232SOL    HW122604   6.816   5.565   0.142 -0.9867  0.2181  1.3984
 7232SOL    HW222605   6.726   5.649   0.053 -0.0887  1.2290  1.4163
 7233SOL     OW22606   5.327   5.299   2.284  0.2751  0.3296  0.5974
 7233SOL    HW122607   5.254   5.330   2.232  0.6107 -0.6350 -0.5050
 7233SOL    HW222608   5.400   5.293   2.222  1.0853  0.5601  1.5031
 7234SOL     OW22609   2.186   4.423   5.355 -0.4436  0.1447  0.8157
 7234SOL    HW122610   2.154   4.333   5.347  1.9567 -0.6723 -0.5426
 7234SOL    HW222611   2.226   4.426   5.442 -0.8997  0.0402  1.0317
 7235SOL     OW22612   0.524   7.467   7.635  0.4364 -0.2477 -0.3951
 7235SOL    HW122613   0.466   7.508   7.700 -0.8232  1.2356 -2.3655
 7235SOL    HW222614   0.467   7.408   7.586  1.7932 -2.9311  0.9926
 7236SOL     OW22615   7.034   7.723   2.069 -0.2877  0.2381  0.3783
 7236SOL    HW122616   6.944   7.720   2.035 -0.3732  0.2042  0.5990
 7236SOL    HW222617   7.022   7.733   2.164 -0.0376  3.5169  0.1655
 7237SOL     OW22618   3.949   4.509   2.237 -0.3234  0.4471  0.0574
 7237SOL    HW122619   3.889   4.454   2.287 -0.0962 -1.1558 -1.3257
 7237SOL    HW222620   3.895   4.548   2.168  0.0795 -0.6103 -0.8930
 7238SOL     OW22621   1.555   2.168   2.349 -0.1230 -0.7106  0.4429
 7238SOL    HW122622   1.601   2.113   2.412  0.4463  0.4352  1.0610
 7238SOL    HW222623   1.462   2.150   2.364  0.0625 -1.7739  0.3664
 7239SOL     OW22624   2.706   6.089   6.547  0.0046 -0.1468  0.1464
 7239SOL    HW122625   2.718   6.059   6.637  1.2387  2.6019  1.0101
 7239SOL    HW222626   2.776   6.153   6.533 -1.6581  1.3901 -1.8761
 7240SOL     OW22627   1.254   7.274   5.427 -0.3162  0.2515 -0.2751
 7240SOL    HW122628   1.276   7.181   5.439 -1.6465 -0.1037 -0.3617
 7240SOL    HW222629   1.177   7.272   5.369 -1.3570  1.3172  1.0286
 7241SOL     OW22630   3.580   5.971   2.462 -0.3753  0.4163 -0.1350
 7241SOL    HW122631   3.485   5.972   2.450 -0.5423 -0.5970  0.9708
 7241SOL    HW222632   3.601   5.879   2.480  0.8194  0.6261 -0.3673
 7242SOL     OW22633   2.148   7.257   6.502  0.4460  0.0169  0.2434
 7242SOL    HW122634   2.185   7.331   6.549 -1.1251  0.7470  0.3986
 7242SOL    HW222635   2.186   7.262   6.415  1.3041  0.2587  0.6248
 7243SOL     OW22636   0.847   1.304   5.524 -0.3753 -0.1668  0.1461
 7243SOL    HW122637   0.778   1.371   5.523  0.6558  1.0392  2.3214
 7243SOL    HW222638   0.840   1.265   5.611  0.8887 -0.9030 -0.0573
 7244SOL     OW22639   6.073   6.097   7.500 -0.0393 -0.1525 -0.4435
 7244SOL    HW122640   6.057   6.018   7.449  0.2940  0.0230 -0.8270
 7244SOL    HW222641   6.092   6.066   7.588 -3.5393 -0.3661  0.3922
 7245SOL     OW22642   1.331   5.525   3.680 -0.2639 -0.1658  0.7750
 7245SOL    HW122643   1.352   5.610   3.718 -1.4072  0.2387  0.5436
 7245SOL    HW222644   1.415   5.478   3.678  0.3660  0.9168  0.9724
 7246SOL     OW22645   6.376   0.710   0.803 -0.2632 -0.7620  0.1418
 7246SOL    HW122646   6.341   0.787   0.759  0.7866  0.5632  1.5292
 7246SOL    HW222647   6.299   0.660   0.830 -1.0088  0.4720  0.3617
 7247SOL     OW22648   3.137   3.155   7.624 -0.3471 -0.0158  0.4707
 7247SOL    HW122649   3.162   3.063   7.619  0.4553  0.2444 -0.7731
 7247SOL    HW222650   3.191   3.191   7.694  0.5854 -0.1290 -0.1704
 7248SOL     OW22651   0.092   4.892   5.213  0.3134  0.0724  0.0871
 7248SOL    HW122652   0.159   4.843   5.166 -0.6246 -0.9252 -0.2547
 7248SOL    HW222653   0.088   4.851   5.299 -0.1906 -0.2079 -0.0625
 7249SOL     OW22654   3.695   4.115   1.303 -0.0196 -0.3583 -0.4510
 7249SOL    HW122655   3.642   4.036   1.299  1.1922 -1.1637 -1.3148
 7249SOL    HW222656   3.768   4.092   1.359  1.4691 -0.6114 -2.3771
 7250SOL     OW22657   7.617   7.097   1.256  0.1411  0.8977 -0.0557
 7250SOL    HW122658   7.555   7.103   1.328  1.3753 -0.5535  1.2112
 7250SOL    HW222659   7.585   7.158   1.190 -2.5751  0.2495  0.5640
 7251SOL     OW22660   4.751   1.198   0.088 -0.5275  0.0779  0.2074
 7251SOL    HW122661   4.743   1.125   0.027  1.9855 -0.8153  0.8174
 7251SOL    HW222662   4.767   1.274   0.031 -2.0309 -0.0125 -0.3732
 7252SOL     OW22663   1.268   6.807   6.660  0.5593  0.1515  0.6306
 7252SOL    HW122664   1.331   6.750   6.703  0.0783 -0.4480  0.5572
 7252SOL    HW222665   1.200   6.748   6.629 -0.2892  0.8307  1.1453
 7253SOL     OW22666   4.298   6.153   1.611 -0.4319  0.0417  0.0511
 7253SOL    HW122667   4.216   6.180   1.653  0.4103  0.4171  1.5521
 7253SOL    HW222668   4.366   6.194   1.664  0.7561 -0.9251 -0.6715
 7254SOL     OW22669   4.790   2.205   6.031  0.0424  0.1375 -0.1590
 7254SOL    HW122670   4.727   2.232   5.964 -0.1921  1.4349  0.5554
 7254SOL    HW222671   4.779   2.110   6.037 -0.9051  0.1760 -0.9763
 7255SOL     OW22672   6.884   6.129   0.122 -0.0484 -0.0004  0.0533
 7255SOL    HW122673   6.900   6.153   0.213 -1.8654  1.6740 -0.0043
 7255SOL    HW222674   6.807   6.071   0.126 -0.6899  0.7967 -0.4504
 7256SOL     OW22675   3.332   6.791   6.856 -0.7668  0.2532 -0.2757
 7256SOL    HW122676   3.283   6.873   6.846 -3.2194 -0.7448  2.3015
 7256SOL    HW222677   3.364   6.792   6.946  0.5157 -0.9718 -0.6735
 7257SOL     OW22678   1.075   5.503   5.700 -0.1044 -0.0636 -0.4108
 7257SOL    HW122679   1.148   5.458   5.741  0.3052  0.8736 -0.0689
 7257SOL    HW222680   1.111   5.588   5.673 -1.0087  0.3372 -0.4084
 7258SOL     OW22681   6.700   1.517   2.720  0.3064 -0.1693  0.2986
 7258SOL    HW122682   6.678   1.505   2.627  1.6678 -0.9417  0.0525
 7258SOL    HW222683   6.777   1.462   2.733  0.0310 -0.1997  1.9397
 7259SOL     OW22684   4.628   0.431   2.585 -0.0362  0.1668  0.3861
 7259SOL    HW122685   4.621   0.460   2.676  1.4649  1.6965  0.0898
 7259SOL    HW222686   4.675   0.348   2.590  1.2959  0.9000  0.9956
 7260SOL     OW22687   5.112   5.485   7.360  0.3584  0.4360 -0.9548
 7260SOL    HW122688   5.030   5.478   7.310 -0.3677 -0.0133  0.2559
 7260SOL    HW222689   5.086   5.473   7.451  1.9927 -1.4654 -0.6654
 7261SOL     OW22690   0.986   0.267   3.709  0.0612 -0.3591 -0.7111
 7261SOL    HW122691   1.005   0.173   3.710 -0.4059 -0.4832  1.4824
 7261SOL    HW222692   1.069   0.308   3.731 -0.5783 -0.5851  2.7752
 7262SOL     OW22693   5.766   7.612   7.031  0.3235 -0.0316  0.8670
 7262SOL    HW122694   5.792   7.580   6.944  0.1277 -2.4843  1.6380
 7262SOL    HW222695   5.844   7.656   7.065  0.6213  0.3363 -0.2497
 7263SOL     OW22696   3.647   1.857   2.881  0.1606 -0.4425  0.3234
 7263SOL    HW122697   3.587   1.932   2.879  0.8940  0.1457  0.1352
 7263SOL    HW222698   3.612   1.800   2.949 -0.0239  0.3939  0.9445
 7264SOL     OW22699   5.636   3.601   5.295 -0.3030  0.2481  0.0253
 7264SOL    HW122700   5.663   3.609   5.387  0.2889 -0.0974 -0.1084
 7264SOL    HW222701   5.701   3.541   5.257  0.4221  1.6214 -1.0050
 7265SOL     OW22702   2.329   7.204   1.581  0.5373 -0.2018 -0.4677
 7265SOL    HW122703   2.400   7.182   1.520 -0.6580  0.6420 -2.2320
 7265SOL    HW222704   2.362   7.280   1.630  1.3166 -0.5833 -0.3830
 7266SOL     OW22705   1.541   6.484   4.227  0.1949  1.0846 -0.1638
 7266SOL    HW122706   1.519   6.399   4.266 -0.5797  0.6174 -1.5514
 7266SOL    HW222707   1.636   6.490   4.237  0.2769  0.0026 -0.1231
 7267SOL     OW22708   0.151   2.952   0.503  0.0977  0.6969  0.4831
 7267SOL    HW122709   0.185   2.973   0.416  0.3621  2.5760  1.0025
 7267SOL    HW222710   0.228   2.924   0.553  0.5909  2.9058  1.0502
 7268SOL     OW22711   5.030   2.913   4.954  0.1998 -0.2732 -0.8554
 7268SOL    HW122712   5.119   2.891   4.925  1.1807 -0.1893  1.8106
 7268SOL    HW222713   5.013   2.852   5.025 -0.8444  1.3936  0.3880
 7269SOL     OW22714   5.157   2.224   0.602 -0.7126 -0.2719 -0.0166
 7269SOL    HW122715   5.221   2.263   0.662 -1.9361 -1.7186  2.3362
 7269SOL    HW222716   5.089   2.290   0.593 -0.4735 -0.0120  0.0501
 7270SOL     OW22717   0.043   6.535   0.414  0.7166  0.0355  0.3578
 7270SOL    HW122718   0.079   6.483   0.343 -0.3613 -0.4238  0.1299
 7270SOL    HW222719   0.119   6.558   0.468  2.0223  2.7076 -2.3261
 7271SOL     OW22720   3.129   1.444   0.150  0.5447 -0.0239 -0.1891
 7271SOL    HW122721   3.134   1.419   0.243  1.3193  1.3231  0.1579
 7271SOL    HW222722   3.067   1.382   0.112 -0.8664  0.2402  1.5260
 7272SOL     OW22723   0.889   2.605   5.292  0.0963 -0.1007 -0.1488
 7272SOL    HW122724   0.891   2.522   5.244  1.8740 -1.7560  2.5086
 7272SOL    HW222725   0.966   2.602   5.349  0.6565  3.7454 -0.4122
 7273SOL     OW22726   5.818   3.378   2.116  0.4210  0.1942 -0.7148
 7273SOL    HW122727   5.863   3.395   2.033 -1.5052 -0.0918 -1.8837
 7273SOL    HW222728   5.739   3.331   2.091  0.1369 -0.5486  1.3844
 7274SOL     OW22729   7.310   5.729   1.567 -0.3101  0.6314  0.0691
 7274SOL    HW122730   7.260   5.790   1.621 -0.6672  0.9931 -0.6517
 7274SOL    HW222731   7.402   5.753   1.583 -0.2982 -0.4700  1.9058
 7275SOL     OW22732   2.427   7.126   2.787  0.0525 -0.2064  0.5328
 7275SOL    HW122733   2.400   7.038   2.761  0.0142 -0.7097  2.1843
 7275SOL    HW222734   2.471   7.161   2.709 -0.7277 -1.3280 -0.4492
 7276SOL     OW22735   2.807   4.260   0.863  0.2827  0.1830 -0.0517
 7276SOL    HW122736   2.875   4.325   0.878 -0.4968  0.8727  0.6031
 7276SOL    HW222737   2.733   4.289   0.916  0.1856 -1.6993  0.9334
 7277SOL     OW22738   3.345   7.317   4.624 -0.2247 -0.1348  0.2225
 7277SOL    HW122739   3.301   7.233   4.609  1.1720 -0.7891 -0.3431
 7277SOL    HW222740   3.370   7.347   4.537 -0.3533  0.6875  0.4550
 7278SOL     OW22741   1.137   5.491   2.020 -0.0708  0.3732  0.1125
 7278SOL    HW122742   1.090   5.551   1.962  1.6971  1.6011 -0.1399
 7278SOL    HW222743   1.135   5.407   1.975 -0.5490  0.8139 -0.7099
 7279SOL     OW22744   1.034   0.750   6.474 -0.2894 -0.2294  0.0983
 7279SOL    HW122745   1.103   0.706   6.524 -1.4427 -0.6428  1.3836
 7279SOL    HW222746   1.066   0.840   6.464  0.3608 -0.3619  0.8549
 7280SOL     OW22747   5.011   2.760   6.175  0.3921 -0.3208 -0.1353
 7280SOL    HW122748   4.939   2.700   6.193 -1.1638  2.0375  2.3112
 7280SOL    HW222749   5.008   2.775   6.081 -1.9266 -0.7861 -0.1895
 7281SOL     OW22750   0.766   1.572   4.236 -0.4251  0.0525  0.8926
 7281SOL    HW122751   0.682   1.530   4.215 -0.4617  0.7524 -0.5163
 7281SOL    HW222752   0.772   1.568   4.331 -0.3063 -3.3451  0.8624
 7282SOL     OW22753   3.717   7.217   2.117  0.3694 -0.4561  0.3649
 7282SOL    HW122754   3.812   7.218   2.107  0.2145 -0.8407 -1.6201
 7282SOL    HW222755   3.693   7.310   2.125  0.6618  0.0925 -3.2182
 7283SOL     OW22756   6.701   5.391   1.760  0.0843  0.0643  0.1256
 7283SOL    HW122757   6.685   5.306   1.803 -4.4916  2.5401  4.3927
 7283SOL    HW222758   6.762   5.436   1.819 -0.4715  0.9935  0.0073
 7284SOL     OW22759   5.055   0.063   5.430 -0.2743 -0.2294 -0.4045
 7284SOL    HW122760   5.085   0.098   5.345 -0.0065  0.2495 -0.1188
 7284SOL    HW222761   4.995  -0.007   5.407  2.8160 -2.8800 -1.0812
 7285SOL     OW22762   1.840   0.997   4.964  0.1146 -0.2088 -0.8351
 7285SOL    HW122763   1.764   1.051   4.944  0.1811  0.1463 -0.1584
 7285SOL    HW222764   1.803   0.921   5.011  0.1307 -0.2373 -0.8692
 7286SOL     OW22765   1.841   5.383   2.022  0.0338 -0.9853 -0.0918
 7286SOL    HW122766   1.863   5.296   1.987 -0.1649 -0.8156 -0.6392
 7286SOL    HW222767   1.835   5.439   1.945 -2.0086 -0.9405  0.0502
 7287SOL     OW22768   7.525   0.178   5.354 -0.1473  0.1657 -0.0334
 7287SOL    HW122769   7.432   0.173   5.377 -0.2908 -3.3326 -0.6557
 7287SOL    HW222770   7.545   0.090   5.320  3.4310  0.7635  0.1614
 7288SOL     OW22771   3.149   6.634   3.086  0.2598  0.1343  0.6639
 7288SOL    HW122772   3.084   6.606   3.150 -0.9762  3.3554  0.9812
 7288SOL    HW222773   3.106   6.620   3.001  0.5560 -0.9724  0.6873
 7289SOL     OW22774   5.858   5.457   1.978 -0.5657  0.1144  0.6579
 7289SOL    HW122775   5.925   5.398   2.010 -0.2948 -0.0569 -0.2027
 7289SOL    HW222776   5.802   5.473   2.054  0.3041  0.0732  1.3195
 7290SOL     OW22777   6.930   4.142   4.837  0.1408  0.2349 -0.0848
 7290SOL    HW122778   6.970   4.066   4.879  1.3311  0.3161 -1.0362
 7290SOL    HW222779   6.931   4.210   4.905  1.1177  0.0697  0.0707
 7291SOL     OW22780   0.615   4.519   2.786  0.3877  0.4256  0.0185
 7291SOL    HW122781   0.687   4.494   2.843  1.9012  3.1328 -0.5140
 7291SOL    HW222782   0.650   4.513   2.697 -0.1553  1.3680 -0.2815
 7292SOL     OW22783   5.972   5.659   2.605 -0.3209 -0.5354 -0.3489
 7292SOL    HW122784   5.884   5.626   2.625 -0.4597  0.9594  1.8381
 7292SOL    HW222785   6.027   5.581   2.606 -1.4664 -1.3932 -0.9530
 7293SOL     OW22786   4.912   7.542   2.055 -0.1743 -0.3659 -0.0518
 7293SOL    HW122787   4.910   7.546   1.960  1.1147 -2.8436 -0.2607
 7293SOL    HW222788   4.824   7.516   2.080 -0.5449  0.3891 -0.5533
 7294SOL     OW22789   0.702   3.921   4.878  0.5153 -0.4697  0.3293
 7294SOL    HW122790   0.692   3.953   4.788  1.0413 -0.4543  0.2771
 7294SOL    HW222791   0.796   3.908   4.890  0.6130  0.8822  1.3323
 7295SOL     OW22792   1.885   7.106   0.726  0.1733  0.6348  0.0949
 7295SOL    HW122793   1.822   7.057   0.778  0.5032 -0.4096 -0.4634
 7295SOL    HW222794   1.833   7.173   0.681 -0.2378  1.0019  1.0787
 7296SOL     OW22795   6.922   3.427   0.342 -0.2972 -0.1849  0.3774
 7296SOL    HW122796   6.892   3.517   0.333  0.0635  0.0224  1.1430
 7296SOL    HW222797   6.851   3.382   0.387  1.2326  0.7989  4.1679
 7297SOL     OW22798   3.885   3.798   2.937 -0.1928  0.0081  0.0566
 7297SOL    HW122799   3.907   3.884   2.974 -0.5039 -0.0229  0.3171
 7297SOL    HW222800   3.968   3.752   2.933  0.0470  0.4743 -0.4853
 7298SOL     OW22801   0.672   3.139   6.380 -0.2284 -0.2847  0.1909
 7298SOL    HW122802   0.693   3.187   6.299  1.7469  1.0856  1.4249
 7298SOL    HW222803   0.733   3.065   6.380  0.0477 -0.0576  0.6088
 7299SOL     OW22804   7.290   6.622   0.536 -0.2435  0.0611  0.6186
 7299SOL    HW122805   7.377   6.602   0.500 -0.7620 -0.5035 -0.3445
 7299SOL    HW222806   7.308   6.651   0.626  0.9267 -0.2185  0.4955
 7300SOL     OW22807   3.332   6.359   6.006  0.0797 -0.5150  0.2847
 7300SOL    HW122808   3.425   6.345   5.987 -0.1577 -1.1247 -0.4380
 7300SOL    HW222809   3.296   6.271   6.017 -0.5431 -0.3018 -0.0350
 7301SOL     OW22810   1.270   3.693   2.714 -0.0912 -0.2756  0.5435
 7301SOL    HW122811   1.345   3.639   2.739 -0.3241  0.0924  2.1433
 7301SOL    HW222812   1.309   3.771   2.674  0.2646 -1.1902 -1.0002
 7302SOL     OW22813   0.608   6.659   1.775 -0.3436 -0.1101 -0.5481
 7302SOL    HW122814   0.641   6.748   1.782  2.3408 -1.0863  0.2035
 7302SOL    HW222815   0.619   6.636   1.682 -0.3926  0.0843 -0.6026
 7303SOL     OW22816   7.398   4.383   4.831 -0.2904 -0.2862 -0.2538
 7303SOL    HW122817   7.425   4.365   4.741 -0.4110 -1.3266 -0.0952
 7303SOL    HW222818   7.479   4.382   4.881 -0.2311  0.2163 -0.3383
 7304SOL     OW22819   6.215   5.986   4.150 -0.2009 -0.1264 -0.9393
 7304SOL    HW122820   6.207   6.049   4.079  0.9069 -0.7421 -1.6330
 7304SOL    HW222821   6.143   6.008   4.209 -0.2659  1.3217 -1.5134
 7305SOL     OW22822   6.514   6.021   1.875 -0.3678 -0.0014 -0.2205
 7305SOL    HW122823   6.488   6.046   1.786 -1.4608  2.0721  0.6158
 7305SOL    HW222824   6.431   6.017   1.923  0.3587  0.7248  1.1273
 7306SOL     OW22825   0.924   2.685   4.735  0.4601  0.2182  0.6574
 7306SOL    HW122826   0.923   2.776   4.765  0.9157  0.9193 -1.3140
 7306SOL    HW222827   0.979   2.640   4.799 -0.3273  1.1590  2.0527
 7307SOL     OW22828   2.861   6.665   0.420  0.4093  0.3349  0.1348
 7307SOL    HW122829   2.863   6.575   0.385 -1.4674  0.3639 -0.1523
 7307SOL    HW222830   2.952   6.691   0.424  0.9345 -1.2421 -0.7092
 7308SOL     OW22831   0.870   1.631   0.291  0.7273 -0.4101  0.9205
 7308SOL    HW122832   0.909   1.584   0.365  1.7799  0.6008  1.0364
 7308SOL    HW222833   0.883   1.724   0.312  0.8333 -0.1023 -0.4152
 7309SOL     OW22834   0.512   1.146   5.936  0.6439  0.2225  0.1073
 7309SOL    HW122835   0.474   1.145   6.024 -0.9354 -0.1373 -0.5551
 7309SOL    HW222836   0.507   1.055   5.907  1.1592  0.3420 -0.3749
 7310SOL     OW22837   2.175   1.906   6.153  0.4026  0.4546 -0.2959
 7310SOL    HW122838   2.098   1.868   6.111  0.0956 -1.2953  1.7298
 7310SOL    HW222839   2.199   1.979   6.096 -2.0450  0.3462 -1.5968
 7311SOL     OW22840   0.654   0.159   3.819  0.4028  0.2371  0.1668
 7311SOL    HW122841   0.704   0.082   3.847 -1.0297 -1.2543 -1.1630
 7311SOL    HW222842   0.692   0.183   3.734  0.4039  0.5963  0.2659
 7312SOL     OW22843   3.199   6.106   0.006  0.0464 -0.5781 -0.2511
 7312SOL    HW122844   3.265   6.046  -0.030 -0.4441 -1.2401 -0.0589
 7312SOL    HW222845   3.126   6.049   0.030  0.3036 -0.1477  1.6947
 7313SOL     OW22846   6.098   7.429   2.867  0.1791 -0.5361 -0.2634
 7313SOL    HW122847   6.069   7.520   2.858 -0.5480 -0.5958  1.1618
 7313SOL    HW222848   6.136   7.425   2.955  0.2007 -1.6122 -0.3049
 7314SOL     OW22849   2.003   3.058   4.793 -0.2218 -0.1479 -0.5261
 7314SOL    HW122850   2.016   3.146   4.760 -0.5556 -0.0476 -0.3952
 7314SOL    HW222851   1.915   3.034   4.763 -0.7111  0.1128  0.6490
 7315SOL     OW22852   6.982   2.757   4.299 -0.1580  0.1706  0.6280
 7315SOL    HW122853   6.948   2.769   4.387  2.2979 -1.2786  1.8698
 7315SOL    HW222854   7.054   2.695   4.308  0.9228  0.8103 -2.2261
 7316SOL     OW22855   2.352   2.337   6.794 -0.3499 -0.1052  0.9566
 7316SOL    HW122856   2.358   2.407   6.860 -0.3710  0.5988  0.2348
 7316SOL    HW222857   2.443   2.317   6.771 -0.3529 -0.0891  0.9312
 7317SOL     OW22858   3.933   3.325   6.770 -0.1773  0.1902  0.1004
 7317SOL    HW122859   3.979   3.294   6.847  0.5577  1.7085  0.3111
 7317SOL    HW222860   3.855   3.270   6.764  0.5066 -0.9136  1.0566
 7318SOL     OW22861   4.610   6.916   3.628  0.1854 -0.4338  0.1627
 7318SOL    HW122862   4.557   6.857   3.575 -0.1910  1.8400 -2.1913
 7318SOL    HW222863   4.690   6.930   3.577  0.0722  1.3931  0.4022
 7319SOL     OW22864   2.205   5.587   3.052 -0.5084 -0.2628 -0.2097
 7319SOL    HW122865   2.115   5.618   3.053 -0.3340  0.2796 -0.7950
 7319SOL    HW222866   2.243   5.619   3.134 -0.2243  1.4305 -0.9631
 7320SOL     OW22867   3.686   5.586   3.191  0.3378 -0.1429  0.3193
 7320SOL    HW122868   3.625   5.617   3.258  1.3451  1.3852  0.5802
 7320SOL    HW222869   3.712   5.498   3.220 -0.5522 -0.1895  1.0054
 7321SOL     OW22870   6.493   1.192   6.158 -0.1832 -0.1934  0.5827
 7321SOL    HW122871   6.442   1.131   6.104 -0.5619  0.9781 -0.4617
 7321SOL    HW222872   6.563   1.139   6.195 -0.7482 -1.3434  0.0721
 7322SOL     OW22873   7.233   4.739   0.457  0.5101 -0.3428 -0.3956
 7322SOL    HW122874   7.241   4.674   0.387 -0.7201  0.3424 -1.2097
 7322SOL    HW222875   7.301   4.804   0.436 -0.9599  0.7698 -2.0359
 7323SOL     OW22876   5.298   7.353   6.753 -0.4949 -0.3087  0.2030
 7323SOL    HW122877   5.377   7.320   6.797 -0.4818 -0.2152  0.2485
 7323SOL    HW222878   5.302   7.313   6.666 -1.0090 -1.2343  0.5967
 7324SOL     OW22879   2.266   3.010   6.618  0.2636  0.0537  0.3272
 7324SOL    HW122880   2.220   2.965   6.547  1.5695  0.9665 -1.1576
 7324SOL    HW222881   2.209   2.998   6.695 -0.6956 -1.8381 -0.6035
 7325SOL     OW22882   5.799   3.561   0.229  0.1410 -0.1275 -0.0534
 7325SOL    HW122883   5.884   3.600   0.211  0.5811 -0.4896  1.1300
 7325SOL    HW222884   5.782   3.503   0.155  1.7842 -1.4314  0.5239
 7326SOL     OW22885   2.993   4.458   0.959 -0.3315  0.3262 -0.8375
 7326SOL    HW122886   3.039   4.483   0.879  3.3581 -0.0946  0.9240
 7326SOL    HW222887   2.981   4.541   1.006 -1.5768  0.4479 -1.3382
 7327SOL     OW22888   1.789   6.549   1.364 -1.0792  0.1698 -0.9350
 7327SOL    HW122889   1.778   6.521   1.273  0.9063 -0.3118 -1.0746
 7327SOL    HW222890   1.860   6.494   1.397 -0.3892  1.7265  0.2771
 7328SOL     OW22891   4.825   7.307   6.062  0.8761 -0.2652  0.1124
 7328SOL    HW122892   4.779   7.224   6.071 -0.9124  0.8267  1.8145
 7328SOL    HW222893   4.851   7.310   5.970  2.1879 -3.2415  0.2657
 7329SOL     OW22894   5.014   0.602   0.324 -0.2679 -0.6155 -0.6375
 7329SOL    HW122895   4.989   0.599   0.416  0.2023 -1.4948 -0.5220
 7329SOL    HW222896   5.036   0.511   0.303  1.7933 -0.0796 -0.9996
 7330SOL     OW22897   5.555   4.372   7.055  0.8731 -0.0279 -0.1401
 7330SOL    HW122898   5.627   4.388   7.116  1.5195  0.5038 -1.0130
 7330SOL    HW222899   5.590   4.309   6.992 -0.0677 -1.2316  0.4925
 7331SOL     OW22900   1.582   4.808   6.836  0.6026  0.1644  0.1529
 7331SOL    HW122901   1.609   4.894   6.867 -0.9641  0.2267  1.4735
 7331SOL    HW222902   1.593   4.750   6.912  0.8654 -0.6366 -0.4799
 7332SOL     OW22903   7.043   7.541   7.240 -0.1052 -0.3858  0.1393
 7332SOL    HW122904   7.085   7.509   7.320  2.0636 -2.5131 -1.6865
 7332SOL    HW222905   6.968   7.482   7.227 -0.3291 -0.1766  0.4708
 7333SOL     OW22906   7.511   2.202   3.615 -0.2617 -0.0877  0.2703
 7333SOL    HW122907   7.495   2.295   3.602  2.0354  0.2256 -0.7588
 7333SOL    HW222908   7.602   2.189   3.589  0.0738 -2.2884  2.1438
 7334SOL     OW22909   3.049   1.544   4.683 -0.5061 -0.1925 -0.4137
 7334SOL    HW122910   3.121   1.494   4.722 -0.4741  0.0748 -0.1317
 7334SOL    HW222911   3.081   1.567   4.596 -0.1616  0.1133 -0.2095
 7335SOL     OW22912   6.324   1.860   5.864  0.0753 -0.3369 -0.0598
 7335SOL    HW122913   6.262   1.912   5.812  1.2373  1.2058  0.0296
 7335SOL    HW222914   6.278   1.843   5.946 -0.7914 -0.5162 -0.5761
 7336SOL     OW22915   3.593   1.178   5.696  0.1259  0.1948  0.3612
 7336SOL    HW122916   3.625   1.197   5.607  2.1555  1.8798  1.3722
 7336SOL    HW222917   3.510   1.132   5.682  0.7002 -0.1776 -2.4056
 7337SOL     OW22918   4.309   4.623   6.424 -0.3564 -0.1147  0.3449
 7337SOL    HW122919   4.305   4.585   6.336 -1.6656 -0.6977  0.6356
 7337SOL    HW222920   4.230   4.591   6.467 -0.8711  1.9566  1.0363
 7338SOL     OW22921   5.862   4.862   4.927  0.2002  0.2339  0.3125
 7338SOL    HW122922   5.940   4.868   4.872 -1.1392 -0.7311 -1.8201
 7338SOL    HW222923   5.817   4.945   4.915  0.3881  0.3929  0.7140
 7339SOL     OW22924   6.494   3.482   4.381 -0.5129  0.5258 -0.0475
 7339SOL    HW122925   6.541   3.452   4.304 -1.7338  0.7466 -0.8979
 7339SOL    HW222926   6.556   3.541   4.425  0.7340 -0.7447 -0.0423
 7340SOL     OW22927   6.644   1.679   4.648 -0.4449  0.0420  0.1823
 7340SOL    HW122928   6.706   1.619   4.608  0.1553  1.1461 -0.6003
 7340SOL    HW222929   6.558   1.647   4.621 -0.1464 -0.5692 -0.0615
 7341SOL     OW22930   4.404   2.675   0.839  0.0573 -0.1467 -0.0061
 7341SOL    HW122931   4.374   2.752   0.886 -0.7671 -0.2727 -0.3012
 7341SOL    HW222932   4.338   2.608   0.858 -0.0576 -0.3269 -0.9506
 7342SOL     OW22933   6.342   6.908   0.142 -0.3759  0.0850  0.0632
 7342SOL    HW122934   6.320   6.912   0.048 -0.8950 -1.2997  0.0987
 7342SOL    HW222935   6.345   6.814   0.161 -2.4946  0.3280  1.9294
 7343SOL     OW22936   1.397   5.136   3.282 -0.0074 -0.0942  0.0618
 7343SOL    HW122937   1.360   5.222   3.304  0.2765  0.0143  0.1128
 7343SOL    HW222938   1.380   5.083   3.360  0.9029  0.2605  0.5129
 7344SOL     OW22939   3.894   0.708   3.781  0.0237  0.8372 -0.0759
 7344SOL    HW122940   3.896   0.616   3.757 -1.9407  0.4811  0.9317
 7344SOL    HW222941   3.806   0.738   3.757  0.0972  2.0242  1.0035
 7345SOL     OW22942   1.870   4.099   7.091  0.0916 -0.1966 -0.1584
 7345SOL    HW122943   1.861   4.045   7.170 -0.0764 -0.5014 -0.3830
 7345SOL    HW222944   1.860   4.189   7.122 -0.9656 -0.3642  0.0365
 7346SOL     OW22945   0.734   0.564   7.650  0.1066  0.1582  0.1455
 7346SOL    HW122946   0.751   0.656   7.670  1.1522 -0.2012  1.0291
 7346SOL    HW222947   0.718   0.524   7.735  0.3136 -0.6024 -0.1660
 7347SOL     OW22948   6.173   0.490   1.322 -0.4892  0.2509  0.5903
 7347SOL    HW122949   6.186   0.583   1.307 -2.4155  0.3713 -0.6550
 7347SOL    HW222950   6.261   0.452   1.317  0.3452  2.0040  1.3635
 7348SOL     OW22951   4.831   0.036   2.654  0.3719  0.6489  0.1140
 7348SOL    HW122952   4.864   0.120   2.685  0.2940 -0.0234  2.1685
 7348SOL    HW222953   4.753   0.020   2.707 -0.3085 -0.1640 -1.0937
 7349SOL     OW22954   4.477   5.477   6.158  0.6957  0.2282  0.5843
 7349SOL    HW122955   4.486   5.542   6.228  0.6106 -0.8797  1.6583
 7349SOL    HW222956   4.450   5.397   6.203 -4.4383  0.6239 -1.1506
 7350SOL     OW22957   3.703   4.638   3.963  0.0680  0.0798 -0.0938
 7350SOL    HW122958   3.738   4.614   4.049  0.3079  0.4719 -0.0787
 7350SOL    HW222959   3.629   4.696   3.982  0.1331  0.1825 -0.1524
 7351SOL     OW22960   6.187   5.422   0.038 -0.5432  0.1956 -0.5864
 7351SOL    HW122961   6.270   5.467   0.052 -0.7410  0.5140 -0.4187
 7351SOL    HW222962   6.201   5.370  -0.041 -0.2973  0.5163 -0.7579
 7352SOL     OW22963   7.083   6.801   5.890 -0.4944  0.0921  0.3055
 7352SOL    HW122964   7.119   6.800   5.978 -0.6401  3.1569  0.5097
 7352SOL    HW222965   7.127   6.875   5.847 -2.7144  0.6672 -1.1310
 7353SOL     OW22966   5.366   1.439   7.537 -0.5267  0.0671  0.6736
 7353SOL    HW122967   5.428   1.432   7.610  1.3828 -1.2208 -0.9789
 7353SOL    HW222968   5.375   1.530   7.507  0.3241  0.0062  0.7027
 7354SOL     OW22969   7.107   3.653   3.595 -0.2007 -0.3638  0.2616
 7354SOL    HW122970   7.036   3.589   3.590  0.6959 -1.3851  0.1785
 7354SOL    HW222971   7.186   3.601   3.610  0.3214  0.8570  2.1905
 7355SOL     OW22972   5.461   3.589   5.564  0.5577 -0.6099 -0.3704
 7355SOL    HW122973   5.453   3.652   5.491  0.8462  0.7813  0.7460
 7355SOL    HW222974   5.550   3.602   5.597 -0.3580  0.6859  1.8360
 7356SOL     OW22975   3.659   2.830   0.833 -0.1597  0.1672 -0.2181
 7356SOL    HW122976   3.644   2.779   0.754 -1.1366 -0.9865  0.6755
 7356SOL    HW222977   3.678   2.918   0.802  1.3831 -0.6707 -1.8002
 7357SOL     OW22978   1.973   7.357   3.602 -0.0895 -0.4221 -0.7426
 7357SOL    HW122979   1.930   7.416   3.663  0.1346  0.4421 -1.4111
 7357SOL    HW222980   1.906   7.293   3.578 -0.0561 -1.0611  0.7427
 7358SOL     OW22981   6.746   5.788   7.708 -0.1359 -0.7231 -0.1433
 7358SOL    HW122982   6.680   5.841   7.663 -0.3134  0.4035  1.3928
 7358SOL    HW222983   6.829   5.829   7.685  0.2003 -2.6283 -2.7514
 7359SOL     OW22984   6.440   1.769   4.868 -0.4135  0.0579 -0.5580
 7359SOL    HW122985   6.524   1.759   4.822  0.2432 -1.2084  0.8390
 7359SOL    HW222986   6.375   1.733   4.808  0.2251 -0.1948 -1.1092
 7360SOL     OW22987   2.498   7.243   5.867 -0.1973 -0.0695 -0.2130
 7360SOL    HW122988   2.555   7.226   5.792 -1.1341 -0.2133 -0.9160
 7360SOL    HW222989   2.464   7.331   5.851  0.2878  0.2565  0.5130
 7361SOL     OW22990   4.463   6.487   1.032  0.4528 -0.2918 -0.0359
 7361SOL    HW122991   4.476   6.474   1.126 -0.3734 -1.8493 -0.1021
 7361SOL    HW222992   4.369   6.477   1.019  0.3230  1.4924 -0.8397
 7362SOL     OW22993   6.464   1.354   7.702  0.3537  0.2369 -0.3345
 7362SOL    HW122994   6.481   1.262   7.679  0.6069  0.4693 -1.1155
 7362SOL    HW222995   6.546   1.399   7.680 -0.1581  0.8399 -1.0197
 7363SOL     OW22996   5.417   4.170   5.168 -0.3579  0.5157 -0.1813
 7363SOL    HW122997   5.379   4.160   5.080  0.9870 -0.8912 -0.6447
 7363SOL    HW222998   5.494   4.225   5.154 -0.9137  1.4454  0.3659
 7364SOL     OW22999   0.500   5.714   1.723  0.1037  0.0907 -0.2293
 7364SOL    HW123000   0.407   5.691   1.717 -0.2994  1.2408  0.9724
 7364SOL    HW223001   0.500   5.809   1.734  1.3281 -0.0247  1.0907
 7365SOL     OW23002   2.808   2.797   4.650  0.0966  0.5301  0.0609
 7365SOL    HW123003   2.900   2.803   4.626  0.3037  0.7858  0.8529
 7365SOL    HW223004   2.769   2.878   4.616  0.4736  1.0929  0.9067
 7366SOL     OW23005   0.091   6.294   6.707  0.0382  0.0814 -0.6842
 7366SOL    HW123006   0.127   6.206   6.691  0.3667 -0.1922  1.2827
 7366SOL    HW223007   0.159   6.338   6.758 -0.9530  0.7623  0.0913
 7367SOL     OW23008   0.862   2.072   5.501 -0.5014 -0.1484 -0.4373
 7367SOL    HW123009   0.902   1.990   5.470  2.9249  1.1779  0.0293
 7367SOL    HW223010   0.898   2.085   5.588 -0.8395  1.9090 -0.5564
 7368SOL     OW23011   5.716   4.768   0.858  0.5091  0.2248 -0.0260
 7368SOL    HW123012   5.772   4.758   0.934  0.1207  0.0028  0.2345
 7368SOL    HW223013   5.707   4.862   0.846  0.3925  0.2618  0.3399
 7369SOL     OW23014   2.796   6.258   3.633  0.2019  0.5069  0.3234
 7369SOL    HW123015   2.859   6.288   3.698  0.7233  0.8473 -0.3318
 7369SOL    HW223016   2.841   6.188   3.585 -0.7026 -0.7751  1.2842
 7370SOL     OW23017   2.516   4.332   1.738 -0.5120  0.2941 -0.2773
 7370SOL    HW123018   2.495   4.419   1.770 -1.7341  0.7760 -2.1919
 7370SOL    HW223019   2.565   4.347   1.657  1.4481 -0.8517  0.6105
 7371SOL     OW23020   0.597   3.712   4.385 -0.0561  0.2935  0.4904
 7371SOL    HW123021   0.582   3.802   4.412  1.1082  0.7319 -0.2560
 7371SOL    HW223022   0.515   3.667   4.405 -0.4051  1.3502  1.5125
 7372SOL     OW23023   3.482   4.400   2.374 -0.1198 -0.2324 -0.2410
 7372SOL    HW123024   3.443   4.343   2.440 -1.2074 -1.1167 -1.5933
 7372SOL    HW223025   3.569   4.362   2.358  0.2233  0.1019  0.7993
 7373SOL     OW23026   1.299   6.880   1.607  0.4982 -0.0640 -0.7181
 7373SOL    HW123027   1.333   6.853   1.693 -0.4928  0.9668  0.0207
 7373SOL    HW223028   1.205   6.864   1.612  0.4250  0.0406 -1.6042
 7374SOL     OW23029   0.149   5.124   1.242 -0.3424  0.0074 -0.2235
 7374SOL    HW123030   0.231   5.080   1.220 -0.8762 -0.4446 -1.3795
 7374SOL    HW223031   0.167   5.167   1.326  1.1266  0.0682 -0.5396
 7375SOL     OW23032   7.485   7.210   5.969  0.2591  0.6405 -0.8569
 7375SOL    HW123033   7.454   7.223   6.059 -0.6138  1.3766 -1.2443
 7375SOL    HW223034   7.457   7.289   5.923  2.0274  0.9576 -1.4439
 7376SOL     OW23035   1.262   6.659   2.528 -0.0239  0.0442  0.8816
 7376SOL    HW123036   1.220   6.705   2.455 -0.1137  1.6444  1.8854
 7376SOL    HW223037   1.197   6.594   2.555 -0.1908 -0.2295 -0.1350
 7377SOL     OW23038   1.697   0.576   7.327 -0.0608  0.4520  0.6229
 7377SOL    HW123039   1.611   0.607   7.298 -0.6491 -1.5331  0.0169
 7377SOL    HW223040   1.722   0.510   7.261  1.7006  0.6138  1.0647
 7378SOL     OW23041   7.530   1.345   4.023  0.2800 -0.6236 -0.6363
 7378SOL    HW123042   7.586   1.368   3.950  1.6746 -0.9137  0.3073
 7378SOL    HW223043   7.442   1.338   3.985  0.9873 -0.9364 -2.2994
 7379SOL     OW23044   2.872   6.563   5.779 -0.3052  0.1548 -0.3401
 7379SOL    HW123045   2.941   6.528   5.723 -0.1582 -0.4003  0.1784
 7379SOL    HW223046   2.807   6.597   5.718  0.6930  1.2362 -0.8380
 7380SOL     OW23047   6.443   7.659   2.169  0.7180  0.6096 -0.2338
 7380SOL    HW123048   6.464   7.651   2.262  2.6213 -1.0899 -0.7448
 7380SOL    HW223049   6.513   7.713   2.133 -0.9274  2.7381 -0.4684
 7381SOL     OW23050   7.298   1.071   7.443 -0.1400 -0.6085  0.1711
 7381SOL    HW123051   7.289   1.148   7.387  0.4980 -0.8366 -0.2622
 7381SOL    HW223052   7.231   1.010   7.411 -0.8147 -0.1490  0.6785
 7382SOL     OW23053   3.367   0.128   1.534 -0.3154 -0.2872  0.1516
 7382SOL    HW123054   3.321   0.168   1.460  2.3140  1.0030 -0.8925
 7382SOL    HW223055   3.401   0.203   1.584  1.5559 -1.1565  0.2554
 7383SOL     OW23056   3.870   5.444   7.059 -0.0952 -0.7306  0.7166
 7383SOL    HW123057   3.854   5.356   7.095  1.5861 -1.0031  0.8973
 7383SOL    HW223058   3.841   5.439   6.968 -1.1916 -1.0748  1.0673
 7384SOL     OW23059   0.820   5.748   6.416 -0.6807 -0.2791  0.6115
 7384SOL    HW123060   0.754   5.817   6.416  1.7592  2.2376  1.1939
 7384SOL    HW223061   0.895   5.787   6.372  0.5398 -2.9345  0.1541
 7385SOL     OW23062   1.397   6.016   2.150  0.4547 -0.0172  0.1676
 7385SOL    HW123063   1.481   5.979   2.177  0.7554  0.2971 -0.3212
 7385SOL    HW223064   1.412   6.111   2.149  0.8196 -0.0408 -2.2352
 7386SOL     OW23065   5.037   5.121   6.536  0.2110 -0.2173 -0.2192
 7386SOL    HW123066   5.092   5.126   6.614 -0.0490 -1.0497  0.0266
 7386SOL    HW223067   4.951   5.148   6.565  0.2383  0.0086 -0.3467
 7387SOL     OW23068   4.063   3.881   2.727 -0.4725  0.3394 -0.0870
 7387SOL    HW123069   3.984   3.884   2.780 -0.0795  0.9428  0.4904
 7387SOL    HW223070   4.033   3.894   2.637 -0.9111  2.0119  0.2643
 7388SOL     OW23071   4.213   6.543   7.230  0.2699 -0.0797 -0.3172
 7388SOL    HW123072   4.226   6.455   7.265 -0.6452 -0.2382 -0.3558
 7388SOL    HW223073   4.212   6.531   7.135  0.5391  0.0382 -0.3381
 7389SOL     OW23074   1.342   1.164   6.148  0.0084 -0.0610 -0.0595
 7389SOL    HW123075   1.397   1.092   6.178  1.1866  0.4471 -0.9120
 7389SOL    HW223076   1.263   1.122   6.114 -0.1622 -0.8039  1.2090
 7390SOL     OW23077   6.164   5.363   1.571  0.9065 -0.3500  0.1792
 7390SOL    HW123078   6.137   5.333   1.658  2.7447  1.7550  1.6283
 7390SOL    HW223079   6.150   5.458   1.574  1.7907 -0.1315 -1.5093
 7391SOL     OW23080   5.052   3.960   3.320 -0.0246  0.0261 -0.6629
 7391SOL    HW123081   5.088   4.047   3.303  2.6688 -0.9268 -0.2611
 7391SOL    HW223082   5.011   3.968   3.407 -0.6154  1.0791 -1.0144
 7392SOL     OW23083   6.455   5.484   0.037 -0.7095  0.0943 -0.3275
 7392SOL    HW123084   6.544   5.519   0.045 -1.0723  1.2816 -1.2165
 7392SOL    HW223085   6.468   5.389   0.031  0.3966  0.1342  0.7684
 7393SOL     OW23086   5.717   4.878   1.879 -0.0755  0.3312 -0.0077
 7393SOL    HW123087   5.683   4.873   1.968  1.7623 -0.5280  0.6793
 7393SOL    HW223088   5.695   4.793   1.840 -2.0477  1.1715 -0.8722
 7394SOL     OW23089   5.525   2.351   1.369  0.5264  0.7331  0.6697
 7394SOL    HW123090   5.467   2.281   1.340  2.3906 -1.2722  1.4790
 7394SOL    HW223091   5.492   2.374   1.456  1.0675 -0.6024  1.2529
 7395SOL     OW23092   0.032   2.828   3.867  0.1472 -0.4141 -0.0999
 7395SOL    HW123093   0.021   2.915   3.828 -0.7496  0.1666  1.3717
 7395SOL    HW223094   0.126   2.810   3.859  0.5188  1.1167  0.4062
 7396SOL     OW23095   2.365   3.836   4.245 -0.1559  0.1118  0.6332
 7396SOL    HW123096   2.380   3.906   4.309  0.6442  0.7624 -0.2338
 7396SOL    HW223097   2.423   3.765   4.274 -0.5047  0.0385  1.1628
 7397SOL     OW23098   4.694   7.229   4.968 -0.0647  0.7980  0.0280
 7397SOL    HW123099   4.711   7.139   4.938 -0.4680  0.3538  1.0685
 7397SOL    HW223100   4.773   7.254   5.015 -0.1173  0.8201  0.1054
 7398SOL     OW23101   1.555   4.520   2.023  0.2700 -0.1711 -0.4371
 7398SOL    HW123102   1.577   4.591   2.084  0.8550 -0.5674 -0.1852
 7398SOL    HW223103   1.515   4.565   1.948 -0.2249  0.3462  0.1238
 7399SOL     OW23104   3.055   5.314   5.167 -0.1167 -0.2526 -0.2570
 7399SOL    HW123105   3.047   5.282   5.257  0.5051  1.0978  0.3039
 7399SOL    HW223106   3.058   5.234   5.114  2.4258 -1.2450  1.1618
 7400SOL     OW23107   2.247   4.029   7.223  0.2276  0.4064 -0.5825
 7400SOL    HW123108   2.220   3.963   7.159 -1.5572  2.3065 -1.8841
 7400SOL    HW223109   2.334   4.001   7.250  1.0062 -0.5861 -3.7178
 7401SOL     OW23110   5.733   1.413   1.112  0.0472 -0.0600  0.2392
 7401SOL    HW123111   5.754   1.324   1.086  0.7597  0.7576 -2.2644
 7401SOL    HW223112   5.817   1.451   1.138 -0.1534  0.0743  0.7000
 7402SOL     OW23113   0.452   4.231   3.146  0.8003 -0.7878 -0.0130
 7402SOL    HW123114   0.478   4.177   3.072 -1.2831 -3.4467  1.0431
 7402SOL    HW223115   0.466   4.321   3.116 -0.5397 -1.6646 -3.8901
 7403SOL     OW23116   4.787   3.526   4.345  0.1620  0.4353  0.2641
 7403SOL    HW123117   4.790   3.531   4.249 -1.7618 -1.1691  0.0512
 7403SOL    HW223118   4.864   3.574   4.374  0.9119  0.7849 -2.0897
 7404SOL     OW23119   7.263   5.206   2.375  0.7926  0.0378  0.3745
 7404SOL    HW123120   7.272   5.284   2.321 -0.3904 -0.6967 -0.9515
 7404SOL    HW223121   7.197   5.153   2.331  0.3467 -0.9733  2.1353
 7405SOL     OW23122   0.047   2.698   6.022  0.3659  0.3149  0.1187
 7405SOL    HW123123   0.041   2.617   6.072  0.3279 -0.4649 -1.0923
 7405SOL    HW223124  -0.016   2.757   6.063  0.2358 -0.3410  0.8874
 7406SOL     OW23125   5.490   2.539   0.174  0.0125  0.1440 -0.1659
 7406SOL    HW123126   5.476   2.519   0.267 -1.7906 -2.4757 -0.8651
 7406SOL    HW223127   5.569   2.489   0.151  0.5561  0.9283 -0.0172
 7407SOL     OW23128   2.792   5.320   4.938  0.1886 -0.6568  0.4444
 7407SOL    HW123129   2.749   5.395   4.897  1.1293 -0.8619 -1.0240
 7407SOL    HW223130   2.882   5.349   4.952  0.1685 -0.9930  1.3411
 7408SOL     OW23131   5.691   4.245   5.170  0.4548 -0.4738 -0.2282
 7408SOL    HW123132   5.761   4.185   5.142  0.7553  0.0070 -0.5230
 7408SOL    HW223133   5.710   4.263   5.262  0.7929 -0.2421 -0.3436
 7409SOL     OW23134   2.234   2.487   2.648  0.3870 -0.0079 -0.3485
 7409SOL    HW123135   2.215   2.492   2.742  2.8952  0.8023  0.1886
 7409SOL    HW223136   2.201   2.569   2.612  0.5841  0.2509  0.0639
 7410SOL     OW23137   6.689   6.664   4.319  0.2992  0.4789  0.0001
 7410SOL    HW123138   6.681   6.645   4.413  0.6038 -1.2875 -0.2848
 7410SOL    HW223139   6.628   6.735   4.303  1.2741  1.7941  1.7925
 7411SOL     OW23140   5.960   3.020   0.684  0.1707 -0.3798 -0.3743
 7411SOL    HW123141   5.871   3.036   0.652 -0.6468 -1.2544  1.3277
 7411SOL    HW223142   5.977   3.093   0.745  0.8426  0.0706 -1.0814
 7412SOL     OW23143   0.500   6.680   2.707  0.4883  0.1171  0.0439
 7412SOL    HW123144   0.415   6.704   2.668  0.2642  1.3330  1.2057
 7412SOL    HW223145   0.544   6.629   2.639 -1.0240 -0.2208 -0.7226
 7413SOL     OW23146   5.279   6.636   7.260  0.1563  0.5548  0.2248
 7413SOL    HW123147   5.221   6.636   7.184  0.3401 -1.4104  0.0321
 7413SOL    HW223148   5.249   6.709   7.314 -1.4726  0.5498 -0.6172
 7414SOL     OW23149   4.129   7.366   5.694  0.3941 -0.2413 -0.1631
 7414SOL    HW123150   4.121   7.406   5.607  1.5722  0.6082  0.1074
 7414SOL    HW223151   4.212   7.399   5.729 -0.7391  0.6531  1.9047
 7415SOL     OW23152   7.693   2.554   1.701 -0.0243 -0.3385 -0.3537
 7415SOL    HW123153   7.752   2.530   1.772  0.4148  1.0336 -0.2260
 7415SOL    HW223154   7.606   2.548   1.740  0.1398 -0.6076 -0.0157
 7416SOL     OW23155   4.409   2.630   3.776  0.2885 -0.1694 -0.2095
 7416SOL    HW123156   4.347   2.658   3.843  0.8320 -1.0720  0.6849
 7416SOL    HW223157   4.439   2.712   3.736 -1.1308  0.3071 -0.3672
 7417SOL     OW23158   3.694   5.498   2.049 -0.5443  0.2867  0.3201
 7417SOL    HW123159   3.647   5.581   2.037 -2.0736 -0.4518  1.0357
 7417SOL    HW223160   3.738   5.483   1.965 -2.0991  0.6908 -0.5993
 7418SOL     OW23161   1.860   0.045   4.426  0.3594  0.4083 -0.2720
 7418SOL    HW123162   1.816   0.081   4.503 -0.0529  0.9650 -0.7557
 7418SOL    HW223163   1.948   0.024   4.456 -0.1390 -0.4683  0.6486
 7419SOL     OW23164   0.472   0.419   4.718  0.2124 -0.4515 -0.1884
 7419SOL    HW123165   0.473   0.324   4.705  0.5085 -0.5961  0.7881
 7419SOL    HW223166   0.560   0.440   4.750  0.1170  0.1378 -0.2987
 7420SOL     OW23167   3.967   4.046   1.092 -0.1012 -0.1540  0.9123
 7420SOL    HW123168   3.884   4.072   1.133 -2.8149 -2.1467 -2.7241
 7420SOL    HW223169   3.988   4.117   1.032 -0.2210 -0.5049  0.4562
 7421SOL     OW23170   5.783   6.610   6.829 -0.1641  0.7204  0.3746
 7421SOL    HW123171   5.777   6.690   6.776  0.2584 -0.1424 -1.0367
 7421SOL    HW223172   5.695   6.572   6.826 -0.0916  0.5693  0.1066
 7422SOL     OW23173   3.086   2.564   5.487  0.2374 -0.4704 -0.0914
 7422SOL    HW123174   2.995   2.587   5.471  0.0045 -1.4077 -0.1961
 7422SOL    HW223175   3.125   2.555   5.400  0.7992  1.2209 -0.0565
 7423SOL     OW23176   5.864   0.824   4.961  0.1646  0.6741 -0.0277
 7423SOL    HW123177   5.958   0.827   4.945 -0.1231  1.4082 -1.8157
 7423SOL    HW223178   5.841   0.732   4.949  0.5123  0.6507 -0.5469
 7424SOL     OW23179   2.292   6.129   2.174  0.1730  0.6894 -0.0911
 7424SOL    HW123180   2.233   6.121   2.248 -0.2144  1.3259 -0.3213
 7424SOL    HW223181   2.320   6.221   2.175  1.3550  0.3426  0.1563
 7425SOL     OW23182   3.229   2.265   2.104 -0.0885 -0.4260  0.0068
 7425SOL    HW123183   3.299   2.216   2.061  0.6884  0.5313  0.1380
 7425SOL    HW223184   3.239   2.243   2.197  0.6056  0.3537  0.1364
 7426SOL     OW23185   7.524   0.361   3.893  0.1370 -0.6850  0.3432
 7426SOL    HW123186   7.515   0.308   3.814  1.0629  0.0651 -0.2844
 7426SOL    HW223187   7.450   0.334   3.948 -2.2568  0.7558 -1.9116
 7427SOL     OW23188   4.052   0.190   2.476  0.3623  1.2720 -0.1773
 7427SOL    HW123189   4.033   0.276   2.439  0.9722  1.7099  0.4851
 7427SOL    HW223190   4.090   0.140   2.404 -1.4856  0.9825 -1.0216
 7428SOL     OW23191   0.276   7.570   7.326 -0.0906  0.4496 -0.1395
 7428SOL    HW123192   0.366   7.591   7.303  0.0762  0.5942  0.6037
 7428SOL    HW223193   0.226   7.647   7.298 -0.1985 -0.1701 -1.7510
 7429SOL     OW23194   4.898   6.482   0.092 -0.1314  0.2930  0.2373
 7429SOL    HW123195   4.898   6.398   0.138  0.9652 -1.4250 -2.6438
 7429SOL    HW223196   4.948   6.466   0.012 -0.5580  3.5066 -0.8318
 7430SOL     OW23197   4.045   1.966   3.661 -0.2467  0.0429  0.1426
 7430SOL    HW123198   4.074   1.885   3.620  0.1977 -0.2007  0.9110
 7430SOL    HW223199   4.059   1.952   3.755  1.8733  1.7743  0.1700
 7431SOL     OW23200   6.259   7.362   7.090 -0.1387  0.0407 -0.5971
 7431SOL    HW123201   6.165   7.359   7.073 -0.4084 -0.6785  0.8495
 7431SOL    HW223202   6.283   7.454   7.076 -1.2014  0.3748 -0.3262
 7432SOL     OW23203   1.791   4.627   1.653 -0.2135 -0.2703  0.2098
 7432SOL    HW123204   1.718   4.569   1.676 -0.2863 -0.5732 -0.7144
 7432SOL    HW223205   1.751   4.695   1.599  0.1134 -0.1788  0.0835
 7433SOL     OW23206   1.319   1.490   2.467  0.0119  0.1991 -0.6212
 7433SOL    HW123207   1.229   1.469   2.441 -0.2370 -0.7094  0.8423
 7433SOL    HW223208   1.309   1.563   2.529  0.0402 -1.3246  1.2509
 7434SOL     OW23209   7.202   7.322   3.616  0.4927  0.1855 -0.3720
 7434SOL    HW123210   7.115   7.319   3.656  0.1918  0.7729 -0.9697
 7434SOL    HW223211   7.206   7.244   3.562 -0.1936  0.8164 -1.3852
 7435SOL     OW23212   2.433   7.505   5.803  0.1594 -0.0567  0.0259
 7435SOL    HW123213   2.348   7.528   5.840 -0.4801  0.4751 -1.6685
 7435SOL    HW223214   2.448   7.571   5.735  1.9401 -0.1450  0.2819
 7436SOL     OW23215   2.907   6.489   0.761  0.5767  0.7484  0.0091
 7436SOL    HW123216   2.887   6.580   0.783 -0.0350  0.7352 -0.4679
 7436SOL    HW223217   2.851   6.469   0.686 -0.0297 -0.3305  0.7085
 7437SOL     OW23218   6.261   5.901   3.161  0.4054 -0.1980  0.0526
 7437SOL    HW123219   6.350   5.871   3.178  0.5187  0.7313  1.2564
 7437SOL    HW223220   6.214   5.884   3.243 -0.7493 -1.3722 -0.8050
 7438SOL     OW23221   7.063   2.724   5.685  0.2353 -0.0198  0.2054
 7438SOL    HW123222   7.043   2.730   5.592  1.1495  0.7206  0.0436
 7438SOL    HW223223   7.143   2.671   5.689  1.0502  1.1966  0.4352
 7439SOL     OW23224   0.400   2.981   2.373 -0.0001 -0.3986 -0.2421
 7439SOL    HW123225   0.343   2.911   2.405 -0.1356  0.3266  1.1838
 7439SOL    HW223226   0.341   3.056   2.361  0.7016  0.6184  2.0672
 7440SOL     OW23227   4.614   2.059   4.182 -0.0744  0.3050  0.0100
 7440SOL    HW123228   4.648   2.033   4.267 -0.7056  0.3209  0.2722
 7440SOL    HW223229   4.636   1.986   4.124  1.4263  0.8224 -0.1021
 7441SOL     OW23230   5.425   5.727   6.043  0.2695  0.0829 -0.2989
 7441SOL    HW123231   5.441   5.787   6.116  0.6290  0.3814 -0.6224
 7441SOL    HW223232   5.408   5.643   6.085 -0.5101  0.4616  0.1768
 7442SOL     OW23233   1.918   4.688   3.857  0.2236  0.2727 -0.0090
 7442SOL    HW123234   1.848   4.736   3.901  1.9898  2.5755  0.4875
 7442SOL    HW223235   1.934   4.737   3.776  2.8714  1.4224  1.0662
 7443SOL     OW23236   2.544   7.696   6.806  0.3792  0.6022  0.5513
 7443SOL    HW123237   2.597   7.768   6.771 -0.5257  0.3323 -1.4946
 7443SOL    HW223238   2.477   7.681   6.740 -1.4693  0.0366  2.4463
 7444SOL     OW23239   2.506   2.427   0.708  0.3322  0.5639 -0.2642
 7444SOL    HW123240   2.536   2.416   0.798  0.9857 -0.5135 -0.5841
 7444SOL    HW223241   2.586   2.445   0.659  0.1919 -0.3608 -0.8453
 7445SOL     OW23242   0.050   4.070   5.556 -0.0090 -0.3195 -0.0025
 7445SOL    HW123243   0.095   4.012   5.495  0.9433 -0.8132  1.1477
 7445SOL    HW223244   0.107   4.146   5.564  0.7607 -1.0396  1.6220
 7446SOL     OW23245   6.082   3.491   3.658  0.4211 -0.3085  0.9113
 7446SOL    HW123246   6.162   3.486   3.606 -0.7492 -0.1500 -1.0175
 7446SOL    HW223247   6.070   3.402   3.693  0.7749 -0.6504  0.1805
 7447SOL     OW23248   7.140   2.053   2.371  0.2443  0.0881  0.2045
 7447SOL    HW123249   7.166   2.141   2.343  0.5947 -0.4455 -1.1990
 7447SOL    HW223250   7.177   1.995   2.305 -1.8542 -0.9592 -0.1252
 7448SOL     OW23251   5.548   5.613   0.717 -0.1914  0.0497 -0.6243
 7448SOL    HW123252   5.481   5.547   0.700  1.0901 -1.6386  0.4382
 7448SOL    HW223253   5.549   5.622   0.813  0.4979  0.6947 -0.6792
 7449SOL     OW23254   5.853   6.553   1.781 -0.2339 -0.1216 -0.0970
 7449SOL    HW123255   5.852   6.458   1.774 -0.8263 -0.1982  0.8805
 7449SOL    HW223256   5.843   6.571   1.874 -0.8701  0.9092 -0.3454
 7450SOL     OW23257   2.696   7.630   0.779 -0.2635 -0.5390 -0.1729
 7450SOL    HW123258   2.707   7.571   0.854  1.1646 -1.7471 -1.2448
 7450SOL    HW223259   2.622   7.594   0.731  0.2775 -1.2033 -0.5426
 7451SOL     OW23260   1.117   3.152   2.222 -0.2985  0.1946 -0.1789
 7451SOL    HW123261   1.039   3.171   2.274  0.4473  1.1546  0.6305
 7451SOL    HW223262   1.090   3.170   2.132 -1.4869 -1.1143 -0.1185
 7452SOL     OW23263   4.656   2.213   4.451 -0.1774  0.3523 -0.2772
 7452SOL    HW123264   4.685   2.266   4.377 -0.3969  0.1846 -0.4845
 7452SOL    HW223265   4.735   2.200   4.503 -0.1853  1.1507 -0.0552
 7453SOL     OW23266   4.611   1.517   0.742  0.0907 -0.1229 -0.2305
 7453SOL    HW123267   4.575   1.532   0.654 -1.8121  1.5779  0.7438
 7453SOL    HW223268   4.695   1.475   0.727 -0.4211 -0.3851 -2.8411
 7454SOL     OW23269   4.220   6.521   4.616  0.5482  0.0063 -0.3506
 7454SOL    HW123270   4.200   6.434   4.652  1.6825  0.2437  0.9481
 7454SOL    HW223271   4.167   6.581   4.669  0.3279  0.1799 -0.7599
 7455SOL     OW23272   5.331   1.027   0.792 -0.1965 -0.6199 -0.1839
 7455SOL    HW123273   5.371   0.999   0.710  0.3147  0.5984 -0.3813
 7455SOL    HW223274   5.253   1.076   0.764 -0.1165 -0.3508  0.0608
 7456SOL     OW23275   4.233   1.416   0.833  0.0519 -0.4592 -0.1812
 7456SOL    HW123276   4.215   1.407   0.739 -0.7705 -2.2260  0.1077
 7456SOL    HW223277   4.268   1.505   0.842 -1.3003  0.3143 -1.9232
 7457SOL     OW23278   2.979   3.478   6.064 -0.1426 -0.3984 -0.4591
 7457SOL    HW123279   3.049   3.435   6.112 -0.6568 -0.4168  0.2937
 7457SOL    HW223280   3.021   3.551   6.019  0.5549 -1.0663 -0.9189
 7458SOL     OW23281   2.661   1.849   3.109 -0.5564 -0.2187  0.6055
 7458SOL    HW123282   2.732   1.785   3.117 -2.7058 -2.9340 -0.3885
 7458SOL    HW223283   2.705   1.934   3.105  2.4415 -1.5049  2.6976
 7459SOL     OW23284   2.436   0.203   2.988  0.0450  0.1640 -0.2217
 7459SOL    HW123285   2.433   0.116   2.950  1.1163  0.7589 -1.8000
 7459SOL    HW223286   2.353   0.213   3.034 -1.8067 -0.3258 -3.2065
 7460SOL     OW23287   3.290   5.359   2.172  0.4170 -0.3414  0.4839
 7460SOL    HW123288   3.330   5.445   2.187  1.6339  0.0049 -3.6373
 7460SOL    HW223289   3.357   5.309   2.125 -1.0520 -2.8250  0.8205
 7461SOL     OW23290   2.727   3.515   7.271  0.8138  0.3496 -0.2362
 7461SOL    HW123291   2.700   3.561   7.351  0.7940  0.3784 -0.2598
 7461SOL    HW223292   2.776   3.580   7.221  0.3993  0.4759 -0.4759
 7462SOL     OW23293   3.658   1.928   3.895 -0.0294 -0.4983 -0.1281
 7462SOL    HW123294   3.711   1.880   3.959  0.1241  1.4336  1.3033
 7462SOL    HW223295   3.577   1.878   3.889 -0.2848 -0.4565  2.0781
 7463SOL     OW23296   5.502   7.138   2.791  0.3261  0.3458 -0.0383
 7463SOL    HW123297   5.464   7.053   2.770  1.6135  0.1130 -1.5615
 7463SOL    HW223298   5.475   7.195   2.719 -1.5552  1.6173  1.5682
 7464SOL     OW23299   0.439   6.779   6.878 -0.6448  0.6966 -0.5771
 7464SOL    HW123300   0.372   6.763   6.944  0.6381  1.9033  1.1215
 7464SOL    HW223301   0.435   6.874   6.862  2.1831  1.2966  1.4541
 7465SOL     OW23302   4.723   4.917   6.382  0.1846 -0.2446  0.4471
 7465SOL    HW123303   4.777   4.838   6.381  0.5705  0.0044  1.2995
 7465SOL    HW223304   4.678   4.915   6.466 -2.2251 -1.1436 -0.7525
 7466SOL     OW23305   2.346   1.493   3.946 -0.0778 -0.2323 -0.0574
 7466SOL    HW123306   2.342   1.398   3.938  1.2294 -0.5522  2.2634
 7466SOL    HW223307   2.415   1.519   3.884 -0.3798 -0.7995 -0.6422
 7467SOL     OW23308   1.864   5.319   5.281  0.0014  0.0820 -0.1788
 7467SOL    HW123309   1.890   5.348   5.368  2.5330 -0.3463 -0.7107
 7467SOL    HW223310   1.844   5.226   5.291  2.8474 -0.6558 -0.4145
 7468SOL     OW23311   3.679   1.485   7.148 -0.0806  0.1703 -0.2569
 7468SOL    HW123312   3.772   1.506   7.147  0.4679 -2.0316 -1.0506
 7468SOL    HW223313   3.654   1.488   7.240  0.4623  1.9132 -0.1438
 7469SOL     OW23314   1.141   4.126   1.165  0.3321  0.4775  0.7323
 7469SOL    HW123315   1.112   4.155   1.252  0.3463  1.0784  0.5425
 7469SOL    HW223316   1.190   4.046   1.182  1.0904  1.0582  1.3893
 7470SOL     OW23317   4.696   2.572   1.898  0.9849 -0.3023  0.2839
 7470SOL    HW123318   4.643   2.492   1.902 -0.3643  0.3407 -2.3312
 7470SOL    HW223319   4.639   2.639   1.936  0.6573  0.0322 -0.7641
 7471SOL     OW23320   5.367   6.352   2.687  0.3420  0.9564  0.3154
 7471SOL    HW123321   5.360   6.317   2.776 -1.8469  1.8758  0.5601
 7471SOL    HW223322   5.323   6.287   2.633 -1.8905  2.2159  0.4975
 7472SOL     OW23323   1.956   2.277   5.048 -0.0109 -0.1544  0.2271
 7472SOL    HW123324   1.885   2.341   5.052  1.0836  1.0624  1.8733
 7472SOL    HW223325   2.030   2.326   5.014  0.3602 -1.0721 -0.2990
 7473SOL     OW23326   1.974   1.646   4.213 -0.4490 -0.0806  0.0494
 7473SOL    HW123327   1.939   1.732   4.192 -1.1079 -0.1425  0.8696
 7473SOL    HW223328   1.967   1.597   4.131  1.4220  1.1004 -0.8958
 7474SOL     OW23329   6.978   2.721   1.186 -0.5145  1.0894 -0.7709
 7474SOL    HW123330   6.910   2.655   1.175 -0.6880  0.4492  2.8861
 7474SOL    HW223331   6.948   2.795   1.133 -3.2286  0.2510 -0.5649
 7475SOL     OW23332   3.673   2.033   3.657  0.2214  0.3940  0.2223
 7475SOL    HW123333   3.698   2.000   3.744  2.4352 -0.9391 -0.8314
 7475SOL    HW223334   3.735   2.104   3.640  1.7266 -1.2075 -1.3632
 7476SOL     OW23335   3.823   4.427   7.372 -0.7647 -0.2368  0.8368
 7476SOL    HW123336   3.833   4.520   7.349  3.6334 -0.7591 -0.2269
 7476SOL    HW223337   3.751   4.396   7.317 -1.8510  2.3249  0.6641
 7477SOL     OW23338   4.695   1.677   1.481 -0.0270  0.4094 -0.4696
 7477SOL    HW123339   4.762   1.689   1.414  0.0370  1.0639 -0.2914
 7477SOL    HW223340   4.742   1.640   1.556  0.0105  0.2483 -0.5718
 7478SOL     OW23341   6.128   0.895   2.225 -0.0163 -0.9486 -0.1155
 7478SOL    HW123342   6.153   0.839   2.151 -0.8628 -0.4249 -0.8211
 7478SOL    HW223343   6.186   0.970   2.219  0.3139 -1.1851  0.1096
 7479SOL     OW23344   4.659   5.550   4.463 -0.1210 -0.0815  0.0884
 7479SOL    HW123345   4.598   5.607   4.510 -0.9922 -0.8229 -0.1195
 7479SOL    HW223346   4.732   5.607   4.441 -0.4756  0.6934  0.8408
 7480SOL     OW23347   5.892   5.406   1.373  0.2695 -0.4757  0.3528
 7480SOL    HW123348   5.850   5.459   1.305  0.7941  0.0952  0.4579
 7480SOL    HW223349   5.975   5.379   1.333  1.8302  2.0351  1.6003
 7481SOL     OW23350   5.960   7.671   3.099  0.3403 -0.2795 -0.2226
 7481SOL    HW123351   6.046   7.654   3.138  0.9483  0.3068 -1.2666
 7481SOL    HW223352   5.978   7.681   3.006 -0.9878 -0.9797 -0.5765
 7482SOL     OW23353   7.363   3.978   4.408 -0.2993 -0.0281 -0.1634
 7482SOL    HW123354   7.317   3.895   4.402  1.8047 -1.2255 -1.0183
 7482SOL    HW223355   7.426   3.966   4.479 -1.2826  1.6004  1.0743
 7483SOL     OW23356   5.127   1.246   7.688 -0.2984  0.0613  0.0242
 7483SOL    HW123357   5.194   1.219   7.626 -1.6459 -0.4394 -1.2647
 7483SOL    HW223358   5.046   1.205   7.656 -1.2696  0.7988  1.4130
 7484SOL     OW23359   1.006   5.862   5.902  0.2030 -0.1868 -0.1959
 7484SOL    HW123360   0.944   5.919   5.947  0.3091 -1.4259  1.6128
 7484SOL    HW223361   0.957   5.781   5.885  1.0764 -0.9196  0.6353
 7485SOL     OW23362   4.041   7.464   4.261 -0.2304  0.0270 -0.4431
 7485SOL    HW123363   4.126   7.437   4.226 -0.1633 -1.8599  1.0223
 7485SOL    HW223364   3.999   7.382   4.289 -1.7303  1.0987  0.6332
 7486SOL     OW23365   3.548   4.195   3.899 -0.0886 -0.5478 -0.4794
 7486SOL    HW123366   3.530   4.278   3.854  0.1009 -1.4107 -2.1939
 7486SOL    HW223367   3.500   4.203   3.982  1.6131  2.1374  0.3891
 7487SOL     OW23368   7.590   1.539   0.070  0.1303  0.0426 -0.0753
 7487SOL    HW123369   7.680   1.526   0.039  0.6142 -0.7729  1.5394
 7487SOL    HW223370   7.599   1.594   0.148 -0.7354 -0.2925  0.2722
 7488SOL     OW23371   5.158   7.677   2.071  0.9302 -0.1568 -0.3713
 7488SOL    HW123372   5.224   7.607   2.075  1.6350  0.5072 -0.2038
 7488SOL    HW223373   5.074   7.630   2.070  1.4106 -1.1306 -2.8547
 7489SOL     OW23374   2.532   1.682   5.126  0.0340 -0.1333 -0.3766
 7489SOL    HW123375   2.621   1.654   5.103 -0.6439 -2.8434 -0.0512
 7489SOL    HW223376   2.503   1.618   5.191 -2.8062 -0.4995 -1.8207
 7490SOL     OW23377   5.089   5.965   7.571 -0.4984  0.0202 -0.0266
 7490SOL    HW123378   5.120   6.047   7.609  0.5002 -0.3791  0.0579
 7490SOL    HW223379   5.018   5.937   7.629  0.0051  0.1861  0.6940
 7491SOL     OW23380   1.061   0.316   1.789  0.0013 -1.1403 -0.0257
 7491SOL    HW123381   1.148   0.355   1.779 -0.2785 -0.5557 -0.1922
 7491SOL    HW223382   1.006   0.387   1.821 -0.4168 -1.5151  0.1061
 7492SOL     OW23383   2.839   5.803   5.245 -0.9594 -0.1806  0.2013
 7492SOL    HW123384   2.765   5.829   5.190 -1.4357 -1.7228  0.0834
 7492SOL    HW223385   2.823   5.711   5.265  0.7823 -0.4579  0.4276
 7493SOL     OW23386   7.665   0.965   5.213  0.8281  0.2671  0.1571
 7493SOL    HW123387   7.657   0.870   5.215  1.6402  0.1853 -0.1097
 7493SOL    HW223388   7.663   0.987   5.120  1.9243  0.3778  0.1427
 7494SOL     OW23389   5.067   4.899   4.262  0.0130  0.2591  0.1922
 7494SOL    HW123390   5.010   4.976   4.259 -0.1940  0.1348  0.9165
 7494SOL    HW223391   5.124   4.914   4.337 -1.5398 -1.3280  1.8200
 7495SOL     OW23392   3.076   5.196   2.108 -1.0959  0.2816  0.1576
 7495SOL    HW123393   3.145   5.256   2.135 -2.0944  1.4592  0.2200
 7495SOL    HW223394   3.053   5.148   2.187 -0.3620 -0.1120  0.1354
 7496SOL     OW23395   4.675   1.913   0.716  0.0068 -0.2335 -0.2198
 7496SOL    HW123396   4.726   1.886   0.793 -0.6362  0.1495  0.3505
 7496SOL    HW223397   4.739   1.956   0.660  0.5126 -0.6325  0.0378
 7497SOL     OW23398   2.799   3.666   5.797  0.0030  0.0479  0.1295
 7497SOL    HW123399   2.754   3.676   5.713  0.1458  1.6813  0.2003
 7497SOL    HW223400   2.749   3.601   5.844  0.1029 -1.1423 -1.3333
 7498SOL     OW23401   2.791   2.121   2.114 -0.1092  0.2284  0.2478
 7498SOL    HW123402   2.823   2.105   2.202 -1.5738  0.3566  0.8270
 7498SOL    HW223403   2.787   2.217   2.107  2.2687  0.3326 -0.8494
 7499SOL     OW23404   4.219   5.524   1.334 -0.6079 -0.3667 -0.4699
 7499SOL    HW123405   4.312   5.512   1.314 -0.3723 -1.4868  1.0909
 7499SOL    HW223406   4.212   5.614   1.365  0.2336 -0.6692  0.6606
 7500SOL     OW23407   6.445   5.677   0.548  0.3376 -0.4535  0.4276
 7500SOL    HW123408   6.414   5.589   0.526  0.2417 -0.2787 -0.1578
 7500SOL    HW223409   6.384   5.709   0.614 -0.5320 -0.2500 -0.4495
 7501SOL     OW23410   1.621   0.984   7.481  0.3852  0.2535  0.1710
 7501SOL    HW123411   1.533   1.002   7.513  0.0530  1.8167 -1.4928
 7501SOL    HW223412   1.612   0.979   7.386  1.9654 -0.4387  0.0146
 7502SOL     OW23413   1.491   0.776   6.702  0.0028 -0.3725  0.2048
 7502SOL    HW123414   1.469   0.752   6.612 -1.2860  1.2834  0.0127
 7502SOL    HW223415   1.515   0.694   6.744  0.2692 -1.2354 -1.5446
 7503SOL     OW23416   6.848   5.494   4.953  0.0576 -0.2335 -0.0044
 7503SOL    HW123417   6.758   5.461   4.954 -0.5216  1.2262  1.5736
 7503SOL    HW223418   6.885   5.463   5.036  0.0940  1.4365  0.6370
 7504SOL     OW23419   5.279   7.331   5.643 -0.2290  0.4738 -0.3188
 7504SOL    HW123420   5.232   7.299   5.720  2.1003  0.1384  1.0505
 7504SOL    HW223421   5.264   7.263   5.577 -1.0695  0.0501  0.2751
 7505SOL     OW23422   5.240   5.839   3.924  0.4655  0.2687 -0.2094
 7505SOL    HW123423   5.311   5.778   3.945 -0.2794 -0.7500 -0.5517
 7505SOL    HW223424   5.197   5.856   4.008  1.4210  1.3106  0.0851
 7506SOL     OW23425   6.262   5.844   4.685 -0.0057  0.3938  0.5160
 7506SOL    HW123426   6.261   5.771   4.746  0.7234 -0.0496  0.0063
 7506SOL    HW223427   6.196   5.904   4.719 -1.0104 -0.7427  0.6386
 7507SOL     OW23428   5.101   5.530   2.736 -0.1427 -0.1666 -0.2230
 7507SOL    HW123429   5.094   5.608   2.790  1.7279 -0.1075 -0.0122
 7507SOL    HW223430   5.194   5.506   2.740 -0.7131 -2.5825 -0.0119
 7508SOL     OW23431   3.952   2.653   4.742  0.4876  0.0316  0.1999
 7508SOL    HW123432   3.972   2.742   4.711 -0.5358  1.1991  2.6267
 7508SOL    HW223433   3.858   2.644   4.727  0.4968 -0.4535  0.4391
 7509SOL     OW23434   3.559   3.758   5.153 -0.1178  0.1161 -0.3832
 7509SOL    HW123435   3.587   3.802   5.073  2.0258  0.6654  0.6092
 7509SOL    HW223436   3.635   3.707   5.181 -1.1355 -0.8346  0.8141
 7510SOL     OW23437   6.703   6.573   3.031 -0.4489  0.1158  0.6751
 7510SOL    HW123438   6.685   6.596   2.940  2.2604  0.2450  0.0622
 7510SOL    HW223439   6.749   6.650   3.066 -1.9008  0.2701  2.3503
 7511SOL     OW23440   0.177   3.886   1.216  0.2969  0.2136  0.3427
 7511SOL    HW123441   0.235   3.847   1.281 -1.1253 -0.7406  1.1072
 7511SOL    HW223442   0.102   3.826   1.212 -1.0840  1.8564  0.1283
 7512SOL     OW23443   0.243   1.421   0.852 -0.3101  0.1241 -0.1453
 7512SOL    HW123444   0.206   1.488   0.909  0.4840  0.0095  0.5349
 7512SOL    HW223445   0.256   1.346   0.910  2.3412  0.6270  0.0424
 7513SOL     OW23446   5.016   5.484   1.379 -0.2986 -0.3622  0.7614
 7513SOL    HW123447   4.965   5.561   1.353 -0.0695  0.0145  1.3975
 7513SOL    HW223448   5.076   5.517   1.446 -0.6813 -1.2451  1.5554
 7514SOL     OW23449   3.163   5.797   3.316 -0.4350  0.0180  0.1648
 7514SOL    HW123450   3.239   5.777   3.261 -1.0144 -2.6070  0.1899
 7514SOL    HW223451   3.191   5.776   3.405 -0.4236  1.5263  0.5536
 7515SOL     OW23452   4.534   0.014   5.611 -0.0591  0.0881 -0.6349
 7515SOL    HW123453   4.509   0.015   5.519 -0.5642 -2.6052 -0.6055
 7515SOL    HW223454   4.617  -0.033   5.614 -0.1805 -0.0916  0.3144
 7516SOL     OW23455   2.938   1.267   4.114  0.6959 -0.4211 -0.0304
 7516SOL    HW123456   2.961   1.347   4.163  2.5892 -2.4538  2.7032
 7516SOL    HW223457   2.863   1.231   4.162 -2.4344  1.2049 -3.2296
 7517SOL     OW23458   4.363   6.447   6.842  0.1466 -0.3642  0.5537
 7517SOL    HW123459   4.449   6.469   6.878 -0.5999  1.4131  1.4174
 7517SOL    HW223460   4.376   6.364   6.796  1.9950 -0.8600  1.8521
 7518SOL     OW23461   2.170   1.837   6.918 -0.2893 -0.1214  0.1123
 7518SOL    HW123462   2.160   1.806   6.828  0.4515  0.5658 -0.2244
 7518SOL    HW223463   2.162   1.933   6.912  1.0974  0.0553  0.5449
 7519SOL     OW23464   1.175   2.696   5.166 -0.2374  0.4954 -0.1643
 7519SOL    HW123465   1.169   2.790   5.183 -1.6934  0.3982 -0.0071
 7519SOL    HW223466   1.125   2.683   5.086 -0.6964 -0.2398  0.2258
 7520SOL     OW23467   0.603   0.233   5.760 -0.3065  0.0290  0.2064
 7520SOL    HW123468   0.537   0.266   5.822  0.0113 -0.9812  1.1204
 7520SOL    HW223469   0.596   0.138   5.767 -0.5721 -0.1213 -1.6818
 7521SOL     OW23470   5.705   6.174   6.085  0.3212  0.2637 -0.0038
 7521SOL    HW123471   5.647   6.221   6.144 -0.2219 -1.5887  1.0085
 7521SOL    HW223472   5.647   6.132   6.021  0.4825 -1.3828  0.8612
 7522SOL     OW23473   4.544   7.696   2.800  0.0102 -0.0876  0.0500
 7522SOL    HW123474   4.545   7.773   2.856 -1.0260  0.4698 -0.6583
 7522SOL    HW223475   4.452   7.686   2.776  0.3044 -0.8682 -0.7893
 7523SOL     OW23476   6.759   6.379   3.724 -0.1197  0.6420 -0.5538
 7523SOL    HW123477   6.731   6.290   3.704 -0.7325  0.4935  0.8168
 7523SOL    HW223478   6.705   6.405   3.798  2.4019  0.8308  1.3779
 7524SOL     OW23479   5.450   4.332   3.406  0.1790 -0.0629  0.8925
 7524SOL    HW123480   5.482   4.325   3.496 -1.2568  1.4811  1.5704
 7524SOL    HW223481   5.491   4.411   3.371  2.0840 -1.5353 -0.4791
 7525SOL     OW23482   6.908   7.154   0.133  0.1406  0.3909 -0.2454
 7525SOL    HW123483   6.850   7.091   0.177  2.2040 -1.3268  0.1803
 7525SOL    HW223484   6.991   7.107   0.122  1.6021  2.8439 -0.5156
 7526SOL     OW23485   0.174   1.085   3.793  0.4442  0.1456 -0.1425
 7526SOL    HW123486   0.114   1.111   3.723  0.4555 -1.2497 -0.7228
 7526SOL    HW223487   0.120   1.080   3.872 -0.2596 -1.1704 -0.6761
 7527SOL     OW23488   0.683   5.060   4.358 -0.1103  0.3116  0.1083
 7527SOL    HW123489   0.719   5.074   4.445 -0.2105  1.9090 -0.0760
 7527SOL    HW223490   0.758   5.034   4.305 -0.0526 -0.6774  0.6555
 7528SOL     OW23491   0.448   4.563   4.321 -0.3059  0.1219 -0.4664
 7528SOL    HW123492   0.503   4.640   4.332 -1.1544  0.5123  1.6829
 7528SOL    HW223493   0.438   4.553   4.227 -1.1400  3.3666 -0.8415
 7529SOL     OW23494   6.108   2.566   3.283  0.4816  0.4228 -0.2773
 7529SOL    HW123495   6.108   2.572   3.378 -0.1879 -0.2524 -0.2307
 7529SOL    HW223496   6.193   2.529   3.261  0.5670  0.4110  0.0701
 7530SOL     OW23497   5.603   0.377   3.192 -0.0255  0.2502 -0.2417
 7530SOL    HW123498   5.518   0.361   3.235 -0.7929  0.8641 -1.4769
 7530SOL    HW223499   5.581   0.396   3.101  1.3881  1.1984 -0.4196
 7531SOL     OW23500   5.053   5.623   0.450  0.4929 -0.2409 -0.0061
 7531SOL    HW123501   5.058   5.632   0.545  0.2014  0.5468 -0.0588
 7531SOL    HW223502   5.066   5.529   0.435 -0.3695 -0.5245  0.8735
 7532SOL     OW23503   2.819   1.253   1.040 -0.7183 -0.2110  0.2777
 7532SOL    HW123504   2.872   1.186   1.084 -0.5399 -0.5232 -0.3909
 7532SOL    HW223505   2.838   1.240   0.947 -1.8163 -0.1923  0.0359
 7533SOL     OW23506   3.443   7.016   0.628  0.1290  0.0381  0.4270
 7533SOL    HW123507   3.433   7.095   0.681  1.0551 -0.4154  1.3310
 7533SOL    HW223508   3.385   7.029   0.553  0.6805  1.8195  0.2662
 7534SOL     OW23509   5.743   2.355   7.092  0.1694 -0.4136  0.9069
 7534SOL    HW123510   5.693   2.313   7.022 -0.7651 -2.2001  2.5824
 7534SOL    HW223511   5.824   2.304   7.098  0.0392 -0.5598  1.4397
 7535SOL     OW23512   2.504   3.978   7.250  0.2360  0.1087 -0.0274
 7535SOL    HW123513   2.527   3.888   7.271  1.3665  0.1069 -1.1698
 7535SOL    HW223514   2.578   4.030   7.281  0.9429  0.3162 -1.9350
 7536SOL     OW23515   5.024   3.485   6.388 -0.4766 -0.8836  0.5508
 7536SOL    HW123516   5.019   3.502   6.294 -0.7695  1.2651  0.9081
 7536SOL    HW223517   5.118   3.490   6.408 -0.5812  1.5582  0.7778
 7537SOL     OW23518   5.034   6.251   7.071 -0.1589  0.3290  0.8844
 7537SOL    HW123519   5.077   6.233   7.155  0.3850 -0.4553  0.4503
 7537SOL    HW223520   5.012   6.164   7.037  2.3774  0.3695 -1.1852
 7538SOL     OW23521   2.913   0.064   5.787  0.1876  0.1398 -0.1510
 7538SOL    HW123522   2.865   0.083   5.867 -1.6559  0.7049 -1.3255
 7538SOL    HW223523   3.000   0.036   5.816  0.6613  3.3423  1.9553
 7539SOL     OW23524   0.302   5.870   2.214 -0.5329  0.1481 -0.1804
 7539SOL    HW123525   0.338   5.957   2.197  1.4713 -0.6525 -0.3688
 7539SOL    HW223526   0.350   5.812   2.154  0.7173 -1.5729  2.2766
 7540SOL     OW23527   7.732   5.560   5.069 -0.0390 -0.4270 -0.0840
 7540SOL    HW123528   7.747   5.651   5.095  0.9186 -0.9120  1.1638
 7540SOL    HW223529   7.668   5.565   4.999 -1.8461  1.0577  1.5834
 7541SOL     OW23530   0.144   0.837   0.645 -0.0576  0.4512  0.0386
 7541SOL    HW123531   0.080   0.861   0.578 -0.4500  0.6988  0.5044
 7541SOL    HW223532   0.101   0.769   0.696  0.2844  0.1860 -0.0248
 7542SOL     OW23533   2.341   3.929   1.836 -0.2084  0.4466 -0.5598
 7542SOL    HW123534   2.330   4.006   1.892 -1.7263  1.4381 -2.1061
 7542SOL    HW223535   2.314   3.855   1.890 -0.9178  1.2709  0.2409
 7543SOL     OW23536   0.699   2.300   5.822 -0.5070 -0.2690 -0.7228
 7543SOL    HW123537   0.678   2.223   5.769  1.3828  0.5448 -2.8275
 7543SOL    HW223538   0.615   2.332   5.853 -1.3386 -3.2022  0.3243
 7544SOL     OW23539   3.181   2.464   5.902 -0.3964  0.1955 -0.0925
 7544SOL    HW123540   3.252   2.497   5.957 -2.3167  1.1436  1.9584
 7544SOL    HW223541   3.173   2.530   5.833 -0.0931  0.7272  0.3711
 7545SOL     OW23542   5.608   2.360   6.606  0.4693 -0.1588  0.0742
 7545SOL    HW123543   5.691   2.407   6.617  1.2757 -1.2812 -0.8933
 7545SOL    HW223544   5.572   2.352   6.694  0.8536  1.2717  0.3837
 7546SOL     OW23545   3.116   6.547   6.060  0.0886  0.0015 -0.0095
 7546SOL    HW123546   3.061   6.470   6.045  1.3244 -1.5922  2.7867
 7546SOL    HW223547   3.072   6.594   6.131  0.1221  1.0970 -0.6912
 7547SOL     OW23548   0.863   5.517   3.241 -0.1591 -0.3472 -0.3943
 7547SOL    HW123549   0.901   5.436   3.274  0.6462  0.5401  0.9688
 7547SOL    HW223550   0.905   5.530   3.155  0.5691 -0.7827 -0.1125
 7548SOL     OW23551   0.747   3.308   1.369  0.5076 -0.0967  0.3232
 7548SOL    HW123552   0.769   3.390   1.411  1.1392 -0.1218  0.0538
 7548SOL    HW223553   0.663   3.324   1.325  0.1234  0.0886  1.1198
 7549SOL     OW23554   7.562   7.316   5.565 -0.0630  0.0279 -0.3726
 7549SOL    HW123555   7.571   7.384   5.498  2.5989 -0.3021 -0.4496
 7549SOL    HW223556   7.539   7.237   5.516  1.2341 -0.0706 -0.8586
 7550SOL     OW23557   6.604   5.381   6.860  0.4563 -0.1550  0.4742
 7550SOL    HW123558   6.645   5.317   6.918  1.7796  0.1768 -0.0635
 7550SOL    HW223559   6.628   5.466   6.898 -0.1711  0.0473  0.4293
 7551SOL     OW23560   7.225   4.353   1.989  0.2322  0.2020  0.4575
 7551SOL    HW123561   7.154   4.415   2.004  1.1986  1.6973 -0.8935
 7551SOL    HW223562   7.199   4.304   1.911  1.0619  1.3931 -0.5987
 7552SOL     OW23563   6.149   5.358   1.287  0.0687  0.8286 -0.0497
 7552SOL    HW123564   6.148   5.358   1.383 -1.0445 -0.5074 -0.0221
 7552SOL    HW223565   6.227   5.407   1.264  2.4119 -1.8011  1.5901
 7553SOL     OW23566   7.456   1.576   7.582 -0.4257 -0.3373  0.3135
 7553SOL    HW123567   7.507   1.586   7.663 -0.4150  0.3658  0.2243
 7553SOL    HW223568   7.377   1.530   7.610 -0.6018  0.2472  0.8017
 7554SOL     OW23569   7.616   0.823   7.506 -0.2999  0.2346  1.0217
 7554SOL    HW123570   7.655   0.736   7.499  1.7395  1.1635  0.2722
 7554SOL    HW223571   7.562   0.832   7.427  2.0192  0.8073 -0.5850
 7555SOL     OW23572   7.685   2.611   6.904 -0.0160  0.0274 -0.2512
 7555SOL    HW123573   7.741   2.687   6.888 -3.5676  2.8242 -0.5786
 7555SOL    HW223574   7.634   2.600   6.824 -1.4449 -0.9683  0.7364
 7556SOL     OW23575   3.669   4.108   7.551 -0.4589 -0.1719 -0.6849
 7556SOL    HW123576   3.627   4.193   7.542  1.3183  0.6315 -2.0434
 7556SOL    HW223577   3.612   4.048   7.504 -1.3139  0.4049 -0.4059
 7557SOL     OW23578   3.258   0.078   1.780  0.0374 -0.5174  0.1487
 7557SOL    HW123579   3.322   0.041   1.841 -0.5172 -2.9696 -0.6133
 7557SOL    HW223580   3.301   0.072   1.694 -0.4997 -0.4782 -0.1294
 7558SOL     OW23581   5.609   0.926   7.093  0.0640 -0.1205  0.1545
 7558SOL    HW123582   5.577   0.836   7.103  1.2643 -0.5985 -0.0934
 7558SOL    HW223583   5.663   0.923   7.013  0.1230  0.8215  0.1470
 7559SOL     OW23584   1.240   1.255   1.093 -0.5672  0.0604  0.0174
 7559SOL    HW123585   1.302   1.327   1.096 -0.0387 -0.4045  0.5905
 7559SOL    HW223586   1.195   1.265   1.009 -0.3366  0.9084 -0.0171
 7560SOL     OW23587   4.442   7.369   2.222 -0.7154  0.1783 -0.1969
 7560SOL    HW123588   4.506   7.352   2.153  2.0970  0.7497  2.0315
 7560SOL    HW223589   4.384   7.293   2.220  0.7961 -1.0235 -1.5917
 7561SOL     OW23590   0.642   6.437   6.594  0.1784 -0.6710 -0.5548
 7561SOL    HW123591   0.570   6.477   6.642 -0.9978 -2.3582 -0.8146
 7561SOL    HW223592   0.603   6.408   6.512  1.6215  0.0837 -1.5482
 7562SOL     OW23593   0.233   7.508   4.867  0.1514 -0.1173  0.4922
 7562SOL    HW123594   0.266   7.596   4.887  0.6875 -0.2888  0.3823
 7562SOL    HW223595   0.298   7.471   4.807  0.3472 -0.8775  1.1481
 7563SOL     OW23596   3.947   4.198   4.830 -0.1678 -0.4167 -0.6798
 7563SOL    HW123597   4.032   4.233   4.855 -0.0472 -1.2621  0.1146
 7563SOL    HW223598   3.889   4.221   4.903 -0.5271 -0.2473 -1.0090
 7564SOL     OW23599   1.379   1.004   2.096 -0.1138  0.3378  0.0371
 7564SOL    HW123600   1.346   1.050   2.173 -0.3340  1.4529 -0.6856
 7564SOL    HW223601   1.446   1.062   2.060  0.3386 -0.3981 -0.3335
 7565SOL     OW23602   7.562   1.966   4.195 -0.1887  0.2002  0.1205
 7565SOL    HW123603   7.653   1.972   4.165 -0.7247  2.6760 -1.3248
 7565SOL    HW223604   7.510   1.980   4.115 -1.7567  1.9404  1.3478
 7566SOL     OW23605   5.552   0.334   6.078  0.0527  0.4025  0.4544
 7566SOL    HW123606   5.511   0.260   6.035 -0.2026  0.4226  0.6652
 7566SOL    HW223607   5.620   0.295   6.134 -1.0093  0.2142  1.6470
 7567SOL     OW23608   6.767   2.109   3.630 -0.1870  0.5223 -0.1791
 7567SOL    HW123609   6.688   2.063   3.659 -0.8974  0.6692 -1.7733
 7567SOL    HW223610   6.790   2.166   3.704 -0.7477 -0.5311  0.8489
 7568SOL     OW23611   1.408   4.044   5.291  0.0384  0.1095  0.4408
 7568SOL    HW123612   1.425   3.997   5.209  1.5135  2.5742 -0.7829
 7568SOL    HW223613   1.313   4.055   5.293 -0.0910 -0.7381 -0.4866
 7569SOL     OW23614   3.898   7.289   6.034 -0.0627 -0.4854  0.5850
 7569SOL    HW123615   3.805   7.308   6.034 -0.1676 -0.9745  0.2116
 7569SOL    HW223616   3.934   7.344   6.104 -0.5103  0.2619  0.2327
 7570SOL     OW23617   7.555   4.209   5.790  0.3786 -0.4740  0.9831
 7570SOL    HW123618   7.462   4.215   5.767  0.7409  0.8065 -0.3425
 7570SOL    HW223619   7.597   4.173   5.712  1.2031  0.6310  0.8901
 7571SOL     OW23620   1.993   5.708   4.410 -0.0172 -0.4306 -0.4823
 7571SOL    HW123621   1.945   5.627   4.431 -1.0607 -0.2285 -1.9469
 7571SOL    HW223622   1.977   5.764   4.486  0.5789 -1.5169  0.4784
 7572SOL     OW23623   6.118   4.007   5.835  0.2698  0.6036  0.3954
 7572SOL    HW123624   6.053   4.057   5.885  0.4671  1.1901  0.0660
 7572SOL    HW223625   6.158   3.949   5.900  0.7151  1.5451  0.9862
 7573SOL     OW23626   2.787   1.106   6.440  0.7288 -0.4538  0.8413
 7573SOL    HW123627   2.736   1.029   6.465 -0.1641 -0.5631 -1.1180
 7573SOL    HW223628   2.852   1.116   6.510 -0.0977 -2.0794  1.8930
 7574SOL     OW23629   2.233   5.760   5.868  0.2812 -0.0458 -0.3324
 7574SOL    HW123630   2.149   5.756   5.913  0.8490  0.3438  0.8380
 7574SOL    HW223631   2.266   5.848   5.887  1.2000 -0.3894 -0.2674
 7575SOL     OW23632   3.395   3.403   5.542 -0.3922  0.1301 -0.7067
 7575SOL    HW123633   3.469   3.387   5.483 -0.7346 -0.2394 -1.0397
 7575SOL    HW223634   3.381   3.498   5.537  1.0695  0.4521  0.5760
 7576SOL     OW23635   7.583   6.192   2.256 -0.4870 -0.4998 -0.4138
 7576SOL    HW123636   7.649   6.130   2.288 -0.3229 -0.2770 -0.3200
 7576SOL    HW223637   7.609   6.276   2.293 -1.1385 -0.5104  0.0889
 7577SOL     OW23638   4.389   1.896   4.382 -0.1548 -0.3190  0.0384
 7577SOL    HW123639   4.350   1.978   4.412 -0.6644  0.4808 -2.5700
 7577SOL    HW223640   4.422   1.855   4.462 -2.4135  1.0465  1.8215
 7578SOL     OW23641   5.373   3.211   0.594 -0.2347  0.2058 -0.0541
 7578SOL    HW123642   5.440   3.196   0.527  0.6378 -0.2073  0.8794
 7578SOL    HW223643   5.420   3.199   0.676 -1.2796  0.7496  0.6315
 7579SOL     OW23644   6.097   1.308   1.224 -0.1644  0.2206  0.1790
 7579SOL    HW123645   6.059   1.222   1.241 -0.2402  0.6046  2.1549
 7579SOL    HW223646   6.034   1.370   1.260  0.9143  0.9985  0.8089
 7580SOL     OW23647   7.014   0.016   0.190 -0.1563 -0.6321  0.5768
 7580SOL    HW123648   6.958   0.012   0.268  1.3992 -0.9279  1.7126
 7580SOL    HW223649   7.005   0.106   0.159  0.0147 -0.2081  1.7211
 7581SOL     OW23650   4.826   0.510   6.985  0.3653  0.0189  0.0025
 7581SOL    HW123651   4.890   0.446   7.017 -1.1641 -0.6831  1.8006
 7581SOL    HW223652   4.877   0.589   6.971  1.6377 -0.4640  1.5543
 7582SOL     OW23653   4.450   6.035   6.970 -0.3665 -0.6546 -0.2618
 7582SOL    HW123654   4.511   6.011   7.039 -3.3923 -1.1267  2.5378
 7582SOL    HW223655   4.468   6.128   6.953  0.2105 -0.3980  1.5508
 7583SOL     OW23656   4.718   7.234   6.854 -0.5205 -0.6145 -0.2549
 7583SOL    HW123657   4.640   7.189   6.822  1.4193 -3.4900 -1.3765
 7583SOL    HW223658   4.744   7.292   6.782 -0.7825 -0.7913 -0.4943
 7584SOL     OW23659   0.349   5.022   4.932  0.1440  0.1672  0.0401
 7584SOL    HW123660   0.303   5.003   4.851  0.2627  0.7869 -0.1767
 7584SOL    HW223661   0.321   4.954   4.992 -2.2420  1.3557  0.3936
 7585SOL     OW23662   7.019   5.297   6.099 -0.7039  0.5233  0.4437
 7585SOL    HW123663   7.029   5.211   6.057  1.9452 -0.4984  2.8325
 7585SOL    HW223664   7.066   5.357   6.042  1.1212 -0.4597  0.8483
 7586SOL     OW23665   7.224   4.256   1.305 -1.1860 -0.3490  0.3701
 7586SOL    HW123666   7.159   4.202   1.260 -0.9863 -0.0267 -0.3154
 7586SOL    HW223667   7.259   4.199   1.373  1.0955 -2.1413 -2.1012
 7587SOL     OW23668   4.930   0.225   5.812  0.5338  0.3828 -0.5406
 7587SOL    HW123669   4.979   0.306   5.802 -1.4449  1.6712 -0.3173
 7587SOL    HW223670   4.864   0.244   5.879  0.8632 -1.8480  0.5243
 7588SOL     OW23671   4.586   2.313   7.011 -0.6476 -0.7960 -0.2536
 7588SOL    HW123672   4.565   2.383   7.073  4.0126 -0.1821  1.0540
 7588SOL    HW223673   4.563   2.349   6.926 -2.5946  0.4188  0.7190
 7589SOL     OW23674   0.891   4.679   0.160  0.2059  0.2323  0.1188
 7589SOL    HW123675   0.884   4.685   0.064  1.8365 -2.1270 -0.2229
 7589SOL    HW223676   0.838   4.603   0.183  2.6115 -1.4272  0.5726
 7590SOL     OW23677   6.504   5.822   1.386 -0.7024  0.2112 -0.3538
 7590SOL    HW123678   6.574   5.759   1.373 -0.8336 -0.3082  1.1530
 7590SOL    HW223679   6.443   5.806   1.314 -0.2905 -0.7713 -0.5034
 7591SOL     OW23680   5.110   5.001   6.123  0.0828  0.1812 -0.7788
 7591SOL    HW123681   5.151   5.053   6.054  1.6787  0.3552  0.2595
 7591SOL    HW223682   5.029   5.047   6.143  0.0924  0.6797 -1.8397
 7592SOL     OW23683   5.059   0.153   2.268 -0.1040  0.0559  0.2322
 7592SOL    HW123684   5.053   0.096   2.192 -0.5840 -0.2658  0.5039
 7592SOL    HW223685   5.141   0.127   2.311  0.3226  0.4491 -0.3329
 7593SOL     OW23686   0.548   2.243   3.994 -0.3555 -0.5733  0.5781
 7593SOL    HW123687   0.481   2.176   3.979  0.4073 -0.9532 -1.5578
 7593SOL    HW223688   0.501   2.326   3.989 -0.7967 -0.8543 -0.3583
 7594SOL     OW23689   4.159   2.260   2.854 -0.2730 -0.5536 -0.3207
 7594SOL    HW123690   4.151   2.348   2.890 -1.5998 -0.2496 -1.2752
 7594SOL    HW223691   4.143   2.271   2.761 -1.4112 -1.9183 -0.3177
 7595SOL     OW23692   1.187   5.096   4.190  0.2564 -0.0547 -0.5079
 7595SOL    HW123693   1.282   5.101   4.196  0.1450  1.4085  0.9350
 7595SOL    HW223694   1.156   5.144   4.267 -1.6450 -1.7957 -0.0884
 7596SOL     OW23695   2.566   1.066   4.404 -0.0014 -0.2436  0.5089
 7596SOL    HW123696   2.526   0.984   4.377  0.0443 -0.3443  0.7402
 7596SOL    HW223697   2.494   1.118   4.440  0.2811 -0.9789  2.2476
 7597SOL     OW23698   6.134   3.269   7.550 -0.5169 -0.0914  0.4941
 7597SOL    HW123699   6.107   3.310   7.468 -2.8835 -2.0852  0.1704
 7597SOL    HW223700   6.220   3.232   7.532 -0.7389  0.0393 -0.8756
 7598SOL     OW23701   5.681   2.644   0.786 -0.3647 -0.7151  0.0241
 7598SOL    HW123702   5.620   2.675   0.852 -1.4720 -1.6344 -0.5210
 7598SOL    HW223703   5.745   2.714   0.777 -2.0812  0.8953 -0.3092
 7599SOL     OW23704   7.538   4.484   6.919  0.6610  0.2122  0.1207
 7599SOL    HW123705   7.485   4.555   6.954  1.7649  0.5483  1.1735
 7599SOL    HW223706   7.623   4.493   6.963  1.8384  0.0944 -1.9743
 7600SOL     OW23707   1.226   0.115   0.518 -0.1598 -0.4063 -0.0132
 7600SOL    HW123708   1.277   0.093   0.440  0.9086 -0.0606  0.5733
 7600SOL    HW223709   1.257   0.055   0.585 -1.4345 -1.0461  0.0415
 7601SOL     OW23710   3.076   5.857   0.653  0.1723  0.2446 -0.1027
 7601SOL    HW123711   3.105   5.949   0.657 -1.2991  0.7238  0.0101
 7601SOL    HW223712   3.022   5.852   0.575  0.6111 -0.6612 -0.3612
 7602SOL     OW23713   6.254   0.054   2.768  0.6046 -0.0886 -0.1952
 7602SOL    HW123714   6.300  -0.028   2.751  0.4322 -0.2535  0.1222
 7602SOL    HW223715   6.279   0.077   2.858 -0.5471 -0.5954  0.2722
 7603SOL     OW23716   2.306   6.364   6.224 -0.1692 -0.0128  0.3635
 7603SOL    HW123717   2.276   6.406   6.144 -1.7652  1.3019  1.5960
 7603SOL    HW223718   2.387   6.409   6.247  0.0069 -0.0353 -0.2030
 7604SOL     OW23719   6.162   0.633   6.574 -0.4527  0.3119 -0.1164
 7604SOL    HW123720   6.124   0.640   6.661 -1.2589  0.9102 -0.5082
 7604SOL    HW223721   6.192   0.542   6.569 -1.0451  0.0685  0.5227
 7605SOL     OW23722   0.964   1.207   1.715 -0.1157 -0.3498 -0.4111
 7605SOL    HW123723   0.910   1.128   1.708 -0.2857 -0.3631  0.7567
 7605SOL    HW223724   0.986   1.212   1.808 -0.8260  1.4402 -0.2950
 7606SOL     OW23725   6.249   1.447   3.413 -0.9792 -0.4037 -0.1957
 7606SOL    HW123726   6.303   1.375   3.380 -1.5441 -0.9177 -0.0049
 7606SOL    HW223727   6.310   1.503   3.461 -0.2809 -0.0339 -1.4665
 7607SOL     OW23728   2.106   3.666   5.887 -0.4644 -0.0052  0.6806
 7607SOL    HW123729   2.170   3.596   5.902 -1.4169 -0.7114  1.7389
 7607SOL    HW223730   2.150   3.746   5.916  0.5153 -0.2021 -0.2067
 7608SOL     OW23731   2.104   5.328   5.630 -0.5160  0.3913 -0.3706
 7608SOL    HW123732   2.172   5.396   5.633  0.7110 -0.8287  1.2154
 7608SOL    HW223733   2.023   5.377   5.617  0.3050  2.1877  0.7590
 7609SOL     OW23734   4.670   3.920   3.354  0.1126 -0.0805  0.3836
 7609SOL    HW123735   4.621   3.972   3.290  0.4959  1.2687  1.1401
 7609SOL    HW223736   4.625   3.836   3.356  0.2937 -0.2863 -1.8919
 7610SOL     OW23737   4.338   0.323   1.599 -0.0907  0.5402  0.6155
 7610SOL    HW123738   4.388   0.280   1.529  0.1180  1.4399  0.1965
 7610SOL    HW223739   4.401   0.382   1.640 -0.1789 -0.0588  1.6595
 7611SOL     OW23740   1.891   5.439   6.702 -0.3773 -0.7081  0.6028
 7611SOL    HW123741   1.842   5.363   6.735  0.3792 -1.5999 -0.2614
 7611SOL    HW223742   1.977   5.403   6.678 -0.5240  0.0918 -1.2971
 7612SOL     OW23743   4.397   3.336   4.296 -0.2847  0.2547 -0.0288
 7612SOL    HW123744   4.444   3.279   4.235 -2.5651 -1.6460 -0.1307
 7612SOL    HW223745   4.345   3.393   4.241 -2.9185 -1.9557 -0.0235
 7613SOL     OW23746   0.279   2.976   0.267 -0.3787 -0.3190 -0.4377
 7613SOL    HW123747   0.343   3.046   0.252  1.2112 -0.9867  2.5868
 7613SOL    HW223748   0.196   3.014   0.237  0.8868  1.7287 -1.6275
 7614SOL     OW23749   2.572   3.321   1.042 -0.2616  0.0956  0.2336
 7614SOL    HW123750   2.484   3.312   1.080 -0.7667  2.4160 -0.2753
 7614SOL    HW223751   2.562   3.292   0.951 -0.7155  1.1745 -0.0656
 7615SOL     OW23752   5.524   4.881   4.770 -0.3348 -0.0871 -0.0928
 7615SOL    HW123753   5.555   4.839   4.690 -0.4210 -0.2819 -0.0238
 7615SOL    HW223754   5.532   4.975   4.753  0.2252 -0.1323 -0.1062
 7616SOL     OW23755   6.084   6.688   2.616  0.4961  0.5088  0.2223
 7616SOL    HW123756   6.015   6.680   2.683  0.7712 -1.6529  0.3151
 7616SOL    HW223757   6.064   6.619   2.553  1.9723  0.5506 -0.3174
 7617SOL     OW23758   1.918   4.092   6.625  0.1220  0.8488 -0.3104
 7617SOL    HW123759   1.877   4.083   6.540  0.1223  0.3258 -0.2569
 7617SOL    HW223760   1.894   4.180   6.654  1.1020  1.4797 -1.3609
 7618SOL     OW23761   1.226   4.286   2.814 -0.3516  0.4500  0.5099
 7618SOL    HW123762   1.275   4.277   2.896  0.3596 -1.6180 -0.0695
 7618SOL    HW223763   1.171   4.363   2.827  1.3343  1.4689  2.0854
 7619SOL     OW23764   1.181   5.099   6.724  0.1953 -0.0247 -0.6210
 7619SOL    HW123765   1.176   5.015   6.770  1.2953  0.3514  0.2269
 7619SOL    HW223766   1.206   5.162   6.791  2.2642  0.4682 -1.7516
 7620SOL     OW23767   3.762   6.148   2.591 -0.3075 -0.2199  0.2172
 7620SOL    HW123768   3.847   6.105   2.588 -0.4176 -0.7830  2.6636
 7620SOL    HW223769   3.705   6.094   2.536  0.7288 -0.2000 -0.9135
 7621SOL     OW23770   2.398   5.476   6.292  0.1871  0.3032  0.1905
 7621SOL    HW123771   2.443   5.546   6.339  2.4884 -0.1617 -1.1702
 7621SOL    HW223772   2.455   5.456   6.218 -1.7090 -1.2199 -0.9534
 7622SOL     OW23773   1.409   0.497   3.093 -0.3744  0.4002 -0.0064
 7622SOL    HW123774   1.444   0.566   3.149 -1.5453  0.9499  0.0887
 7622SOL    HW223775   1.325   0.474   3.133  0.0228 -1.1414  0.0027
 7623SOL     OW23776   1.737   1.864   4.371  0.0833 -0.3397  0.4022
 7623SOL    HW123777   1.712   1.774   4.349  1.7323 -1.1173  1.5036
 7623SOL    HW223778   1.790   1.893   4.298 -0.5020 -0.2255  0.0167
 7624SOL     OW23779   5.787   7.210   7.631  0.4633 -0.1476  0.5842
 7624SOL    HW123780   5.749   7.151   7.565  0.8833 -0.0569  0.2566
 7624SOL    HW223781   5.725   7.207   7.704 -0.6098  0.6368 -0.2596
 7625SOL     OW23782   1.378   7.116   1.464  0.0505  0.5244 -0.0595
 7625SOL    HW123783   1.452   7.102   1.405 -1.1939  0.2417 -1.6172
 7625SOL    HW223784   1.364   7.031   1.506  0.0633  0.3314 -0.4397
 7626SOL     OW23785   6.261   1.911   3.985  0.4940  0.0718  0.2405
 7626SOL    HW123786   6.300   1.827   4.006 -0.8701 -0.6971 -0.1655
 7626SOL    HW223787   6.210   1.934   4.063  0.2760  0.1645  0.0722
 7627SOL     OW23788   3.645   0.036   5.669 -0.4343  0.3093 -0.4255
 7627SOL    HW123789   3.708  -0.033   5.647  0.8312  1.1326  0.4775
 7627SOL    HW223790   3.685   0.117   5.637 -2.4025  0.5862 -2.4687
 7628SOL     OW23791   1.044   4.617   3.470 -0.0792  0.7530  0.3170
 7628SOL    HW123792   1.095   4.665   3.535  0.7934  0.5677 -0.1995
 7628SOL    HW223793   1.002   4.547   3.518 -0.4415  1.3505  0.8834
 7629SOL     OW23794   7.471   7.080   1.529  0.0117  0.3131  0.3325
 7629SOL    HW123795   7.413   7.114   1.597  0.3805 -0.3500  0.9870
 7629SOL    HW223796   7.555   7.122   1.547  0.3682 -0.6243  0.9051
 7630SOL     OW23797   2.594   4.762   7.645 -0.0039 -0.8648 -0.0144
 7630SOL    HW123798   2.620   4.680   7.686 -2.2436 -1.8832 -0.4877
 7630SOL    HW223799   2.528   4.737   7.580  0.7206  1.0967 -1.6331
 7631SOL     OW23800   4.308   1.389   6.920  0.3054 -0.2591 -0.1255
 7631SOL    HW123801   4.247   1.363   6.989  3.0292  0.2922  2.7644
 7631SOL    HW223802   4.272   1.469   6.884 -0.2205  0.6279  2.2015
 7632SOL     OW23803   2.117   3.499   7.288  0.0636  0.4332  0.0741
 7632SOL    HW123804   2.053   3.557   7.247 -0.2320  1.0239  1.3280
 7632SOL    HW223805   2.066   3.448   7.351  0.5157 -0.4115 -0.2317
 7633SOL     OW23806   5.898   6.807   0.134 -0.2181  0.1719 -0.2117
 7633SOL    HW123807   5.970   6.828   0.074  0.8281 -0.0434  0.9450
 7633SOL    HW223808   5.918   6.719   0.166 -2.3839 -1.0454 -1.8279
 7634SOL     OW23809   1.788   2.993   4.647  0.4159 -0.3950 -0.6272
 7634SOL    HW123810   1.729   3.023   4.716  1.3275  1.1083 -0.4836
 7634SOL    HW223811   1.740   3.011   4.566 -0.9193 -2.7189 -0.4531
 7635SOL     OW23812   2.962   1.311   3.021  0.4822  0.1569  0.3678
 7635SOL    HW123813   2.872   1.283   3.032  0.2054  0.4392 -0.9645
 7635SOL    HW223814   2.957   1.387   2.963  1.5270  0.5499  0.7561
 7636SOL     OW23815   5.551   7.380   2.350 -0.1384 -0.7094 -0.0167
 7636SOL    HW123816   5.588   7.392   2.438  0.1147 -0.2174 -0.1874
 7636SOL    HW223817   5.627   7.379   2.292 -0.3016 -1.1023 -0.2248
 7637SOL     OW23818   0.663   7.251   2.521  0.2672 -0.6727 -0.8831
 7637SOL    HW123819   0.654   7.176   2.580  1.7273  0.9653  1.5891
 7637SOL    HW223820   0.573   7.272   2.495 -0.6837 -0.4333  2.2211
 7638SOL     OW23821   4.207   2.685   1.401  0.6122 -0.0316  0.0623
 7638SOL    HW123822   4.176   2.610   1.453  0.1983  0.3762  0.4128
 7638SOL    HW223823   4.294   2.659   1.370 -0.0155 -1.1559 -0.8343
 7639SOL     OW23824   2.730   0.652   3.643  0.0236  0.6503  0.4269
 7639SOL    HW123825   2.743   0.701   3.561  0.2009  0.9769  0.6504
 7639SOL    HW223826   2.798   0.585   3.641 -0.9347 -0.3589 -0.4411
 7640SOL     OW23827   3.488   6.262   0.602  0.0327 -0.2835 -0.1541
 7640SOL    HW123828   3.556   6.205   0.566 -0.8843 -0.2993 -2.0199
 7640SOL    HW223829   3.516   6.351   0.578 -1.2887 -0.3812 -2.3690
 7641SOL     OW23830   0.737   4.739   4.610  0.1147  0.4349  0.1754
 7641SOL    HW123831   0.738   4.654   4.656 -0.3680  0.9427  1.1461
 7641SOL    HW223832   0.685   4.796   4.667 -0.2831  1.1547 -0.8945
 7642SOL     OW23833   2.697   3.603   6.849  0.6509  0.5042  0.3536
 7642SOL    HW123834   2.670   3.522   6.805 -0.8349  0.9496  0.4150
 7642SOL    HW223835   2.705   3.578   6.942 -1.2739  0.7407  0.6144
 7643SOL     OW23836   7.582   0.804   1.315 -0.1526  0.5923 -0.7111
 7643SOL    HW123837   7.543   0.718   1.300 -1.1724  0.9189 -0.0529
 7643SOL    HW223838   7.564   0.822   1.407  2.0376  0.5404 -0.2239
 7644SOL     OW23839   6.757   4.689   6.913  0.7565  0.2685  0.1922
 7644SOL    HW123840   6.752   4.684   7.008  1.4437 -2.4530  0.1583
 7644SOL    HW223841   6.738   4.601   6.882  1.0233  0.9477 -2.1853
 7645SOL     OW23842   2.390   1.829   0.836 -0.5812  0.1566 -0.2008
 7645SOL    HW123843   2.324   1.843   0.767 -1.2569 -0.9066  0.2024
 7645SOL    HW223844   2.358   1.881   0.910 -0.1444  0.8637 -0.5028
 7646SOL     OW23845   0.412   3.181   6.671 -0.8012  0.0702 -0.2165
 7646SOL    HW123846   0.383   3.090   6.660 -1.2460  0.1630  0.1516
 7646SOL    HW223847   0.402   3.198   6.765 -3.0687  1.2761 -0.6117
 7647SOL     OW23848   1.645   5.755   2.786 -0.0873 -0.2537  0.2045
 7647SOL    HW123849   1.559   5.773   2.748 -0.9930  0.3867  2.3693
 7647SOL    HW223850   1.685   5.841   2.796  1.1978 -0.6090 -1.5458
 7648SOL     OW23851   6.792   0.535   5.462 -0.5238  0.5995 -0.1744
 7648SOL    HW123852   6.700   0.506   5.461 -0.0751 -0.9442 -0.1987
 7648SOL    HW223853   6.822   0.514   5.551  0.7673 -2.3884 -1.1724
 7649SOL     OW23854   6.016   4.298   0.934 -0.0103 -0.0632  0.0771
 7649SOL    HW123855   5.942   4.349   0.968  1.9111  1.5976  2.0865
 7649SOL    HW223856   6.018   4.317   0.841 -1.3813  0.8056  0.2032
 7650SOL     OW23857   6.854   4.346   3.833 -0.0769  0.0525  0.3117
 7650SOL    HW123858   6.880   4.256   3.812 -0.5390 -0.1615  0.6281
 7650SOL    HW223859   6.936   4.392   3.848  0.2342 -0.0231 -0.9969
 7651SOL     OW23860   1.549   3.574   1.705 -0.3042  0.1463  0.3359
 7651SOL    HW123861   1.477   3.606   1.760 -0.5957 -0.6288  0.4202
 7651SOL    HW223862   1.617   3.548   1.767 -0.7854 -1.0960  0.3689
 7652SOL     OW23863   1.359   2.386   7.625 -0.4726  0.0219 -0.2204
 7652SOL    HW123864   1.308   2.449   7.676 -0.3491  0.0528 -0.1357
 7652SOL    HW223865   1.443   2.429   7.612  1.4791 -1.9358  3.9514
 7653SOL     OW23866   5.496   4.674   1.118 -0.5787  0.1618 -0.6433
 7653SOL    HW123867   5.547   4.609   1.166  0.2452  0.5562 -0.9703
 7653SOL    HW223868   5.477   4.633   1.034  0.1886  0.4446 -0.9608
 7654SOL     OW23869   6.993   5.058   5.962 -0.2911 -0.5949 -0.0491
 7654SOL    HW123870   6.917   5.001   5.951  0.1820 -1.1965 -0.2830
 7654SOL    HW223871   7.037   5.055   5.877 -0.5443  0.5496 -0.2322
 7655SOL     OW23872   1.513   5.503   0.188 -0.1337 -0.0149 -0.4615
 7655SOL    HW123873   1.515   5.538   0.277 -1.8864 -2.6343  0.7452
 7655SOL    HW223874   1.599   5.462   0.177  0.6284  1.5410 -0.5815
 7656SOL     OW23875   0.506   4.788   6.771  0.0284  0.0208  0.3257
 7656SOL    HW123876   0.417   4.806   6.742 -0.0838 -1.4537 -0.3705
 7656SOL    HW223877   0.556   4.866   6.747 -0.2890 -0.6452 -2.9265
 7657SOL     OW23878   5.523   1.339   4.317 -0.0735  0.0938 -0.0119
 7657SOL    HW123879   5.601   1.392   4.334 -1.3947  2.0189  0.3342
 7657SOL    HW223880   5.471   1.392   4.257 -1.1417 -1.1396 -0.2156
 7658SOL     OW23881   3.865   1.925   0.711 -0.1359  0.4704 -0.0743
 7658SOL    HW123882   3.939   1.968   0.669  0.3879  1.2193  1.5365
 7658SOL    HW223883   3.802   1.911   0.641  1.3762  0.1270 -1.4249
 7659SOL     OW23884   6.978   3.803   5.889  0.3021  0.1645 -0.3214
 7659SOL    HW123885   7.058   3.852   5.870  1.1577 -1.1646 -0.2246
 7659SOL    HW223886   6.908   3.861   5.858  1.3590  0.6839 -1.9028
 7660SOL     OW23887   3.918   5.642   2.177 -0.3424  0.0048  0.5911
 7660SOL    HW123888   3.823   5.632   2.177 -0.2478 -1.0145  0.4388
 7660SOL    HW223889   3.935   5.716   2.119 -1.0920  0.7563  1.3195
 7661SOL     OW23890   3.048   7.372   2.540 -0.3795 -0.2273 -0.2871
 7661SOL    HW123891   3.139   7.347   2.556 -0.4557  0.1955  0.9240
 7661SOL    HW223892   3.052   7.431   2.465  0.2408 -0.8058 -0.7260
 7662SOL     OW23893   6.581   5.139   0.602 -0.4619  0.5627  0.1709
 7662SOL    HW123894   6.579   5.196   0.679 -0.3424  0.4254  0.2774
 7662SOL    HW223895   6.498   5.155   0.558 -2.2870 -2.1000  2.3333
 7663SOL     OW23896   2.082   7.381   4.950  0.3265  0.1963  0.2642
 7663SOL    HW123897   2.077   7.308   5.012 -1.0737  0.2831  0.2800
 7663SOL    HW223898   2.069   7.341   4.864  0.8768  0.2685  0.1398
 7664SOL     OW23899   3.481   2.329   0.633  0.4268 -0.2543  0.0043
 7664SOL    HW123900   3.557   2.277   0.661  1.2919  1.1406  0.3169
 7664SOL    HW223901   3.459   2.382   0.709  0.8851  1.3678 -0.9548
 7665SOL     OW23902   1.797   4.117   0.770 -0.5676  0.5675 -0.2922
 7665SOL    HW123903   1.869   4.132   0.708 -0.0223 -0.8121 -0.0230
 7665SOL    HW223904   1.730   4.073   0.718 -0.0579 -0.7090  0.1026
 7666SOL     OW23905   2.040   0.661   2.621  0.5180  0.4174 -0.7676
 7666SOL    HW123906   1.945   0.667   2.636  0.6813 -0.2689  0.7586
 7666SOL    HW223907   2.060   0.735   2.564 -0.3761  2.8366  1.8184
 7667SOL     OW23908   2.698   6.078   0.908  0.3804  0.2062  0.2140
 7667SOL    HW123909   2.702   6.065   1.003 -0.8602  0.5608  0.3380
 7667SOL    HW223910   2.666   5.994   0.874 -1.4797  0.7883  0.3811
 7668SOL     OW23911   7.422   6.309   5.240  0.5353 -0.5111 -0.2333
 7668SOL    HW123912   7.462   6.333   5.324 -0.6501 -0.3094  0.2960
 7668SOL    HW223913   7.333   6.344   5.245  0.6258  0.0354 -1.8315
 7669SOL     OW23914   0.535   5.903   1.455 -0.3336 -0.1733  0.1734
 7669SOL    HW123915   0.615   5.900   1.507 -0.4140 -1.4427  0.2601
 7669SOL    HW223916   0.515   5.997   1.447  1.6454  0.2321 -0.6252
 7670SOL     OW23917   6.751   1.698   5.839  0.1048 -0.2175 -0.0723
 7670SOL    HW123918   6.762   1.693   5.934  1.4964  2.3446 -0.0097
 7670SOL    HW223919   6.739   1.607   5.812  2.8807 -1.4283  2.2109
 7671SOL     OW23920   6.154   1.519   7.240  0.3059 -0.0219 -0.1760
 7671SOL    HW123921   6.201   1.472   7.309 -0.0134 -0.8303 -0.5117
 7671SOL    HW223922   6.207   1.598   7.225  0.9646 -0.3842  0.2190
 7672SOL     OW23923   1.906   7.663   1.635 -0.0705  0.5232 -0.0047
 7672SOL    HW123924   1.874   7.615   1.712 -0.5703  2.0551  0.7772
 7672SOL    HW223925   1.985   7.707   1.666 -0.0083  0.7653 -0.5122
 7673SOL     OW23926   3.223   5.543   1.875  0.7549 -0.2980 -0.4793
 7673SOL    HW123927   3.150   5.484   1.857 -0.0108  1.0841 -2.1782
 7673SOL    HW223928   3.276   5.540   1.795  2.2702 -0.8181  0.4927
 7674SOL     OW23929   7.474   0.024   2.634  0.0736  0.1411  0.4906
 7674SOL    HW123930   7.409  -0.046   2.645 -0.3393  0.4075 -0.1992
 7674SOL    HW223931   7.423   0.101   2.611  0.2614  1.4039  3.8182
 7675SOL     OW23932   0.334   0.188   3.608  0.7537 -0.0280  0.4010
 7675SOL    HW123933   0.282   0.237   3.672 -2.8509 -0.6654 -1.7226
 7675SOL    HW223934   0.313   0.096   3.626  2.3294 -0.4228  0.3409
 7676SOL     OW23935   5.965   0.872   6.156 -0.6033 -0.4547  0.6705
 7676SOL    HW123936   5.891   0.851   6.098  0.1210 -0.1158 -0.4110
 7676SOL    HW223937   5.958   0.967   6.170 -0.2700 -0.3836  0.3892
 7677SOL     OW23938   4.417   4.798   7.253  0.1577 -0.1270 -0.1262
 7677SOL    HW123939   4.360   4.857   7.204  0.4025 -0.1946 -0.5016
 7677SOL    HW223940   4.471   4.756   7.185  1.1961  0.5242  0.2703
 7678SOL     OW23941   4.969   7.576   7.229 -0.1338 -0.0803 -0.0307
 7678SOL    HW123942   5.022   7.521   7.287  0.9260 -0.3750 -1.2359
 7678SOL    HW223943   4.893   7.599   7.282 -1.2531 -3.6293  0.2178
 7679SOL     OW23944   4.970   6.363   7.597  0.0745 -0.5107 -0.0531
 7679SOL    HW123945   5.019   6.287   7.628  0.6251  0.0545  0.4649
 7679SOL    HW223946   4.986   6.365   7.503  0.7104 -0.5717  0.0502
 7680SOL     OW23947   2.847   4.263   5.483 -0.2445 -0.5383  0.4385
 7680SOL    HW123948   2.865   4.243   5.391 -2.2032 -0.8233  0.0686
 7680SOL    HW223949   2.786   4.195   5.510  0.3787 -0.5175  2.0120
 7681SOL     OW23950   2.242   4.175   5.663  0.2880  0.3824 -1.1940
 7681SOL    HW123951   2.304   4.198   5.594  0.1326  0.3919 -1.3328
 7681SOL    HW223952   2.236   4.253   5.718 -1.3380  1.2277 -2.4842
 7682SOL     OW23953   3.969   3.103   1.403  0.0554  0.3487  0.1242
 7682SOL    HW123954   4.043   3.155   1.435  1.6975 -0.5653 -1.9369
 7682SOL    HW223955   4.003   3.058   1.325 -2.9431  0.5530 -1.4391
 7683SOL     OW23956   5.632   1.561   7.283 -0.2619  0.4582 -0.1847
 7683SOL    HW123957   5.694   1.595   7.219  0.7004  0.1481  0.5503
 7683SOL    HW223958   5.666   1.474   7.306 -1.7693 -0.3490 -0.8294
 7684SOL     OW23959   7.603   1.557   5.770  0.7257  0.8628 -0.0945
 7684SOL    HW123960   7.684   1.522   5.733  0.5729 -0.4651  0.7612
 7684SOL    HW223961   7.632   1.619   5.837  1.0118  1.4171 -0.7177
 7685SOL     OW23962   6.892   4.350   7.077  0.5553 -0.7688 -0.0689
 7685SOL    HW123963   6.847   4.389   7.003  0.8379 -0.2158  0.0441
 7685SOL    HW223964   6.877   4.256   7.068  0.2407 -0.6696 -0.5929
 7686SOL     OW23965   3.871   2.021   2.890  0.0402  0.1249  0.0920
 7686SOL    HW123966   3.819   1.941   2.900  0.9006 -0.5372 -0.5310
 7686SOL    HW223967   3.866   2.041   2.796  0.4315  0.3779  0.1238
 7687SOL     OW23968   7.652   7.371   3.838  0.1264 -0.7532 -0.2037
 7687SOL    HW123969   7.626   7.280   3.847 -0.9810 -0.4806 -0.4937
 7687SOL    HW223970   7.617   7.414   3.916  1.8459 -0.8143  0.6423
 7688SOL     OW23971   2.931   5.035   0.435 -0.2437 -0.0939  0.4001
 7688SOL    HW123972   2.869   5.108   0.425  1.3344  1.0290 -2.6773
 7688SOL    HW223973   2.896   4.966   0.378  0.0115 -0.4756  0.6990
 7689SOL     OW23974   2.509   5.312   7.439  0.0694  0.1067 -0.1058
 7689SOL    HW123975   2.561   5.264   7.374 -0.5902 -0.7878  0.0102
 7689SOL    HW223976   2.431   5.341   7.392 -0.2772 -0.3002  0.2112
 7690SOL     OW23977   7.276   3.051   0.457 -0.2244 -0.7555  0.4466
 7690SOL    HW123978   7.251   3.071   0.548  1.3497  1.2519  0.5090
 7690SOL    HW223979   7.252   3.130   0.409  1.9656 -0.4484 -0.2357
 7691SOL     OW23980   2.919   1.803   7.374  0.2617 -0.1609 -0.6498
 7691SOL    HW123981   2.969   1.825   7.296 -0.1945  0.2724 -0.8280
 7691SOL    HW223982   2.983   1.764   7.434  0.2843 -2.3204 -1.9495
 7692SOL     OW23983   1.515   4.449   6.504  0.5532  0.2885  0.4188
 7692SOL    HW123984   1.506   4.459   6.599 -1.5304  0.8096  0.2111
 7692SOL    HW223985   1.524   4.355   6.491 -0.7701  0.0451  1.0607
 7693SOL     OW23986   4.561   0.218   4.537 -0.4937  0.0451 -0.4865
 7693SOL    HW123987   4.542   0.139   4.487 -1.6801 -0.6765  1.0336
 7693SOL    HW223988   4.534   0.290   4.481  2.2494 -0.4408 -2.6587
 7694SOL     OW23989   4.757   7.494   0.290  0.1744  0.6097 -0.6378
 7694SOL    HW123990   4.772   7.588   0.297  0.3647  0.4988  0.5307
 7694SOL    HW223991   4.688   7.486   0.224 -0.3709  1.6088 -0.2125
 7695SOL     OW23992   5.709   1.983   2.011  0.4890 -0.8132 -0.2873
 7695SOL    HW123993   5.805   1.988   2.004  0.6593 -0.9773  1.3625
 7695SOL    HW223994   5.695   1.933   2.092 -0.9690  1.5073  0.9850
 7696SOL     OW23995   4.802   0.834   3.511  0.2857 -0.1137 -0.2124
 7696SOL    HW123996   4.720   0.831   3.560  0.0022  0.5831 -0.6269
 7696SOL    HW223997   4.830   0.926   3.516  2.7136 -0.8411  2.6372
 7697SOL     OW23998   6.403   7.743   0.489 -0.3659 -0.3315  0.6514
 7697SOL    HW123999   6.327   7.796   0.511 -0.1469 -0.1657  1.0330
 7697SOL    HW224000   6.370   7.654   0.481 -0.2356 -0.7285  3.3330
 7698SOL     OW24001   0.925   0.672   6.690 -0.2300  0.2410  0.0333
 7698SOL    HW124002   0.846   0.627   6.660 -0.8274  0.8518  0.6668
 7698SOL    HW224003   0.963   0.708   6.609 -0.4740 -0.2368 -0.3017
 7699SOL     OW24004   5.850   1.544   4.707  0.1193  0.0840 -0.0321
 7699SOL    HW124005   5.773   1.601   4.714  0.3770  0.3171  1.1343
 7699SOL    HW224006   5.905   1.586   4.641 -0.3233  0.4371 -0.1852
 7700SOL     OW24007   2.914   3.025   3.308  0.0908  0.5692  0.3519
 7700SOL    HW124008   3.006   3.002   3.322 -0.3465 -1.0305  0.7568
 7700SOL    HW224009   2.884   2.964   3.240 -1.1677 -0.2736  1.6196
 7701SOL     OW24010   3.722   1.364   3.328 -0.5835  0.1091 -0.3866
 7701SOL    HW124011   3.815   1.385   3.318 -0.1163 -0.7912  1.5852
 7701SOL    HW224012   3.693   1.339   3.240  1.6214 -1.7349 -0.6705
 7702SOL     OW24013   1.747   7.099   5.156  0.1143 -0.7040  0.3651
 7702SOL    HW124014   1.753   7.188   5.120 -0.9166 -0.5668  0.4829
 7702SOL    HW224015   1.776   7.042   5.084 -0.6352 -0.3492 -0.2368
 7703SOL     OW24016   2.510   0.464   6.391  0.6335  0.1110 -0.6556
 7703SOL    HW124017   2.505   0.550   6.433 -0.0753 -0.5921  0.7606
 7703SOL    HW224018   2.460   0.406   6.448  1.2440 -1.2938 -1.4829
 7704SOL     OW24019   0.327   3.785   1.391 -0.3038 -0.2802 -0.1821
 7704SOL    HW124020   0.422   3.772   1.400  0.2312  0.6906 -3.2068
 7704SOL    HW224021   0.303   3.837   1.468  2.0534  1.1213 -0.2726
 7705SOL     OW24022   3.394   2.544   6.005 -0.2454 -0.1106 -0.2972
 7705SOL    HW124023   3.468   2.506   5.958  0.0946 -0.0157  0.1458
 7705SOL    HW224024   3.419   2.536   6.098 -1.2739 -1.0802 -0.0895
 7706SOL     OW24025   5.285   0.992   2.699 -0.3149  0.3283 -0.2179
 7706SOL    HW124026   5.282   1.028   2.611  0.9811 -0.6605 -0.6822
 7706SOL    HW224027   5.233   0.912   2.695 -0.4219  0.3852 -0.0237
 7707SOL     OW24028   1.799   4.433   5.847  0.0627 -0.4204  0.0078
 7707SOL    HW124029   1.771   4.521   5.822 -2.0088 -1.1495 -0.4891
 7707SOL    HW224030   1.763   4.420   5.935  0.2040 -0.8113  0.0086
 7708SOL     OW24031   3.365   0.840   3.812 -0.5440  0.3999 -0.3409
 7708SOL    HW124032   3.330   0.821   3.725  0.7010  0.5445 -0.8994
 7708SOL    HW224033   3.331   0.926   3.834  1.1403  1.5393 -1.8330
 7709SOL     OW24034   6.910   3.843   6.161  0.2502 -0.4236  0.0757
 7709SOL    HW124035   6.979   3.867   6.098  0.6172  1.5817  1.1727
 7709SOL    HW224036   6.829   3.869   6.119  0.4530  0.4203  0.1948
 7710SOL     OW24037   1.220   2.527   3.316 -0.2180 -0.4271  0.6991
 7710SOL    HW124038   1.183   2.501   3.400  0.1408 -0.8138  0.7384
 7710SOL    HW224039   1.186   2.615   3.301 -1.7912 -1.0570  0.3644
 7711SOL     OW24040   5.334   6.078   2.951 -0.6597 -0.4058 -0.1984
 7711SOL    HW124041   5.343   6.048   2.861  0.3166  0.5679 -0.4593
 7711SOL    HW224042   5.365   6.005   3.004  1.1562 -0.1246 -0.7845
 7712SOL     OW24043   1.531   1.618   0.052  0.5362  0.2794 -0.5012
 7712SOL    HW124044   1.531   1.693   0.112 -2.8244  0.2504 -0.2873
 7712SOL    HW224045   1.439   1.600   0.036  1.1743 -3.6989 -0.7533
 7713SOL     OW24046   5.119   0.053   4.295 -0.1682 -0.0513 -0.3127
 7713SOL    HW124047   5.171   0.033   4.372  0.6572  2.4481 -0.1281
 7713SOL    HW224048   5.050  -0.014   4.295 -0.8135  0.4001  3.1692
 7714SOL     OW24049   2.491   3.534   2.578  0.3293  0.0632 -0.0024
 7714SOL    HW124050   2.559   3.563   2.518 -0.6832  1.5422 -0.4902
 7714SOL    HW224051   2.456   3.614   2.617 -0.5790 -0.7094  0.8454
 7715SOL     OW24052   0.149   4.054   6.378 -0.8243 -0.2069 -0.5663
 7715SOL    HW124053   0.173   4.009   6.459 -0.5866 -0.5428 -0.8190
 7715SOL    HW224054   0.199   4.009   6.310 -1.5945 -0.4171 -1.0035
 7716SOL     OW24055   0.145   6.912   7.037  0.5952  0.3037  0.0225
 7716SOL    HW124056   0.130   6.999   7.000  0.0373  0.1169 -0.2100
 7716SOL    HW224057   0.059   6.870   7.033  0.9830 -0.4712 -0.4399
 7717SOL     OW24058   6.718   1.749   6.604 -0.4891 -0.3989  0.2097
 7717SOL    HW124059   6.789   1.703   6.649 -0.3248  0.5947  1.0154
 7717SOL    HW224060   6.720   1.837   6.641  0.2326  0.7862 -2.3626
 7718SOL     OW24061   7.306   3.685   4.405  0.1010 -0.1466  0.0249
 7718SOL    HW124062   7.306   3.593   4.431 -1.2731  0.0633  0.8726
 7718SOL    HW224063   7.235   3.724   4.456  1.1027  1.5371  0.2116
 7719SOL     OW24064   0.802   7.164   4.694  0.1746 -1.1439 -0.6135
 7719SOL    HW124065   0.888   7.160   4.736 -0.6068  0.3405  1.2440
 7719SOL    HW224066   0.740   7.159   4.766 -1.3378 -1.8463 -1.9005
 7720SOL     OW24067   6.042   0.014   2.208 -0.1764 -0.1542  0.0620
 7720SOL    HW124068   6.027  -0.041   2.285 -1.9160 -0.2756 -0.3130
 7720SOL    HW224069   6.009   0.100   2.233  2.4191  0.7819  0.5976
 7721SOL     OW24070   3.121   5.881   7.499  0.1955 -0.0767 -0.1876
 7721SOL    HW124071   3.058   5.926   7.442 -1.0563  0.6979  1.7187
 7721SOL    HW224072   3.068   5.818   7.548  1.3109 -0.9901 -0.1177
 7722SOL     OW24073   6.690   6.590   7.113  0.1309  0.1417  0.3933
 7722SOL    HW124074   6.598   6.573   7.096  0.0012  0.7882  0.4326
 7722SOL    HW224075   6.692   6.676   7.154  0.8423  0.6741 -0.6932
 7723SOL     OW24076   6.117   2.598   1.948  0.0462  0.5613 -0.2323
 7723SOL    HW124077   6.153   2.626   2.033 -0.0899  0.5485 -0.1685
 7723SOL    HW224078   6.144   2.507   1.939 -0.0020  0.5404 -0.1674
 7724SOL     OW24079   6.175   0.879   2.900  0.0591 -0.3634  0.2054
 7724SOL    HW124080   6.266   0.900   2.920 -0.2005  1.9264 -0.7405
 7724SOL    HW224081   6.175   0.856   2.808 -0.3526 -0.0124  0.1138
 7725SOL     OW24082   6.805   6.071   5.358  0.3147 -0.3529 -0.4326
 7725SOL    HW124083   6.809   6.061   5.263  0.7397 -0.7721 -0.3725
 7725SOL    HW224084   6.880   6.126   5.380 -0.3694  0.6157 -0.4438
 7726SOL     OW24085   5.315   7.428   6.464 -0.1677 -0.2429 -0.2277
 7726SOL    HW124086   5.268   7.509   6.443 -0.4006  0.1389  1.6088
 7726SOL    HW224087   5.267   7.359   6.418 -1.2126  0.4122 -0.1401
 7727SOL     OW24088   4.197   0.482   5.183  0.0909 -0.0300 -0.6227
 7727SOL    HW124089   4.200   0.416   5.114  1.5284 -0.1403 -0.4778
 7727SOL    HW224090   4.202   0.431   5.264 -0.3561  0.1723 -0.4662
 7728SOL     OW24091   3.920   7.287   0.408 -0.1859  0.9184  0.0759
 7728SOL    HW124092   3.959   7.346   0.343 -1.0589  0.7736 -0.5940
 7728SOL    HW224093   3.827   7.290   0.390 -0.4166  0.6646  1.1637
 7729SOL     OW24094   3.816   2.049   7.539  0.3750  0.4517  0.2471
 7729SOL    HW124095   3.799   1.961   7.505  1.9117  0.3403 -0.2922
 7729SOL    HW224096   3.811   2.040   7.634  0.5091 -0.2190  0.1954
 7730SOL     OW24097   4.854   0.434   4.765  0.8427 -0.9692  0.2281
 7730SOL    HW124098   4.819   0.445   4.854  1.1436 -1.6166  0.4340
 7730SOL    HW224099   4.835   0.517   4.721 -0.2736 -1.0294  0.5623
 7731SOL     OW24100   1.631   4.937   4.486 -0.1388 -0.4985  0.2332
 7731SOL    HW124101   1.660   4.988   4.562 -1.0262 -0.9088  0.8814
 7731SOL    HW224102   1.705   4.938   4.426  1.2108 -1.4719  1.7685
 7732SOL     OW24103   5.935   5.491   4.088  0.4321  0.2530 -0.2433
 7732SOL    HW124104   5.915   5.411   4.040 -2.0685  1.0403 -0.6111
 7732SOL    HW224105   5.926   5.467   4.180  0.1526 -0.0080 -0.3393
 7733SOL     OW24106   2.221   5.289   0.155 -0.0382 -0.3119  0.6183
 7733SOL    HW124107   2.176   5.338   0.085  0.7286  2.7087  2.0788
 7733SOL    HW224108   2.165   5.300   0.232  1.7205  1.1030  1.7675
 7734SOL     OW24109   3.302   0.018   3.682  0.6448  0.5045  0.7954
 7734SOL    HW124110   3.213   0.038   3.653  0.3065 -0.6403  0.9883
 7734SOL    HW224111   3.292  -0.008   3.774  0.8982 -1.3592  0.3392
 7735SOL     OW24112   5.232   1.049   2.161 -0.3664 -0.2701 -0.1385
 7735SOL    HW124113   5.229   0.994   2.083  0.6004 -0.4396 -0.0676
 7735SOL    HW224114   5.233   1.139   2.127  1.3211 -0.3581 -0.3907
 7736SOL     OW24115   3.776   1.587   0.825 -0.3166 -0.4787 -0.2654
 7736SOL    HW124116   3.841   1.603   0.894 -1.0353 -0.9063  0.5338
 7736SOL    HW224117   3.821   1.611   0.744  1.4254 -2.3352  0.0755
 7737SOL     OW24118   4.887   6.941   7.174  0.4982  0.2915  0.5006
 7737SOL    HW124119   4.911   6.984   7.256  4.1062 -0.0482 -0.2110
 7737SOL    HW224120   4.906   7.006   7.106  1.2083 -0.6807 -0.2652
 7738SOL     OW24121   3.403   5.766   2.686 -0.0762 -0.0637 -0.2116
 7738SOL    HW124122   3.417   5.739   2.596  1.8972 -1.8078  0.5383
 7738SOL    HW224123   3.384   5.685   2.733  0.8488  0.5165  1.2412
 7739SOL     OW24124   6.298   1.795   3.388 -0.1680 -0.4369 -0.6854
 7739SOL    HW124125   6.324   1.727   3.450  0.6883  0.3391 -0.1713
 7739SOL    HW224126   6.366   1.793   3.321  0.3439  0.5074 -0.2003
 7740SOL     OW24127   0.310   3.007   2.696 -0.4106 -0.7561 -0.1508
 7740SOL    HW124128   0.292   3.063   2.772  0.7947 -0.6267  0.0700
 7740SOL    HW224129   0.404   3.019   2.680 -0.4374 -1.5998 -1.0103
 7741SOL     OW24130   1.259   1.343   4.962  0.2047  0.4257 -0.2159
 7741SOL    HW124131   1.221   1.255   4.968  1.2605 -0.0685 -0.5540
 7741SOL    HW224132   1.283   1.364   5.052  0.8573 -0.0600 -0.2652
 7742SOL     OW24133   1.358   4.350   6.119 -0.4521 -0.6064 -0.1710
 7742SOL    HW124134   1.292   4.413   6.147 -0.3316  0.7055 -2.5540
 7742SOL    HW224135   1.339   4.271   6.169 -3.9753 -0.3612 -0.9022
 7743SOL     OW24136   7.188   2.066   2.636  0.0329 -0.4742  0.6139
 7743SOL    HW124137   7.145   2.069   2.550  0.3822 -0.8535  0.4227
 7743SOL    HW224138   7.197   2.158   2.662 -0.7487 -0.3848  0.5844
 7744SOL     OW24139   2.183   1.563   4.366 -0.4600 -0.4436 -0.2904
 7744SOL    HW124140   2.095   1.583   4.336 -0.6054  0.8248  0.8921
 7744SOL    HW224141   2.184   1.589   4.459  1.1237 -0.4683 -0.2677
 7745SOL     OW24142   1.613   5.341   2.214 -0.6497 -0.1104 -0.4135
 7745SOL    HW124143   1.694   5.357   2.165 -0.2206 -0.7417  0.0867
 7745SOL    HW224144   1.632   5.370   2.303 -1.2458  0.4879 -0.4655
 7746SOL     OW24145   2.659   6.659   3.595  0.1952 -0.1492 -0.3776
 7746SOL    HW124146   2.610   6.714   3.657 -0.2863  0.1603 -1.0267
 7746SOL    HW224147   2.633   6.569   3.618  0.2908 -0.0583  0.0960
 7747SOL     OW24148   0.127   5.149   5.089  0.1860 -0.0330  0.3380
 7747SOL    HW124149   0.049   5.155   5.034  0.6254 -0.1691 -0.3139
 7747SOL    HW224150   0.115   5.068   5.139  0.1826 -0.3635 -0.1965
 7748SOL     OW24151   7.464   5.868   3.804 -0.1011 -0.2232  0.3377
 7748SOL    HW124152   7.375   5.887   3.774  0.5255 -2.7130 -3.8898
 7748SOL    HW224153   7.520   5.902   3.734  1.9431 -2.3047  0.8577
 7749SOL     OW24154   3.745   1.009   3.909 -0.4677  0.2627 -0.3969
 7749SOL    HW124155   3.702   1.063   3.843 -1.1468 -0.5308 -0.6283
 7749SOL    HW224156   3.750   0.922   3.870  2.1927  0.4830 -0.7230
 7750SOL     OW24157   2.303   7.344   0.772  0.0866  0.2754 -0.7374
 7750SOL    HW124158   2.257   7.407   0.828  0.0330 -0.4107  0.0103
 7750SOL    HW224159   2.233   7.291   0.734  0.2279 -1.4295  1.1861
 7751SOL     OW24160   1.842   3.600   3.785 -0.1562 -0.1588  0.0422
 7751SOL    HW124161   1.768   3.601   3.846 -0.5427  0.3174 -0.4295
 7751SOL    HW224162   1.919   3.594   3.841 -0.4639  1.1016  0.6259
 7752SOL     OW24163   1.327   7.694   3.745  0.5493  0.0431  0.0259
 7752SOL    HW124164   1.357   7.675   3.656  1.2747  0.8380  0.0799
 7752SOL    HW224165   1.377   7.635   3.801 -1.4788 -2.0345 -0.2112
 7753SOL     OW24166   0.134   0.260   7.092 -0.4522 -0.2506 -0.2009
 7753SOL    HW124167   0.063   0.258   7.029 -1.0368 -1.7329  0.4605
 7753SOL    HW224168   0.206   0.303   7.046 -1.3803  0.1892 -1.2879
 7754SOL     OW24169   5.050   3.295   0.318 -0.0742  0.8526  0.2212
 7754SOL    HW124170   5.116   3.259   0.259  0.0584  3.0351 -1.1000
 7754SOL    HW224171   4.983   3.330   0.259 -1.7287 -0.0226  1.5053
 7755SOL     OW24172   5.304   1.449   0.849 -0.3025  0.8711 -0.2272
 7755SOL    HW124173   5.274   1.527   0.802 -2.7534  0.1427 -0.0364
 7755SOL    HW224174   5.273   1.376   0.795  0.5881  0.0331  0.3756
 7756SOL     OW24175   4.862   7.291   7.274  0.4415 -0.1084 -0.2234
 7756SOL    HW124176   4.922   7.338   7.216  1.8543  1.3646  2.2165
 7756SOL    HW224177   4.782   7.343   7.272  1.3366  1.4366  0.9480
 7757SOL     OW24178   7.604   5.363   4.089 -0.2222  0.3553 -0.7857
 7757SOL    HW124179   7.574   5.451   4.068  0.6297  0.3101 -2.3251
 7757SOL    HW224180   7.630   5.367   4.181  0.0306  1.7698 -0.9071
 7758SOL     OW24181   2.651   4.165   2.968  0.3166  0.4013 -0.2544
 7758SOL    HW124182   2.736   4.181   3.008  0.0485  0.8260  0.1552
 7758SOL    HW224183   2.598   4.129   3.039  0.2330 -0.1129 -0.5760
 7759SOL     OW24184   3.741   4.862   7.703 -0.9985 -0.0843  0.3449
 7759SOL    HW124185   3.715   4.772   7.724 -1.9881  0.0590 -0.2489
 7759SOL    HW224186   3.812   4.881   7.766  0.3661 -1.8390 -0.5671
 7760SOL     OW24187   6.714   7.041   4.274  0.6060  0.0716  0.3852
 7760SOL    HW124188   6.686   7.028   4.364  1.4850  1.2406  0.8509
 7760SOL    HW224189   6.715   7.136   4.262  0.5398 -0.0601 -0.8531
 7761SOL     OW24190   6.040   3.468   1.936 -0.3330  0.4294 -0.7878
 7761SOL    HW124191   6.106   3.422   1.988 -0.9975  0.0905 -0.2145
 7761SOL    HW224192   6.076   3.472   1.848 -0.5748 -1.8933 -1.0574
 7762SOL     OW24193   4.597   2.297   1.900  0.0462 -0.7592  0.3163
 7762SOL    HW124194   4.651   2.221   1.919 -1.0606 -1.5787  0.2430
 7762SOL    HW224195   4.589   2.298   1.805  0.1310 -0.4927  0.3103
 7763SOL     OW24196   1.190   3.436   6.304  0.0117  0.6858  0.1076
 7763SOL    HW124197   1.246   3.372   6.260  0.5110  0.8587  0.4845
 7763SOL    HW224198   1.242   3.465   6.379 -0.6587  0.7144  0.5635
 7764SOL     OW24199   5.761   1.140   5.525 -0.1793 -0.3343  0.2383
 7764SOL    HW124200   5.808   1.138   5.608  0.8287 -1.2076 -0.3285
 7764SOL    HW224201   5.669   1.132   5.549  0.1128 -0.7003  1.2635
 7765SOL     OW24202   6.124   6.646   2.027 -0.3024  0.3215 -0.7272
 7765SOL    HW124203   6.037   6.669   1.994 -0.2189  1.8170  0.0255
 7765SOL    HW224204   6.144   6.714   2.092  0.1545 -1.6880  1.3400
 7766SOL     OW24205   4.591   6.881   6.177  0.2017 -0.2594 -0.1710
 7766SOL    HW124206   4.627   6.953   6.227  0.6344  0.2665 -1.2146
 7766SOL    HW224207   4.497   6.900   6.171 -0.3903 -1.7342  2.7134
 7767SOL     OW24208   2.089   6.423   4.152 -0.2005  0.2053 -0.6996
 7767SOL    HW124209   2.063   6.337   4.120 -2.9804  0.5657  0.3865
 7767SOL    HW224210   2.130   6.407   4.236  1.4554 -0.1945 -1.5357
 7768SOL     OW24211   1.032   6.742   6.250  0.0470  0.7325  0.2507
 7768SOL    HW124212   1.057   6.791   6.328  1.7622  0.1136  0.1183
 7768SOL    HW224213   1.073   6.789   6.178 -1.0569  0.9684 -0.2589
 7769SOL     OW24214   0.620   4.193   6.984 -0.0945  0.2713  0.5438
 7769SOL    HW124215   0.708   4.192   7.021 -0.0487  1.2489  0.4899
 7769SOL    HW224216   0.592   4.285   6.990 -0.7461  0.1394 -0.2846
 7770SOL     OW24217   5.478   3.430   7.380 -0.0434  0.4996 -0.7821
 7770SOL    HW124218   5.460   3.385   7.298 -1.3926 -0.3227 -0.0729
 7770SOL    HW224219   5.402   3.411   7.436  1.2890  0.1497  1.0220
 7771SOL     OW24220   3.700   2.329   0.977  0.4087 -0.4675  0.2287
 7771SOL    HW124221   3.621   2.335   0.923  1.0378 -0.8592 -0.7684
 7771SOL    HW224222   3.757   2.269   0.929  0.5907 -1.6703  1.8562
 7772SOL     OW24223   4.863   5.905   5.835  0.2203 -0.2983  0.1956
 7772SOL    HW124224   4.941   5.857   5.863 -0.9943 -1.4872  1.7337
 7772SOL    HW224225   4.813   5.919   5.916 -0.6839  1.3412 -0.5999
 7773SOL     OW24226   2.390   5.352   5.152  0.1339  0.0733  0.6638
 7773SOL    HW124227   2.301   5.387   5.155 -0.6901 -1.3101 -2.9293
 7773SOL    HW224228   2.407   5.323   5.242 -2.4121  1.7039  1.7922
 7774SOL     OW24229   3.182   1.722   0.604 -0.5238  0.1292 -0.2445
 7774SOL    HW124230   3.243   1.655   0.571 -1.4140 -0.9211  0.1704
 7774SOL    HW224231   3.238   1.795   0.630  0.4276 -0.1969 -1.3044
 7775SOL     OW24232   6.835   0.210   5.278  0.5726 -0.2199 -0.6604
 7775SOL    HW124233   6.757   0.223   5.332  1.9047 -0.0577  1.3189
 7775SOL    HW224234   6.804   0.221   5.188 -1.6386 -0.0059  0.0706
 7776SOL     OW24235   0.194   0.569   3.392 -0.6000 -0.2508 -0.1009
 7776SOL    HW124236   0.272   0.514   3.380 -0.6877 -0.0501 -1.8369
 7776SOL    HW224237   0.226   0.645   3.440  0.0808 -0.6181  0.0373
 7777SOL     OW24238   3.048   5.731   5.521 -0.3173  0.0824 -0.1933
 7777SOL    HW124239   3.046   5.680   5.440 -0.1090  0.6190 -0.5448
 7777SOL    HW224240   2.964   5.777   5.522 -0.0550  0.5714 -0.4336
 7778SOL     OW24241   2.128   4.414   3.650  0.0277  0.0158  0.4693
 7778SOL    HW124242   2.176   4.395   3.570 -0.2438 -2.5233  0.8141
 7778SOL    HW224243   2.036   4.418   3.622 -0.1581 -1.7613  0.7299
 7779SOL     OW24244   0.397   1.204   4.061 -0.0657  0.1534  0.6044
 7779SOL    HW124245   0.350   1.121   4.075 -0.3970  0.4137  1.0680
 7779SOL    HW224246   0.329   1.264   4.031  0.4503 -0.1344 -1.2898
 7780SOL     OW24247   5.120   7.199   3.609  0.0020 -0.5920  0.7399
 7780SOL    HW124248   5.103   7.106   3.591 -2.4781 -0.4374  1.8189
 7780SOL    HW224249   5.141   7.236   3.523 -2.0086 -1.6192 -0.2777
 7781SOL     OW24250   5.128   2.957   4.079  0.3626 -0.2536  0.1090
 7781SOL    HW124251   5.098   2.995   3.997  0.6068 -0.4169 -0.0565
 7781SOL    HW224252   5.210   2.913   4.057  0.2741 -0.5539  0.3772
 7782SOL     OW24253   4.486   2.844   4.070 -0.2906 -0.5451  0.1286
 7782SOL    HW124254   4.502   2.882   3.983 -1.4538 -0.5589 -0.0984
 7782SOL    HW224255   4.477   2.920   4.127 -1.3584 -0.4803 -0.1035
 7783SOL     OW24256   5.039   2.385   7.379  0.3256 -0.1342  0.2119
 7783SOL    HW124257   5.058   2.432   7.460 -0.1823 -0.3115  0.4381
 7783SOL    HW224258   4.946   2.365   7.384  0.4623 -0.8636 -0.0408
 7784SOL     OW24259   4.105   6.084   3.413 -0.3439 -0.5385 -0.0747
 7784SOL    HW124260   4.043   6.152   3.388 -0.5840 -1.0664 -0.9614
 7784SOL    HW224261   4.123   6.101   3.505 -0.0121  1.0125 -0.3968
 7785SOL     OW24262   2.579   1.382   6.805 -0.3364 -0.1513  0.5168
 7785SOL    HW124263   2.674   1.377   6.812 -0.1233  1.8557 -0.2791
 7785SOL    HW224264   2.561   1.474   6.787 -2.4733 -0.4071  1.0535
 7786SOL     OW24265   3.859   1.650   5.738  0.1539 -0.6606 -0.8699
 7786SOL    HW124266   3.826   1.565   5.766 -0.3336 -0.0475  0.5202
 7786SOL    HW224267   3.826   1.660   5.649 -1.5307 -1.0592 -0.3300
 7787SOL     OW24268   6.010   4.517   5.435  0.3106  1.0425 -0.1157
 7787SOL    HW124269   6.018   4.473   5.351 -1.6980  1.3203 -0.5033
 7787SOL    HW224270   5.983   4.449   5.496 -0.9166  1.3297 -0.3090
 7788SOL     OW24271   1.272   1.806   2.527  0.3685  0.5413  0.5956
 7788SOL    HW124272   1.282   1.895   2.494 -0.3836 -0.4460 -2.5539
 7788SOL    HW224273   1.178   1.792   2.534  0.3312 -0.7842 -1.5382
 7789SOL     OW24274   5.335   6.203   5.483 -0.4123  0.2596  0.2135
 7789SOL    HW124275   5.313   6.133   5.544 -0.4255 -0.1327 -0.2431
 7789SOL    HW224276   5.326   6.164   5.396  1.2806  0.3196 -0.0239
 7790SOL     OW24277   5.210   5.928   5.918  0.1400  0.0188 -0.4525
 7790SOL    HW124278   5.186   5.937   6.010  2.0728  1.9543 -0.0424
 7790SOL    HW224279   5.207   5.833   5.902 -0.8340 -0.3171  1.4092
 7791SOL     OW24280   5.038   4.097   2.543 -0.1585 -0.6938 -0.3219
 7791SOL    HW124281   5.051   4.020   2.598  0.4383 -1.2197 -1.1676
 7791SOL    HW224282   4.952   4.084   2.504  0.2270 -1.2937 -0.9967
 7792SOL     OW24283   0.918   3.025   3.676 -0.0048  0.0130  0.2969
 7792SOL    HW124284   0.981   2.971   3.724  1.5156 -0.3286 -1.9054
 7792SOL    HW224285   0.836   3.014   3.723  1.3049 -0.4865  2.6040
 7793SOL     OW24286   7.136   0.765   0.665 -0.6320  0.1361 -0.4565
 7793SOL    HW124287   7.115   0.688   0.718 -1.2103  0.6231  0.0374
 7793SOL    HW224288   7.229   0.755   0.644 -1.1077 -1.6532 -2.0120
 7794SOL     OW24289   5.801   6.518   7.245 -0.3904 -0.3018  0.0771
 7794SOL    HW124290   5.719   6.561   7.270  1.5817  4.8904 -1.0260
 7794SOL    HW224291   5.849   6.507   7.328 -1.4986 -1.8846  0.5406
 7795SOL     OW24292   4.624   7.454   5.443  0.2786  0.0457 -0.1938
 7795SOL    HW124293   4.634   7.369   5.400  1.9465 -0.0027  0.2097
 7795SOL    HW224294   4.603   7.433   5.534  1.1633  0.0473  0.0143
 7796SOL     OW24295   2.306   1.224   3.912 -0.2661  0.0754 -0.1215
 7796SOL    HW124296   2.388   1.187   3.881 -0.3048  0.0767 -0.2259
 7796SOL    HW224297   2.238   1.175   3.866 -0.3062  1.6781 -1.9298
 7797SOL     OW24298   4.120   7.416   5.059  0.0282 -0.3644  0.0652
 7797SOL    HW124299   4.208   7.425   5.095 -1.0145  1.1195  2.5005
 7797SOL    HW224300   4.117   7.327   5.024  2.2009 -0.7579  0.7434
 7798SOL     OW24301   0.895   6.035   3.075 -0.2741 -0.0281 -0.0394
 7798SOL    HW124302   0.822   6.094   3.097 -1.1761 -1.0729 -0.1511
 7798SOL    HW224303   0.894   6.030   2.980  1.6835  2.0537 -0.2665
 7799SOL     OW24304   1.417   5.840   5.172 -0.2016 -1.0012  0.2948
 7799SOL    HW124305   1.379   5.903   5.233 -0.7839  1.3958 -2.3094
 7799SOL    HW224306   1.428   5.760   5.223 -0.6869  0.7983  3.4407
 7800SOL     OW24307   2.026   6.872   2.452 -0.1435 -0.0888  0.2786
 7800SOL    HW124308   2.052   6.794   2.402  0.7182  0.0699  0.4635
 7800SOL    HW224309   1.966   6.919   2.394  0.9941  0.1941 -0.7114
 7801SOL     OW24310   5.585   2.839   2.638  0.3263 -0.1516  0.4368
 7801SOL    HW124311   5.522   2.910   2.631 -1.8916 -1.8796  1.2970
 7801SOL    HW224312   5.626   2.851   2.724 -0.9979 -0.5752  1.1573
 7802SOL     OW24313   5.697   5.058   2.725 -0.7828  0.0734 -0.0224
 7802SOL    HW124314   5.712   5.136   2.672 -2.0161 -0.7143 -1.6048
 7802SOL    HW224315   5.715   4.985   2.666  1.8098 -0.9180  1.8483
 7803SOL     OW24316   4.827   2.209   0.605 -0.4753 -0.2054  0.1478
 7803SOL    HW124317   4.752   2.150   0.610 -0.4617 -0.1844  0.6432
 7803SOL    HW224318   4.861   2.198   0.516 -0.1823 -1.2990  0.3775
 7804SOL     OW24319   5.435   1.746   4.290  0.0738  0.1207  0.2922
 7804SOL    HW124320   5.464   1.778   4.205  0.7230 -0.5331  0.2624
 7804SOL    HW224321   5.412   1.655   4.275  1.3718 -0.3645  1.0639
 7805SOL     OW24322   4.365   6.029   2.081  0.2180  0.7795  0.5402
 7805SOL    HW124323   4.398   6.019   1.992  0.2993  0.8344  0.5641
 7805SOL    HW224324   4.432   5.989   2.136 -0.8427 -1.2991  0.4392
 7806SOL     OW24325   1.176   1.089   4.924  0.3202  0.1193 -0.0144
 7806SOL    HW124326   1.222   1.008   4.944  1.0606  0.4033 -0.5096
 7806SOL    HW224327   1.084   1.070   4.943  0.4593 -0.8879 -0.2930
 7807SOL     OW24328   7.573   0.764   4.322  0.1725 -0.7004  0.7529
 7807SOL    HW124329   7.560   0.673   4.295 -0.5152 -0.2416 -0.5237
 7807SOL    HW224330   7.662   0.785   4.292  1.0631 -1.4724  2.6687
 7808SOL     OW24331   3.605   5.714   7.705 -0.2114  0.0255 -0.0337
 7808SOL    HW124332   3.690   5.755   7.720 -0.8300  1.0235  0.9131
 7808SOL    HW224333   3.624   5.639   7.649  1.2900  0.1918  0.2129
 7809SOL     OW24334   6.660   4.065   3.447 -0.3410 -0.6434 -0.1450
 7809SOL    HW124335   6.751   4.094   3.457 -0.3710 -0.5286 -0.2006
 7809SOL    HW224336   6.608   4.137   3.483 -0.4833  0.1544 -1.8364
 7810SOL     OW24337   6.290   3.481   5.115  0.0000  0.1565 -0.4438
 7810SOL    HW124338   6.377   3.515   5.136 -0.5656  2.1584 -1.0397
 7810SOL    HW224339   6.306   3.395   5.077  1.8579  1.0039 -1.7561
 7811SOL     OW24340   0.535   1.774   5.343  0.1507 -0.1922 -0.3910
 7811SOL    HW124341   0.600   1.785   5.274  0.3568 -2.8730 -0.7672
 7811SOL    HW224342   0.581   1.726   5.412 -0.8280 -0.1536  0.3173
 7812SOL     OW24343   1.846   5.527   4.537  0.1072  0.2834 -0.0982
 7812SOL    HW124344   1.913   5.474   4.579  1.3103 -0.2631 -2.5629
 7812SOL    HW224345   1.766   5.508   4.586  1.3122 -0.6132  1.6178
 7813SOL     OW24346   2.429   0.252   5.554  0.0121  0.1615 -0.2648
 7813SOL    HW124347   2.360   0.317   5.537  0.3387  0.5289 -0.1833
 7813SOL    HW224348   2.450   0.215   5.468  0.4724  0.8164 -0.4366
 7814SOL     OW24349   4.592   6.742   2.305  0.1561 -0.0327 -0.5041
 7814SOL    HW124350   4.644   6.685   2.361  1.2748  2.0985  0.7629
 7814SOL    HW224351   4.593   6.826   2.350 -2.2481  0.7513 -1.7915
 7815SOL     OW24352   4.960   1.648   6.622  0.2767  0.4512  0.2138
 7815SOL    HW124353   4.929   1.731   6.587 -1.7580  0.0300  0.8879
 7815SOL    HW224354   4.953   1.657   6.717  1.0746 -0.1171  0.3430
 7816SOL     OW24355   5.261   6.906   2.539  0.2563  0.5557  0.2262
 7816SOL    HW124356   5.229   6.978   2.485 -1.2528  0.4742  0.9686
 7816SOL    HW224357   5.237   6.827   2.492  1.1755  0.5062 -0.1823
 7817SOL     OW24358   4.394   3.838   0.128 -0.0718  0.0343  0.2952
 7817SOL    HW124359   4.391   3.880   0.042 -0.8623  1.1374  0.8377
 7817SOL    HW224360   4.475   3.788   0.127 -0.2511 -0.2779 -1.2267
 7818SOL     OW24361   4.695   6.804   6.829  0.4363  0.4271 -0.6105
 7818SOL    HW124362   4.609   6.795   6.869  0.6560 -1.2365 -0.4484
 7818SOL    HW224363   4.676   6.820   6.736 -0.0993 -1.8083 -0.9453
 7819SOL     OW24364   2.073   4.189   5.316  0.2464 -0.4387  0.2065
 7819SOL    HW124365   1.991   4.214   5.357 -0.0869 -1.3415  0.1059
 7819SOL    HW224366   2.102   4.112   5.365  1.1125 -0.0398  0.3394
 7820SOL     OW24367   6.846   1.191   5.549 -0.5748 -0.0043  0.2906
 7820SOL    HW124368   6.930   1.148   5.535 -0.3048  0.5553  0.1586
 7820SOL    HW224369   6.805   1.143   5.621 -1.0572 -1.5977 -0.9898
 7821SOL     OW24370   4.834   2.890   2.009  0.2210  0.0392 -0.5428
 7821SOL    HW124371   4.775   2.906   1.935 -1.6977  1.5786  1.2124
 7821SOL    HW224372   4.896   2.824   1.976 -0.9456  0.1645 -3.2707
 7822SOL     OW24373   5.080   3.606   4.879  0.0168 -0.6977 -0.0227
 7822SOL    HW124374   5.003   3.593   4.823  0.6285 -1.7166 -0.6732
 7822SOL    HW224375   5.057   3.679   4.936 -1.3586 -0.8663 -0.3319
 7823SOL     OW24376   3.986   4.302   6.111 -0.6444  0.4509  0.1786
 7823SOL    HW124377   3.893   4.278   6.112 -0.3596 -0.8090 -0.6345
 7823SOL    HW224378   3.986   4.397   6.117 -2.0286  0.5235 -0.4915
 7824SOL     OW24379   6.610   1.916   5.774 -0.1410 -0.0589  0.3554
 7824SOL    HW124380   6.657   1.833   5.784 -1.7527 -0.9884  0.7099
 7824SOL    HW224381   6.519   1.894   5.793 -0.6881  1.7192  0.0112
 7825SOL     OW24382   3.046   6.997   4.253 -0.0759  0.3728 -0.5325
 7825SOL    HW124383   3.068   6.992   4.161 -1.9289 -0.0829 -1.0045
 7825SOL    HW224384   2.994   6.918   4.270  0.9969 -0.0363  1.1484
 7826SOL     OW24385   2.449   1.941   6.810 -0.1752 -0.2889  0.1383
 7826SOL    HW124386   2.485   1.862   6.849  0.9260  1.2491  2.4211
 7826SOL    HW224387   2.411   1.990   6.883 -0.4814  1.4952 -1.1274
 7827SOL     OW24388   5.728   5.891   2.051 -0.5972 -0.0646  0.3156
 7827SOL    HW124389   5.665   5.854   1.989  1.3136 -1.3146 -1.0014
 7827SOL    HW224390   5.769   5.963   2.004 -1.3643  1.0757  1.3500
 7828SOL     OW24391   3.853   0.651   1.781 -0.4434 -0.1455 -0.0939
 7828SOL    HW124392   3.780   0.649   1.843 -0.9912  1.2906 -0.6482
 7828SOL    HW224393   3.821   0.603   1.704 -1.2688  1.3949 -0.7677
 7829SOL     OW24394   2.075   4.679   5.493  0.4238 -0.0090 -0.6883
 7829SOL    HW124395   2.068   4.587   5.517 -0.3362  0.0158 -0.7711
 7829SOL    HW224396   2.168   4.695   5.481  0.7248 -0.3087  1.0937
 7830SOL     OW24397   3.517   1.177   7.555  0.6199  0.0835 -0.3167
 7830SOL    HW124398   3.439   1.146   7.510 -0.6033  1.2597  0.8897
 7830SOL    HW224399   3.580   1.106   7.545 -0.8071 -1.1879 -0.7716
 7831SOL     OW24400   3.545   6.685   6.722  0.4457  0.0386  0.5416
 7831SOL    HW124401   3.459   6.714   6.751 -0.1091 -1.0528  0.0481
 7831SOL    HW224402   3.529   6.601   6.679  2.0803 -1.4524  2.6545
 7832SOL     OW24403   3.603   4.334   5.576  0.1875 -0.1279 -0.0492
 7832SOL    HW124404   3.573   4.424   5.581 -1.0764 -0.5340  0.1595
 7832SOL    HW224405   3.530   4.283   5.612 -0.8312 -1.5444 -3.6233
 7833SOL     OW24406   3.830   3.001   5.032  0.7117  0.6008 -0.1342
 7833SOL    HW124407   3.751   2.948   5.032  0.9436  0.2236  0.9326
 7833SOL    HW224408   3.835   3.038   4.944 -0.8024  0.8661 -0.1386
 7834SOL     OW24409   4.749   5.794   3.335 -0.1526  0.1239  0.0965
 7834SOL    HW124410   4.758   5.709   3.378  1.5915 -0.4170 -1.2534
 7834SOL    HW224411   4.739   5.774   3.242  1.2874  1.3651 -0.3755
 7835SOL     OW24412   0.041   3.167   3.881 -0.0610  0.0719 -0.1181
 7835SOL    HW124413   0.062   3.125   3.964 -0.5789  0.7653  0.3824
 7835SOL    HW224414   0.114   3.227   3.866 -0.5718  0.8766  0.5017
 7836SOL     OW24415   5.056   4.814   2.929  0.7489  0.0187  0.2578
 7836SOL    HW124416   5.034   4.782   2.841 -0.7242 -0.1631  0.6628
 7836SOL    HW224417   5.137   4.769   2.952  0.6834 -0.5943 -0.6632
 7837SOL     OW24418   6.311   4.147   1.373 -0.3115  0.0792 -0.1515
 7837SOL    HW124419   6.366   4.090   1.319  0.5045  0.2075  0.5118
 7837SOL    HW224420   6.329   4.119   1.463 -0.6710  0.7086  0.1260
 7838SOL     OW24421   3.510   4.333   1.463 -0.0185  0.6448  0.4322
 7838SOL    HW124422   3.563   4.267   1.417 -1.3257 -0.1987  0.0880
 7838SOL    HW224423   3.511   4.409   1.405 -2.0737 -0.5734 -1.3700
 7839SOL     OW24424   0.155   0.919   3.129  0.1001 -0.5024  0.5631
 7839SOL    HW124425   0.241   0.962   3.131 -0.6091  1.0860 -0.7589
 7839SOL    HW224426   0.121   0.931   3.218  0.9062 -0.4402  0.8743
 7840SOL     OW24427   6.834   2.803   4.555  0.1788 -0.4275 -0.0196
 7840SOL    HW124428   6.784   2.856   4.493 -0.4391 -2.0441 -0.9517
 7840SOL    HW224429   6.841   2.859   4.633 -0.9017  0.8137 -0.7599
 7841SOL     OW24430   6.941   0.281   0.152  0.1729 -0.1275 -0.2239
 7841SOL    HW124431   6.950   0.327   0.069  0.7963  0.2090  0.0230
 7841SOL    HW224432   6.920   0.349   0.216  2.4137  0.0831  0.3945
 7842SOL     OW24433   3.169   5.870   4.566  0.2091  0.2704  0.1793
 7842SOL    HW124434   3.191   5.824   4.486 -1.6221  0.2079 -0.3237
 7842SOL    HW224435   3.145   5.801   4.628  1.4215  0.3318  0.7614
 7843SOL     OW24436   2.799   2.446   3.630  0.2634  0.3202  0.3420
 7843SOL    HW124437   2.738   2.503   3.677  0.3903 -0.2192  1.1868
 7843SOL    HW224438   2.745   2.372   3.603 -0.0447  1.1034 -1.3084
 7844SOL     OW24439   7.129   1.447   3.522  0.3987 -0.4267 -0.3722
 7844SOL    HW124440   7.220   1.469   3.504  0.3679 -0.0788 -0.1019
 7844SOL    HW224441   7.108   1.492   3.604  0.3759 -1.5800  0.2773
 7845SOL     OW24442   3.426   6.581   3.079 -0.5085  0.7133  0.1364
 7845SOL    HW124443   3.425   6.561   2.985  1.1971 -1.7163  0.5174
 7845SOL    HW224444   3.334   6.593   3.102 -1.2158 -1.0302 -1.4548
 7846SOL     OW24445   0.542   2.475   2.352 -0.3680 -0.0364 -0.5631
 7846SOL    HW124446   0.545   2.569   2.368  0.7995 -0.2128  0.4216
 7846SOL    HW224447   0.493   2.466   2.270 -0.0847  1.4579 -0.9294
 7847SOL     OW24448   3.700   0.067   0.323 -0.8979 -0.3782 -0.0512
 7847SOL    HW124449   3.751   0.093   0.246 -1.0524 -0.2844 -0.1226
 7847SOL    HW224450   3.644   0.142   0.340 -1.9076 -0.9565 -0.7316
 7848SOL     OW24451   7.170   7.064   6.771  0.1332 -0.4497  0.1795
 7848SOL    HW124452   7.126   6.980   6.781 -0.9524 -0.2246 -2.0442
 7848SOL    HW224453   7.217   7.076   6.853 -1.4481 -2.1739  1.4340
 7849SOL     OW24454   6.127   5.554   0.784  0.0357  0.2687  0.0396
 7849SOL    HW124455   6.071   5.516   0.717 -2.4859  1.1303  1.5180
 7849SOL    HW224456   6.150   5.641   0.750  1.0917 -0.3445 -0.8649
 7850SOL     OW24457   3.509   0.393   1.226  0.0247  0.8182 -0.1459
 7850SOL    HW124458   3.523   0.327   1.294 -1.5954  0.8329  0.2488
 7850SOL    HW224459   3.454   0.349   1.161 -0.3427  1.4996 -0.3082
 7851SOL     OW24460   1.229   6.473   5.816  0.0720 -0.3788 -0.5267
 7851SOL    HW124461   1.171   6.539   5.854 -1.3100 -1.8719  0.0559
 7851SOL    HW224462   1.248   6.413   5.888  1.7650 -0.3591 -0.8989
 7852SOL     OW24463   1.191   0.359   5.467 -0.3473  0.1315  0.6201
 7852SOL    HW124464   1.229   0.273   5.450 -1.1648 -0.1602  0.2108
 7852SOL    HW224465   1.125   0.343   5.534  0.0912  0.6005  1.1816
 7853SOL     OW24466   3.177   0.446   1.222 -0.5791  0.1185  0.4784
 7853SOL    HW124467   3.233   0.523   1.221  0.1744 -0.4289 -0.4254
 7853SOL    HW224468   3.236   0.372   1.206 -1.7175 -0.3237 -2.2100
 7854SOL     OW24469   1.416   5.285   5.000 -0.7115 -0.0198 -0.5731
 7854SOL    HW124470   1.330   5.256   4.970 -0.7187  0.0850 -0.6519
 7854SOL    HW224471   1.477   5.253   4.934 -0.8581  1.3272 -1.3954
 7855SOL     OW24472   3.237   1.236   2.211  0.5299  0.5122  0.9073
 7855SOL    HW124473   3.181   1.254   2.136  1.0403  1.1720  0.6656
 7855SOL    HW224474   3.182   1.187   2.272  0.3985 -0.9324 -0.3104
 7856SOL     OW24475   1.662   3.194   5.733  0.6066  0.0129  0.5661
 7856SOL    HW124476   1.697   3.257   5.796  0.5964 -0.5041  1.0945
 7856SOL    HW224477   1.686   3.230   5.647 -2.1313  2.4211  0.6538
 7857SOL     OW24478   3.499   0.431   3.145  0.5163 -0.0462  0.5084
 7857SOL    HW124479   3.437   0.399   3.079 -0.0665  0.4012  0.8396
 7857SOL    HW224480   3.584   0.397   3.116  0.2984  0.3028 -0.5850
 7858SOL     OW24481   7.297   1.376   2.409 -0.1814  0.5467  0.5137
 7858SOL    HW124482   7.374   1.361   2.354 -0.4559  0.9043  0.0236
 7858SOL    HW224483   7.330   1.371   2.498  0.3832  0.5326  0.3074
 7859SOL     OW24484   4.499   5.924   3.391 -0.0903 -0.4774  0.3089
 7859SOL    HW124485   4.469   5.848   3.342 -0.2645  1.6623 -3.2460
 7859SOL    HW224486   4.595   5.917   3.391 -0.1471 -1.3807  1.2668
 7860SOL     OW24487   6.126   2.799   5.346 -0.2448 -0.6388 -0.7757
 7860SOL    HW124488   6.072   2.878   5.335  0.3414 -0.1262 -0.1214
 7860SOL    HW224489   6.116   2.751   5.264 -0.8620 -0.0349 -1.0671
 7861SOL     OW24490   7.386   5.371   6.246  0.3057 -0.7981 -0.0593
 7861SOL    HW124491   7.358   5.342   6.333 -0.2124 -0.5429 -0.1379
 7861SOL    HW224492   7.444   5.301   6.215  0.7152 -0.7557  0.5994
 7862SOL     OW24493   7.744   4.472   3.346  0.4752  0.1595 -0.1005
 7862SOL    HW124494   7.683   4.459   3.418  1.9283 -0.5738  1.0258
 7862SOL    HW224495   7.713   4.412   3.278 -0.0805 -0.1720  0.4337
 7863SOL     OW24496   6.585   0.152   2.067  0.1436  0.2941  0.3303
 7863SOL    HW124497   6.650   0.216   2.038  0.5564 -0.4359 -0.3966
 7863SOL    HW224498   6.555   0.185   2.151  1.5310  0.6196  0.7287
 7864SOL     OW24499   3.573   3.653   1.785  0.0988 -0.5356 -0.0880
 7864SOL    HW124500   3.625   3.675   1.707  0.9768 -0.6195  0.4630
 7864SOL    HW224501   3.482   3.671   1.759  0.6486  3.2529  0.0916
 7865SOL     OW24502   6.222   6.928   3.281  0.4732  1.2017 -0.1362
 7865SOL    HW124503   6.144   6.873   3.270  0.9341  0.1329  1.5507
 7865SOL    HW224504   6.197   7.012   3.242 -1.3633  0.7457 -0.0562
 7866SOL     OW24505   3.564   2.471   3.593 -0.1873 -0.1847  0.4251
 7866SOL    HW124506   3.503   2.427   3.652 -0.5438 -0.5218 -0.1853
 7866SOL    HW224507   3.523   2.555   3.573 -1.0865 -0.9092 -0.9695
 7867SOL     OW24508   2.325   2.964   6.155  0.2614 -0.4514  0.0197
 7867SOL    HW124509   2.416   2.944   6.177  0.3931 -0.3324 -0.4272
 7867SOL    HW224510   2.325   3.058   6.134 -0.0003 -0.4098  0.1895
 7868SOL     OW24511   2.850   5.498   2.967 -0.0734 -0.2116 -0.0511
 7868SOL    HW124512   2.934   5.516   3.009 -0.8625  1.9049  0.7374
 7868SOL    HW224513   2.817   5.420   3.013  1.0812 -0.6035  0.1465
 7869SOL     OW24514   5.539   4.388   4.275  0.6405 -0.7941 -0.1030
 7869SOL    HW124515   5.546   4.465   4.218 -1.2253 -0.7981 -0.3817
 7869SOL    HW224516   5.543   4.424   4.363  0.0727 -0.4046 -0.2336
 7870SOL     OW24517   6.257   1.227   7.549  0.2822 -0.0612  0.1101
 7870SOL    HW124518   6.327   1.172   7.585 -1.8199 -1.6315  2.1762
 7870SOL    HW224519   6.267   1.311   7.594  1.2698 -0.0072 -0.1937
 7871SOL     OW24520   3.607   0.282   5.357 -0.1621  0.1908 -0.1420
 7871SOL    HW124521   3.637   0.354   5.302 -0.1550 -0.8175 -1.4921
 7871SOL    HW224522   3.519   0.263   5.326  0.0436 -0.7458 -0.1710
 7872SOL     OW24523   3.418   3.508   5.253 -0.1265  0.1618 -0.1920
 7872SOL    HW124524   3.436   3.579   5.191 -1.0202  0.5714 -0.0008
 7872SOL    HW224525   3.493   3.509   5.313  0.8282 -0.3366 -1.3308
 7873SOL     OW24526   5.016   0.318   0.354 -0.2758 -0.4347  0.7867
 7873SOL    HW124527   4.930   0.353   0.377 -0.6249  0.2788 -1.4279
 7873SOL    HW224528   5.002   0.224   0.343 -0.0189 -0.8886  3.5770
 7874SOL     OW24529   0.035   3.411   1.077 -0.1452  0.2601  0.6676
 7874SOL    HW124530   0.012   3.340   1.017  0.9435  0.6414 -0.2394
 7874SOL    HW224531   0.106   3.374   1.130  0.9803  0.8814 -0.3407
 7875SOL     OW24532   4.691   1.892   6.661 -0.6164  0.1498  0.9446
 7875SOL    HW124533   4.596   1.900   6.664 -0.6727 -0.2880  0.4203
 7875SOL    HW224534   4.710   1.807   6.699 -0.6422 -0.9753 -1.3931
 7876SOL     OW24535   0.154   2.079   7.057  0.0811  0.3635  0.0623
 7876SOL    HW124536   0.142   2.065   6.963  0.1450  0.8838 -0.0253
 7876SOL    HW224537   0.065   2.090   7.091 -0.2472 -2.7078  0.5642
 7877SOL     OW24538   5.238   2.124   5.995 -0.5400  0.5150 -0.3659
 7877SOL    HW124539   5.332   2.119   5.981  0.6311  1.8696  4.8700
 7877SOL    HW224540   5.209   2.033   5.999  1.6112 -0.1971  2.3785
 7878SOL     OW24541   0.409   7.273   0.271 -0.1323 -0.8351 -0.0993
 7878SOL    HW124542   0.444   7.299   0.356  1.1979 -1.3491 -0.4675
 7878SOL    HW224543   0.479   7.294   0.209 -1.6140  0.8801 -1.2966
 7879SOL     OW24544   7.353   1.905   7.469 -0.2333  0.4892 -0.0973
 7879SOL    HW124545   7.444   1.876   7.481 -0.9154 -1.7435  0.1727
 7879SOL    HW224546   7.358   2.000   7.468  2.1359  0.4230 -0.2917
 7880SOL     OW24547   4.927   7.326   0.460 -0.6349  0.0769  0.4264
 7880SOL    HW124548   5.007   7.300   0.414 -1.4296 -1.5467 -0.1085
 7880SOL    HW224549   4.884   7.386   0.400  0.8856  2.2587  1.3796
 7881SOL     OW24550   6.401   2.887   0.717 -0.4191  0.1462  0.0776
 7881SOL    HW124551   6.348   2.915   0.792 -0.8196  1.4107 -0.6493
 7881SOL    HW224552   6.434   2.968   0.678  2.6730 -0.5920  0.8746
 7882SOL     OW24553   3.301   5.704   0.654 -0.0458  0.1299  0.5222
 7882SOL    HW124554   3.221   5.745   0.685  1.0935  1.1131  2.2971
 7882SOL    HW224555   3.279   5.611   0.648 -1.3150  0.3798  0.9452
 7883SOL     OW24556   4.699   1.728   5.075  0.5191  0.3329 -0.6817
 7883SOL    HW124557   4.723   1.813   5.038  2.3768 -0.6685 -1.9559
 7883SOL    HW224558   4.695   1.744   5.169 -1.9144  2.4018 -1.0274
 7884SOL     OW24559   6.668   3.087   4.110 -0.7034  0.3010 -0.0371
 7884SOL    HW124560   6.734   3.157   4.116 -1.0625  0.6636 -0.2390
 7884SOL    HW224561   6.694   3.036   4.033 -1.4186  1.2553 -0.9336
 7885SOL     OW24562   7.134   7.012   5.725 -0.3484 -0.3681 -0.0772
 7885SOL    HW124563   7.075   6.980   5.656 -2.2351 -0.2332  1.3984
 7885SOL    HW224564   7.222   6.989   5.693 -1.3279 -3.2999 -1.0375
 7886SOL     OW24565   4.433   6.497   7.581 -0.1510 -0.0314 -0.1893
 7886SOL    HW124566   4.505   6.535   7.631  1.2537 -0.8405 -1.4964
 7886SOL    HW224567   4.401   6.425   7.636 -1.1801  1.4227  1.1817
 7887SOL     OW24568   7.097   6.786   3.610  0.3094  0.5114 -0.3538
 7887SOL    HW124569   7.032   6.805   3.542  0.1333  1.3656  0.0485
 7887SOL    HW224570   7.079   6.849   3.680  0.6098 -0.2373  0.4142
 7888SOL     OW24571   3.225   7.623   3.017 -0.3606 -0.5326  0.6375
 7888SOL    HW124572   3.157   7.663   3.072  0.0930 -0.0459  0.8500
 7888SOL    HW224573   3.254   7.547   3.067 -0.5031 -0.5410  0.7085
 7889SOL     OW24574   0.231   2.204   2.857 -0.9466 -0.1189  0.2587
 7889SOL    HW124575   0.294   2.149   2.904  0.6065  0.4148 -1.0833
 7889SOL    HW224576   0.281   2.282   2.833 -1.7675 -0.1571 -1.8120
 7890SOL     OW24577   0.753   1.531   3.150 -0.4573 -0.8331 -0.2006
 7890SOL    HW124578   0.685   1.582   3.193 -0.6693 -1.5578  0.3504
 7890SOL    HW224579   0.828   1.535   3.210  0.0120  0.0082 -0.8305
 7891SOL     OW24580   2.608   2.461   2.574 -0.1608 -0.5489 -0.1817
 7891SOL    HW124581   2.567   2.378   2.551  0.2048 -1.0663  0.9431
 7891SOL    HW224582   2.608   2.512   2.493 -0.8062 -1.4672 -0.7710
 7892SOL     OW24583   7.525   6.947   4.027  0.0531  0.5526  0.0267
 7892SOL    HW124584   7.540   6.902   3.943 -2.0260 -0.0749 -0.0624
 7892SOL    HW224585   7.508   6.876   4.089  0.0255  1.0858  0.6397
 7893SOL     OW24586   3.202   1.533   5.405 -0.1884 -0.0975 -0.0827
 7893SOL    HW124587   3.129   1.588   5.433 -0.9036 -0.9906 -0.1226
 7893SOL    HW224588   3.219   1.476   5.480  0.3269 -0.0445 -0.1548
 7894SOL     OW24589   2.244   1.187   3.543 -0.5593 -0.7397  0.3297
 7894SOL    HW124590   2.219   1.167   3.453 -1.5652 -0.7228  0.5915
 7894SOL    HW224591   2.262   1.101   3.582 -0.1201 -0.7468  0.1193
 7895SOL     OW24592   2.500   3.462   6.492  0.3469 -0.6853  0.3420
 7895SOL    HW124593   2.407   3.460   6.514  0.2130  1.1260  0.1098
 7895SOL    HW224594   2.520   3.372   6.464 -1.1856 -1.2389  0.8958
 7896SOL     OW24595   4.947   1.677   4.761 -0.1515  0.0393  0.1140
 7896SOL    HW124596   4.929   1.588   4.794 -1.3468  0.2806  0.1796
 7896SOL    HW224597   5.020   1.708   4.814 -0.9998 -0.1854  1.4715
 7897SOL     OW24598   2.785   1.310   7.075 -0.1374 -0.7756 -0.1705
 7897SOL    HW124599   2.718   1.243   7.063  0.1671 -1.4979  1.7947
 7897SOL    HW224600   2.868   1.264   7.065  0.1459  0.0055 -2.0194
 7898SOL     OW24601   0.307   3.192   1.536  0.2734 -0.2972  0.5403
 7898SOL    HW124602   0.252   3.132   1.588  0.0178  0.3124  0.9815
 7898SOL    HW224603   0.330   3.262   1.597  0.8726 -0.1259  0.1257
 7899SOL     OW24604   1.765   2.689   0.795 -0.0310 -0.6413 -0.6923
 7899SOL    HW124605   1.707   2.742   0.850  1.1497 -0.9420  0.9220
 7899SOL    HW224606   1.736   2.707   0.705 -2.4572 -0.6287  0.0114
 7900SOL     OW24607   7.260   6.034   3.489  0.6390 -0.9037  0.2997
 7900SOL    HW124608   7.250   6.126   3.463  0.0020 -1.1849 -0.4813
 7900SOL    HW224609   7.228   6.031   3.579  1.0914 -0.2799  0.4930
 7901SOL     OW24610   4.351   3.023   4.989 -0.2128  0.3224  0.3404
 7901SOL    HW124611   4.415   2.961   4.953  0.0979  0.4844  0.6115
 7901SOL    HW224612   4.391   3.109   4.978 -0.9215  0.5484 -0.6262
 7902SOL     OW24613   2.391   5.227   6.951  0.1356 -0.5847 -0.0518
 7902SOL    HW124614   2.459   5.257   6.891 -0.3456 -1.7295 -1.2156
 7902SOL    HW224615   2.309   5.256   6.912 -0.1538 -0.7680  0.4049
 7903SOL     OW24616   4.180   4.913   0.489 -0.0526  0.3620 -0.5144
 7903SOL    HW124617   4.112   4.850   0.514  1.1308 -1.0800 -0.7776
 7903SOL    HW224618   4.132   4.990   0.458 -1.7065 -1.7584 -3.8356
 7904SOL     OW24619   2.168   0.562   3.588  0.2902 -0.2312  0.7028
 7904SOL    HW124620   2.236   0.567   3.655  1.7058 -0.3367 -0.6704
 7904SOL    HW224621   2.176   0.644   3.539 -1.4987  0.3714  1.3231
 7905SOL     OW24622   5.007   6.239   2.664 -1.1162  0.3153  0.1141
 7905SOL    HW124623   4.929   6.224   2.611 -1.4433 -2.8409  1.2751
 7905SOL    HW224624   5.081   6.215   2.607 -1.2599 -0.2389  0.1594
 7906SOL     OW24625   5.737   7.651   2.607  0.1587 -0.1197  0.2425
 7906SOL    HW124626   5.825   7.671   2.577 -0.6225  0.2237 -1.9681
 7906SOL    HW224627   5.696   7.737   2.620  0.2437 -0.2701  1.6599
 7907SOL     OW24628   4.472   6.057   6.512 -0.2210 -0.3221 -0.1095
 7907SOL    HW124629   4.559   6.016   6.513 -0.6369 -1.2623  1.0443
 7907SOL    HW224630   4.471   6.112   6.591 -0.5978 -0.1526 -0.2308
 7908SOL     OW24631   7.484   5.109   6.833 -0.7600  0.1536  0.7221
 7908SOL    HW124632   7.405   5.063   6.805 -0.8468  0.6716  0.0720
 7908SOL    HW224633   7.509   5.162   6.757 -0.1598  0.4963  1.1459
 7909SOL     OW24634   2.638   0.636   5.696  0.1907  0.1835 -0.2090
 7909SOL    HW124635   2.627   0.651   5.602  2.9011  0.9139 -0.4905
 7909SOL    HW224636   2.682   0.551   5.702 -0.6904 -0.2461  0.4906
 7910SOL     OW24637   3.483   1.733   3.905 -0.0642  0.1557 -0.3685
 7910SOL    HW124638   3.423   1.722   3.979 -1.5825  0.2284 -1.5182
 7910SOL    HW224639   3.555   1.674   3.922 -0.4615  0.0595  1.0864
 7911SOL     OW24640   6.538   7.191   0.270  0.2435 -1.1782 -0.1526
 7911SOL    HW124641   6.561   7.265   0.326 -0.3697 -1.4735  0.5082
 7911SOL    HW224642   6.569   7.216   0.183 -1.9716  0.9174 -0.4585
 7912SOL     OW24643   0.925   7.029   5.064  0.3331  0.5029  0.6220
 7912SOL    HW124644   0.861   6.991   5.124  1.0583 -1.2205  0.3421
 7912SOL    HW224645   0.872   7.070   4.995 -0.4664  0.2727  1.0895
 7913SOL     OW24646   6.687   4.152   2.209 -0.3808 -0.0597  0.0131
 7913SOL    HW124647   6.762   4.178   2.156  0.3452 -0.7318  0.6708
 7913SOL    HW224648   6.723   4.090   2.272 -1.0356  1.2824  1.7988
 7914SOL     OW24649   2.221   5.126   5.073  0.7111 -0.5557  0.2394
 7914SOL    HW124650   2.298   5.179   5.050  1.4768 -2.0175 -0.7132
 7914SOL    HW224651   2.254   5.059   5.133  0.1407 -1.0567  0.0035
 7915SOL     OW24652   1.177   7.346   3.272 -0.2257  0.3666  0.3388
 7915SOL    HW124653   1.104   7.290   3.246  0.5575 -0.3697 -0.3200
 7915SOL    HW224654   1.247   7.286   3.294  1.1005  1.0531 -1.7190
 7916SOL     OW24655   3.309   0.782   6.273  0.7772 -0.0930 -0.1010
 7916SOL    HW124656   3.216   0.798   6.289  1.4685  2.1938  2.5154
 7916SOL    HW224657   3.315   0.690   6.247 -2.2060 -0.2154 -0.6027
 7917SOL     OW24658   2.844   1.296   6.687  0.4918 -0.2420  0.2482
 7917SOL    HW124659   2.927   1.300   6.639 -0.1466  1.2525 -0.7993
 7917SOL    HW224660   2.838   1.206   6.717  1.2380 -1.0970 -1.9559
 7918SOL     OW24661   1.886   4.993   1.528 -0.0791 -0.0013  0.0255
 7918SOL    HW124662   1.972   4.950   1.526  2.2355  4.0088  1.2038
 7918SOL    HW224663   1.850   4.971   1.614  0.5312 -0.4451  0.1782
 7919SOL     OW24664   6.981   6.484   1.413 -0.1874 -0.2403  0.3329
 7919SOL    HW124665   6.895   6.444   1.419  0.1203 -0.9434  0.1537
 7919SOL    HW224666   7.034   6.421   1.364  0.3621  0.2923  0.2200
 7920SOL     OW24667   4.366   5.809   4.938  0.0766 -0.1779  0.1069
 7920SOL    HW124668   4.382   5.877   4.872  1.6898  1.2174  1.8210
 7920SOL    HW224669   4.277   5.826   4.969 -0.0248  0.2949 -0.4193
 7921SOL     OW24670   4.657   2.541   0.233 -0.0085  0.2213 -1.0141
 7921SOL    HW124671   4.687   2.572   0.147 -1.0647  2.1273 -0.7478
 7921SOL    HW224672   4.683   2.610   0.293 -0.8941 -0.2473 -0.0766
 7922SOL     OW24673   4.428   4.503   2.608  0.2862  0.2031 -0.5803
 7922SOL    HW124674   4.486   4.542   2.674 -1.2970  0.2044  0.8894
 7922SOL    HW224675   4.472   4.519   2.525  1.1758  2.4317  0.2341
 7923SOL     OW24676   7.180   0.348   0.482  0.3933  0.5916 -0.2605
 7923SOL    HW124677   7.206   0.426   0.433  0.5405 -0.0238 -1.2037
 7923SOL    HW224678   7.211   0.275   0.428  0.7613 -0.1249  0.8712
 7924SOL     OW24679   4.078   7.070   0.463  0.1143  0.6352  0.0100
 7924SOL    HW124680   4.110   7.038   0.378 -0.9155 -1.6944  0.4286
 7924SOL    HW224681   4.010   7.134   0.441  0.9680  1.2762 -0.8786
 7925SOL     OW24682   5.727   1.062   7.565  0.1612 -0.4891  0.4071
 7925SOL    HW124683   5.684   1.058   7.650  0.5964 -0.7030  0.6175
 7925SOL    HW224684   5.811   1.018   7.578  0.2938 -0.3918 -0.0931
 7926SOL     OW24685   7.074   1.016   0.585 -0.6871  0.2859 -0.4900
 7926SOL    HW124686   7.096   0.931   0.623 -1.0614 -0.0848 -1.0691
 7926SOL    HW224687   7.077   1.001   0.490 -2.6589  0.3781 -0.6213
 7927SOL     OW24688   6.950   4.921   6.987  0.0587  0.5311 -0.3253
 7927SOL    HW124689   7.004   4.933   6.909  2.6720 -0.3518  1.2184
 7927SOL    HW224690   6.881   4.862   6.959 -0.2357  1.7636 -2.4228
 7928SOL     OW24691   4.799   6.222   1.790  0.2810 -0.2289 -0.4180
 7928SOL    HW124692   4.753   6.213   1.874  0.8706  3.4810  0.4823
 7928SOL    HW224693   4.763   6.303   1.752  1.7342 -0.5454 -2.6409
 7929SOL     OW24694   6.005   7.362   6.999 -0.9349  0.5054 -0.3034
 7929SOL    HW124695   6.008   7.283   6.946 -0.0904  0.1825  0.2160
 7929SOL    HW224696   5.990   7.433   6.936  0.0762  0.1381 -0.9681
 7930SOL     OW24697   0.281   7.044   3.130  0.7676  0.2404  0.3301
 7930SOL    HW124698   0.363   7.089   3.150  2.0942 -1.7448 -0.2310
 7930SOL    HW224699   0.279   6.971   3.192 -0.3240 -0.0265 -0.0057
 7931SOL     OW24700   4.139   5.429   5.380  0.3081  0.2255  0.0992
 7931SOL    HW124701   4.142   5.524   5.370  0.1078  0.4653  2.0060
 7931SOL    HW224702   4.211   5.409   5.440 -1.0496 -0.5443  1.5221
 7932SOL     OW24703   4.522   5.224   7.031  0.2063  0.0735 -0.2153
 7932SOL    HW124704   4.505   5.276   7.109  1.3468  0.2659 -0.0802
 7932SOL    HW224705   4.504   5.133   7.058  0.3045  0.1709  0.1766
 7933SOL     OW24706   2.966   0.629   2.427 -0.0629  0.5204 -0.0440
 7933SOL    HW124707   2.913   0.554   2.455  0.4812 -1.1857 -3.1813
 7933SOL    HW224708   3.000   0.665   2.509 -0.6819 -2.4118  1.6535
 7934SOL     OW24709   1.558   6.465   1.140 -0.3030 -0.0647  0.2172
 7934SOL    HW124710   1.547   6.538   1.202  0.0724 -0.0422  0.2609
 7934SOL    HW224711   1.504   6.489   1.065 -0.1673  0.2717  0.2251
 7935SOL     OW24712   7.306   5.190   1.509 -0.3019 -0.1551  0.0890
 7935SOL    HW124713   7.311   5.283   1.532 -2.5501  0.1066 -0.2545
 7935SOL    HW224714   7.344   5.185   1.421 -0.1088  0.4377  0.1351
 7936SOL     OW24715   2.358   1.662   7.099  0.3562 -0.6081 -0.3725
 7936SOL    HW124716   2.336   1.572   7.075  1.1762 -0.9789  0.2193
 7936SOL    HW224717   2.308   1.716   7.038 -1.5637 -1.3984  0.4338
 7937SOL     OW24718   1.034   4.256   4.670  0.7016  0.6683 -0.4355
 7937SOL    HW124719   1.006   4.247   4.761 -0.3574 -1.1287 -0.8932
 7937SOL    HW224720   1.021   4.349   4.650 -1.3289  0.6328  0.5398
 7938SOL     OW24721   1.810   6.421   2.633  0.2316  0.1276 -0.3608
 7938SOL    HW124722   1.848   6.418   2.545 -0.0382 -0.3017 -0.4660
 7938SOL    HW224723   1.783   6.512   2.644  1.0987  0.3973 -0.3608
 7939SOL     OW24724   1.721   5.448   2.456 -0.4108  0.5902 -0.2329
 7939SOL    HW124725   1.673   5.531   2.455 -0.2206  0.7122 -2.0382
 7939SOL    HW224726   1.739   5.433   2.549 -3.2667  0.8997  0.4714
 7940SOL     OW24727   1.553   3.523   1.455 -0.3743 -0.5812  0.0617
 7940SOL    HW124728   1.555   3.609   1.414  0.2669 -0.5933  0.0565
 7940SOL    HW224729   1.552   3.541   1.549  1.5313 -0.5543  0.1162
 7941SOL     OW24730   6.366   1.202   1.559 -0.9983  0.5743 -0.0780
 7941SOL    HW124731   6.360   1.256   1.480 -1.4156  0.4443 -0.1384
 7941SOL    HW224732   6.343   1.113   1.529  0.5255  0.1869 -0.1581
 7942SOL     OW24733   7.297   6.778   7.220 -0.2119 -0.0117 -0.1084
 7942SOL    HW124734   7.221   6.813   7.267 -0.9587  0.9967 -1.9543
 7942SOL    HW224735   7.318   6.846   7.155  1.0058 -1.1710 -0.9750
 7943SOL     OW24736   3.989   0.862   1.685 -0.4944  0.5904  0.3358
 7943SOL    HW124737   3.968   0.858   1.591  0.7338  1.1762  0.0079
 7943SOL    HW224738   3.950   0.783   1.722  1.8604 -1.5179 -1.3033
 7944SOL     OW24739   6.687   6.627   4.601  0.2010  0.8433  0.3520
 7944SOL    HW124740   6.700   6.665   4.688 -1.3661  1.2885  0.4402
 7944SOL    HW224741   6.682   6.533   4.617  0.3934  0.8857  0.6786
 7945SOL     OW24742   0.357   6.854   3.309 -0.1800  0.0534  0.6991
 7945SOL    HW124743   0.389   6.912   3.378 -0.4652  0.0412  0.8445
 7945SOL    HW224744   0.421   6.784   3.305  0.7306  0.9027 -0.1953
 7946SOL     OW24745   4.156   4.993   1.479 -0.3522 -0.4086  0.3446
 7946SOL    HW124746   4.132   4.906   1.447 -2.7819 -1.2140  3.7437
 7946SOL    HW224747   4.203   4.976   1.560 -2.5016  1.3022  2.0881
 7947SOL     OW24748   2.492   3.938   6.524 -0.1029 -0.0198 -0.4273
 7947SOL    HW124749   2.423   3.891   6.476 -1.9139 -0.3510  2.2849
 7947SOL    HW224750   2.467   4.030   6.517 -1.8358 -0.2261  1.7779
 7948SOL     OW24751   1.773   0.950   2.525  0.3710 -0.1383  0.0819
 7948SOL    HW124752   1.769   0.979   2.616 -1.1265  0.5333 -0.1807
 7948SOL    HW224753   1.797   0.857   2.532  1.3939  0.1665  1.0884
 7949SOL     OW24754   2.979   2.706   4.346  0.4505 -0.5698  0.1932
 7949SOL    HW124755   3.033   2.643   4.300 -0.3626 -1.5438  0.5465
 7949SOL    HW224756   2.899   2.658   4.370  0.6335  0.0067  2.1938
 7950SOL     OW24757   0.123   4.473   1.726  0.1357 -0.5385  0.0266
 7950SOL    HW124758   0.064   4.416   1.776 -1.1115  0.5799 -0.1092
 7950SOL    HW224759   0.183   4.508   1.792  1.1147 -2.2048  0.0630
 7951SOL     OW24760   0.987   1.099   5.328  0.0688 -0.1222 -0.2136
 7951SOL    HW124761   0.947   1.141   5.404 -0.2488  1.1256 -1.0282
 7951SOL    HW224762   1.021   1.016   5.361  0.5854  0.7036  1.4511
 7952SOL     OW24763   7.251   4.024   5.542  0.5772  0.0961 -0.7276
 7952SOL    HW124764   7.342   4.054   5.539  1.1190 -1.4859 -0.8634
 7952SOL    HW224765   7.257   3.928   5.539 -1.0978 -0.0330 -0.7722
 7953SOL     OW24766   0.524   5.703   4.308  0.1327  0.3047 -0.0356
 7953SOL    HW124767   0.545   5.777   4.365 -0.6437  1.6543 -1.4143
 7953SOL    HW224768   0.436   5.677   4.334 -1.4158  2.7397 -2.2817
 7954SOL     OW24769   4.456   7.646   5.076 -0.1250 -0.3449 -0.4243
 7954SOL    HW124770   4.441   7.607   4.990 -1.4423  0.7162 -0.7041
 7954SOL    HW224771   4.472   7.739   5.057 -2.3788  0.3066  0.5708
 7955SOL     OW24772   0.610   2.069   5.623  0.1518  0.1257  0.2794
 7955SOL    HW124773   0.691   2.066   5.572  0.0821 -0.4087  0.1967
 7955SOL    HW224774   0.555   1.999   5.586 -1.4790  2.2196 -1.5413
 7956SOL     OW24775   1.596   0.643   4.683 -0.2960  0.4291  0.3809
 7956SOL    HW124776   1.689   0.666   4.685 -0.1461  0.0366 -0.9269
 7956SOL    HW224777   1.594   0.548   4.683 -0.6515  0.4226 -0.3299
 7957SOL     OW24778   1.074   6.906   7.598 -0.8634  0.6674  0.5651
 7957SOL    HW124779   1.141   6.922   7.665 -1.2601  1.0293  0.8799
 7957SOL    HW224780   1.049   6.994   7.569 -1.5747  0.5526  0.8198
 7958SOL     OW24781   5.981   6.233   2.679  0.4908  0.7436  0.2599
 7958SOL    HW124782   5.888   6.223   2.702  0.6409 -0.6257  0.4057
 7958SOL    HW224783   6.015   6.143   2.683  1.0409  0.6820 -3.1849
 7959SOL     OW24784   5.895   7.292   3.099  0.5812 -0.1749  0.1938
 7959SOL    HW124785   5.807   7.256   3.093  1.1366 -1.4668 -0.3883
 7959SOL    HW224786   5.915   7.321   3.010  1.0556 -0.6305  0.1524
 7960SOL     OW24787   5.473   7.416   6.074 -0.3626 -0.0567  0.1465
 7960SOL    HW124788   5.481   7.409   6.169 -0.9092  0.4167  0.2338
 7960SOL    HW224789   5.484   7.327   6.042 -1.1473 -0.3820  0.7364
 7961SOL     OW24790   2.495   5.904   2.683 -0.4044 -0.3021 -0.7445
 7961SOL    HW124791   2.468   5.989   2.717  0.5722  0.1318 -1.0172
 7961SOL    HW224792   2.417   5.849   2.690 -0.6499  0.2019  0.7761
 7962SOL     OW24793   2.274   0.779   3.114 -0.3663  0.3680 -0.3761
 7962SOL    HW124794   2.274   0.684   3.105 -1.8749  0.2957  0.1654
 7962SOL    HW224795   2.296   0.811   3.027  2.3070 -0.4631 -0.0957
 7963SOL     OW24796   4.851   1.003   1.964 -0.1554  0.6503  0.2699
 7963SOL    HW124797   4.859   1.097   1.983 -0.1179  0.4767  1.1626
 7963SOL    HW224798   4.797   0.999   1.885  2.9216  1.5633 -2.0309
 7964SOL     OW24799   0.352   7.111   4.071 -0.1512 -0.4866  0.1289
 7964SOL    HW124800   0.402   7.133   3.993  0.2983  1.1599  0.8431
 7964SOL    HW224801   0.407   7.047   4.117  0.0273 -0.7353 -0.4242
 7965SOL     OW24802   1.754   5.629   6.499  0.6165 -0.3303 -0.2072
 7965SOL    HW124803   1.751   5.723   6.480  0.7802 -0.2111  0.3198
 7965SOL    HW224804   1.826   5.620   6.561  0.4745 -0.7765 -0.1063
 7966SOL     OW24805   6.845   6.869   7.059  1.0996  0.5275 -0.2310
 7966SOL    HW124806   6.782   6.941   7.063 -1.4960 -1.5008 -1.1971
 7966SOL    HW224807   6.895   6.875   7.140 -0.5798  2.0926  0.7425
 7967SOL     OW24808   2.694   4.755   0.542 -0.2451  0.4420 -0.3880
 7967SOL    HW124809   2.665   4.846   0.551  2.6132  1.4016  0.5131
 7967SOL    HW224810   2.676   4.715   0.627 -0.1628  0.6309 -0.2809
 7968SOL     OW24811   6.994   1.337   3.951 -0.2653 -0.1019 -0.1014
 7968SOL    HW124812   6.920   1.278   3.935  0.5068 -1.0572 -0.2694
 7968SOL    HW224813   6.970   1.419   3.907 -1.3600 -0.2844  0.1360
 7969SOL     OW24814   1.857   5.065   0.080 -0.2708  0.0449  0.5370
 7969SOL    HW124815   1.931   5.073   0.140  1.2352 -2.2465 -0.8621
 7969SOL    HW224816   1.809   4.988   0.110  0.7076 -1.3573 -1.2959
 7970SOL     OW24817   0.490   5.674   7.029  0.3053  0.1326  0.3227
 7970SOL    HW124818   0.545   5.694   6.953  2.0021  0.8090  1.6651
 7970SOL    HW224819   0.453   5.758   7.054 -1.8537 -0.3909 -0.8673
 7971SOL     OW24820   5.850   4.013   1.274  0.1045 -0.4678  0.1027
 7971SOL    HW124821   5.906   4.068   1.219 -2.5454  1.2965 -1.0877
 7971SOL    HW224822   5.802   3.958   1.212 -0.3802 -1.0171  0.9406
 7972SOL     OW24823   2.764   6.323   5.472  0.0988 -0.5944  0.0090
 7972SOL    HW124824   2.843   6.269   5.484 -0.3806 -1.3183 -0.0032
 7972SOL    HW224825   2.737   6.304   5.382  0.1019 -0.0861 -0.0982
 7973SOL     OW24826   6.945   2.593   1.648 -0.0268 -0.6160  0.5800
 7973SOL    HW124827   6.882   2.639   1.592  1.5509 -0.7718 -1.3976
 7973SOL    HW224828   6.988   2.530   1.590  3.1187  0.6158  1.3867
 7974SOL     OW24829   7.411   5.947   1.112  0.2383  0.5544 -0.4109
 7974SOL    HW124830   7.486   5.897   1.081 -0.1925 -0.1391 -0.3824
 7974SOL    HW224831   7.359   5.883   1.162  0.1605  1.2705  0.4591
 7975SOL     OW24832   5.686   2.956   6.829 -0.1727 -0.2005  0.1537
 7975SOL    HW124833   5.747   2.999   6.770  0.6093 -0.1859  0.9666
 7975SOL    HW224834   5.604   2.952   6.779  0.5370 -0.4187 -1.0288
 7976SOL     OW24835   6.573   5.947   3.213  0.3515  0.2051 -0.0954
 7976SOL    HW124836   6.541   5.875   3.159  0.8144  0.2736 -0.4598
 7976SOL    HW224837   6.665   5.957   3.189  0.2650  0.9910 -0.1283
 7977SOL     OW24838   2.334   7.542   6.138 -0.3414 -0.3195 -0.2956
 7977SOL    HW124839   2.306   7.622   6.093  1.5068  1.3944  1.4418
 7977SOL    HW224840   2.429   7.540   6.127 -0.1638 -1.3004  1.2231
 7978SOL     OW24841   1.219   2.626   6.526  0.0545 -0.0445 -0.2659
 7978SOL    HW124842   1.254   2.686   6.460 -0.7351 -0.7724 -1.3783
 7978SOL    HW224843   1.280   2.552   6.526  0.8634  0.5850  0.8951
 7979SOL     OW24844   7.705   3.793   6.307 -0.0458  0.2720  0.6765
 7979SOL    HW124845   7.785   3.843   6.322  1.0629 -0.6777 -1.5595
 7979SOL    HW224846   7.735   3.708   6.275 -1.9276 -0.2317  0.1081
 7980SOL     OW24847   0.158   1.672   3.166  0.0976 -0.1767 -0.2750
 7980SOL    HW124848   0.154   1.744   3.104  1.0846  0.3035  0.1896
 7980SOL    HW224849   0.116   1.598   3.121 -1.8231  0.9177 -0.3943
 7981SOL     OW24850   6.663   0.428   6.621  0.4788 -0.1368 -0.2919
 7981SOL    HW124851   6.715   0.396   6.548  1.7751 -0.2099  0.6207
 7981SOL    HW224852   6.640   0.518   6.597  0.0793 -0.4571 -1.1740
 7982SOL     OW24853   0.800   5.914   0.374 -0.1122 -0.6862 -0.2335
 7982SOL    HW124854   0.816   5.840   0.433  0.7379 -0.0376  0.3796
 7982SOL    HW224855   0.774   5.986   0.432  0.8644  0.0014 -0.6254
 7983SOL     OW24856   5.632   3.114   7.504 -0.1887  0.2008  0.2760
 7983SOL    HW124857   5.590   3.111   7.589 -1.3590  0.2927 -0.2748
 7983SOL    HW224858   5.710   3.060   7.513  0.1742  0.9274  1.6371
 7984SOL     OW24859   2.849   0.310   7.649 -0.2196 -0.2669  0.1913
 7984SOL    HW124860   2.891   0.239   7.698  1.3000  0.5640  0.1151
 7984SOL    HW224861   2.761   0.315   7.686 -0.4265 -2.2910  0.0845
 7985SOL     OW24862   7.649   5.105   1.166  0.5083  0.0756 -0.0874
 7985SOL    HW124863   7.634   5.060   1.083  2.4917  0.2577 -0.6046
 7985SOL    HW224864   7.743   5.095   1.182  0.3486  0.9123  1.6308
 7986SOL     OW24865   7.110   5.702   4.892  0.4132 -0.3083 -0.1827
 7986SOL    HW124866   7.019   5.673   4.899  0.5465 -1.5464 -2.5903
 7986SOL    HW224867   7.109   5.792   4.924 -1.6351 -0.3387 -0.0358
 7987SOL     OW24868   0.231   0.800   2.224 -0.2030  0.8769 -0.5093
 7987SOL    HW124869   0.324   0.790   2.206 -0.5370  0.2314 -2.0275
 7987SOL    HW224870   0.215   0.747   2.302  0.5720  0.4653 -0.6253
 7988SOL     OW24871   1.138   1.804   2.914 -0.3892 -0.2986 -1.0291
 7988SOL    HW124872   1.184   1.796   2.998  0.0186  1.6886 -1.0114
 7988SOL    HW224873   1.196   1.760   2.851  0.7642  0.7189 -0.7230
 7989SOL     OW24874   2.512   6.402   0.207  0.2153 -0.4195 -0.2639
 7989SOL    HW124875   2.518   6.481   0.152  0.6172 -0.7319 -0.6756
 7989SOL    HW224876   2.423   6.404   0.242  0.5159  0.7133  0.4803
 7990SOL     OW24877   0.211   5.473   6.844  0.5729 -0.6031 -0.3198
 7990SOL    HW124878   0.213   5.460   6.939  1.7647 -0.5485 -0.3323
 7990SOL    HW224879   0.171   5.392   6.811  0.7488 -0.9010  0.1750
 7991SOL     OW24880   6.485   2.503   5.576 -0.1431 -0.0279 -0.2089
 7991SOL    HW124881   6.511   2.527   5.487  1.2626  0.2139  0.2306
 7991SOL    HW224882   6.404   2.551   5.592  0.1148  0.7050 -1.0196
 7992SOL     OW24883   1.208   0.610   6.617 -0.7890 -0.2924 -0.3228
 7992SOL    HW124884   1.170   0.570   6.695 -0.3444  1.1289  0.6645
 7992SOL    HW224885   1.298   0.633   6.642 -0.3572 -0.5698 -1.5308
 7993SOL     OW24886   5.734   5.166   2.004 -0.4831  0.2284 -0.5258
 7993SOL    HW124887   5.728   5.077   1.968 -0.5538  0.3871 -0.9129
 7993SOL    HW224888   5.767   5.219   1.932 -1.2748  0.6793 -0.5635
 7994SOL     OW24889   0.027   6.925   1.114  0.1932  0.3710 -0.3265
 7994SOL    HW124890   0.110   6.947   1.073 -0.0648 -0.6007 -1.3988
 7994SOL    HW224891  -0.016   7.010   1.128  0.5198  0.7481 -1.5591
 7995SOL     OW24892   3.118   2.109   0.246 -0.4592  0.1595 -0.1217
 7995SOL    HW124893   3.206   2.088   0.215 -0.0260 -0.4541  1.4206
 7995SOL    HW224894   3.127   2.117   0.341 -2.2396 -0.9317  0.1954
 7996SOL     OW24895   0.720   6.246   6.151  0.2621 -0.5078 -0.1674
 7996SOL    HW124896   0.687   6.273   6.236  1.1706  0.5748 -0.1441
 7996SOL    HW224897   0.668   6.296   6.088 -2.8982 -3.8369 -0.5167
 7997SOL     OW24898   7.431   7.308   6.606 -0.0602 -0.4258  0.1476
 7997SOL    HW124899   7.470   7.305   6.694 -1.1569  1.7084  0.7650
 7997SOL    HW224900   7.339   7.327   6.621  0.1954  2.7302 -1.4710
 7998SOL     OW24901   5.940   1.653   1.763  0.1939 -0.2150 -0.0293
 7998SOL    HW124902   5.946   1.574   1.709 -1.1814  0.4318 -1.1721
 7998SOL    HW224903   5.961   1.622   1.851  0.5941 -1.6709 -0.5965
 7999SOL     OW24904   0.351   0.387   3.012  0.0472  0.1573 -0.4732
 7999SOL    HW124905   0.284   0.447   3.043 -0.8340 -0.6370 -0.8122
 7999SOL    HW224906   0.351   0.315   3.076 -0.7105 -0.7304 -1.4276
 8000SOL     OW24907   0.465   4.085   2.144  0.2004 -0.2818  0.0797
 8000SOL    HW124908   0.444   4.173   2.115 -0.5059 -0.2427  0.6843
 8000SOL    HW224909   0.550   4.066   2.104  0.8617  1.0704  0.8123
 8001SOL     OW24910   1.046   3.062   3.248  0.3002 -0.8985  0.1444
 8001SOL    HW124911   1.005   3.114   3.318  1.2894  1.0476 -0.6535
 8001SOL    HW224912   0.977   3.053   3.182  0.2788 -0.0908  0.0438
 8002SOL     OW24913   0.499   3.395   4.371 -0.2523 -0.4084 -0.2318
 8002SOL    HW124914   0.421   3.411   4.319  0.2094  0.6453 -0.6252
 8002SOL    HW224915   0.497   3.461   4.440  0.1457 -0.5619 -0.0648
 8003SOL     OW24916   5.925   4.801   1.045 -0.6695  0.4077 -0.2866
 8003SOL    HW124917   5.939   4.868   1.113  0.1957 -0.3674  0.3270
 8003SOL    HW224918   6.013   4.768   1.026 -1.0409 -0.2518 -0.8952
 8004SOL     OW24919   7.178   3.856   4.058 -0.2361 -0.7081  0.1466
 8004SOL    HW124920   7.099   3.807   4.038 -1.0201  0.6490 -0.2001
 8004SOL    HW224921   7.221   3.868   3.973 -1.2123  1.0868 -0.1576
 8005SOL     OW24922   0.192   3.263   7.628  0.0359 -0.0438  0.1774
 8005SOL    HW124923   0.141   3.314   7.692 -1.4979 -0.6826 -0.4785
 8005SOL    HW224924   0.245   3.328   7.582 -0.9715  0.7996  0.1792
 8006SOL     OW24925   0.579   0.663   3.718  0.0323  0.1326 -0.4038
 8006SOL    HW124926   0.549   0.576   3.746 -0.0324  0.2948  0.0344
 8006SOL    HW224927   0.522   0.724   3.765  1.9747  0.5039  1.6313
 8007SOL     OW24928   3.364   1.375   1.555 -0.0885 -0.6066 -0.1759
 8007SOL    HW124929   3.360   1.465   1.586 -3.3873 -0.6131 -0.2434
 8007SOL    HW224930   3.427   1.332   1.614 -0.5741  1.0894  1.6725
 8008SOL     OW24931   0.105   2.628   4.066 -0.7879  0.1718 -0.0099
 8008SOL    HW124932   0.055   2.623   4.148 -0.3745  0.7552  0.2818
 8008SOL    HW224933   0.040   2.614   3.997 -1.3046  0.6409  0.3800
 8009SOL     OW24934   2.807   7.303   2.708 -0.7124 -0.3222 -0.2036
 8009SOL    HW124935   2.792   7.392   2.742  0.1665 -0.0532 -0.4893
 8009SOL    HW224936   2.889   7.310   2.659 -1.0193 -1.1310 -0.8426
 8010SOL     OW24937   2.676   1.507   2.898  0.1907  0.1553 -0.4261
 8010SOL    HW124938   2.724   1.488   2.978  0.4283  2.0389 -0.0907
 8010SOL    HW224939   2.709   1.592   2.869 -0.6386 -0.0035 -1.9664
 8011SOL     OW24940   4.399   3.368   3.896  0.5799  0.5884 -0.4737
 8011SOL    HW124941   4.445   3.305   3.951 -2.1365 -1.8115 -0.6996
 8011SOL    HW224942   4.400   3.330   3.809 -0.9262  0.9157 -0.6690
 8012SOL     OW24943   3.729   0.673   1.198 -0.4660  1.1707 -0.1064
 8012SOL    HW124944   3.765   0.725   1.126 -0.1557  0.9555 -0.1080
 8012SOL    HW224945   3.651   0.722   1.226  0.1296  1.9370  0.2559
 8013SOL     OW24946   2.482   4.344   2.850 -0.2244  0.4687 -0.1506
 8013SOL    HW124947   2.552   4.409   2.856 -0.2974  0.7261 -1.6822
 8013SOL    HW224948   2.521   4.262   2.880 -0.1234  1.1665  1.7863
 8014SOL     OW24949   7.449   5.233   5.231  0.4485  0.2453  0.2012
 8014SOL    HW124950   7.390   5.173   5.186  0.4871  0.8539 -0.7091
 8014SOL    HW224951   7.536   5.194   5.220  0.2399 -0.6987  1.6236
 8015SOL     OW24952   6.371   4.903   7.223  0.1832 -0.2801  0.0577
 8015SOL    HW124953   6.364   4.810   7.202 -0.3171 -0.7651  2.1633
 8015SOL    HW224954   6.324   4.947   7.152 -1.1545 -1.7534 -0.0242
 8016SOL     OW24955   6.108   2.386   2.310  0.4318 -0.4517  0.3504
 8016SOL    HW124956   6.174   2.428   2.256 -1.2047 -0.7233 -1.9766
 8016SOL    HW224957   6.025   2.400   2.264 -1.0529 -0.8516  2.7112
 8017SOL     OW24958   4.380   5.512   4.951  0.0798  0.1891  0.0539
 8017SOL    HW124959   4.446   5.457   4.991 -0.0095  0.2723  0.3168
 8017SOL    HW224960   4.417   5.600   4.954 -0.1813  0.2859  0.5022
 8018SOL     OW24961   5.362   0.151   3.062  0.1939  0.6334 -0.4667
 8018SOL    HW124962   5.433   0.087   3.051 -0.6201 -0.2896 -0.5571
 8018SOL    HW224963   5.290   0.099   3.099  0.2125  1.9592  1.6031
 8019SOL     OW24964   1.449   0.960   3.951 -0.1773  0.1312  0.5897
 8019SOL    HW124965   1.512   0.894   3.979 -0.8201  0.0332  1.8752
 8019SOL    HW224966   1.398   0.918   3.883 -0.2682 -0.5376  1.0634
 8020SOL     OW24967   5.296   6.843   0.099  0.1264 -0.4240 -0.0041
 8020SOL    HW124968   5.318   6.869   0.010 -2.2284  1.3719 -0.1694
 8020SOL    HW224969   5.340   6.907   0.155 -1.1569  0.6269 -0.1286
 8021SOL     OW24970   7.016   2.665   2.562  0.1889  0.1361 -0.0209
 8021SOL    HW124971   6.931   2.704   2.544 -0.1149 -0.1920  0.6790
 8021SOL    HW224972   7.007   2.625   2.648  1.0340  0.0437  0.0361
 8022SOL     OW24973   7.372   7.250   6.209 -0.4370  0.2832  0.0426
 8022SOL    HW124974   7.284   7.242   6.245  0.4221 -0.7881  2.0667
 8022SOL    HW224975   7.413   7.321   6.259  1.2425 -2.1533  2.4920
 8023SOL     OW24976   6.168   5.050   4.426  0.1997 -0.1175  0.2434
 8023SOL    HW124977   6.100   4.987   4.403 -1.3032  2.2766 -2.3495
 8023SOL    HW224978   6.177   5.106   4.350  2.1769  2.2429  2.0310
 8024SOL     OW24979   1.563   7.012   1.292  0.2803 -0.0348  0.1747
 8024SOL    HW124980   1.637   6.975   1.341 -0.6785  0.1722  1.8646
 8024SOL    HW224981   1.528   6.938   1.242  1.2655 -0.2676 -0.1904
 8025SOL     OW24982   4.103   0.097   6.368  0.2383 -1.0035  0.2008
 8025SOL    HW124983   4.026   0.046   6.344  0.1778 -0.2183 -1.3871
 8025SOL    HW224984   4.138   0.130   6.285  0.1957  1.6223  1.1372
 8026SOL     OW24985   3.835   5.825   7.384 -0.6499  0.5055 -0.2173
 8026SOL    HW124986   3.811   5.746   7.335 -1.7955  1.6756 -1.6507
 8026SOL    HW224987   3.756   5.850   7.431 -0.1582  0.5655  0.6074
 8027SOL     OW24988   4.139   1.740   1.705 -0.1328 -0.7146  0.3966
 8027SOL    HW124989   4.118   1.647   1.697 -1.1953 -0.4935  0.4680
 8027SOL    HW224990   4.071   1.775   1.763  1.9830 -0.4665  2.9613
 8028SOL     OW24991   0.578   5.306   6.071 -0.5974 -0.2150  0.5570
 8028SOL    HW124992   0.510   5.333   6.134 -0.3682  1.2827  0.1803
 8028SOL    HW224993   0.539   5.320   5.985 -0.7333 -1.8221  0.3099
 8029SOL     OW24994   7.275   0.967   1.437  0.4706 -0.3058 -0.2231
 8029SOL    HW124995   7.278   1.047   1.491  0.3224  0.3392 -1.1508
 8029SOL    HW224996   7.222   0.991   1.361 -0.7507 -1.7108  0.1380
 8030SOL     OW24997   3.960   6.066   7.501  0.9098 -0.8477 -0.1317
 8030SOL    HW124998   4.042   6.040   7.541  0.5785 -1.0481  0.4341
 8030SOL    HW224999   3.932   5.989   7.451  0.4827 -1.2063  0.6409
 8031SOL     OW25000   4.200   4.993   6.826 -0.0414 -0.3554  0.0543
 8031SOL    HW125001   4.138   5.058   6.791 -0.4378 -1.0294 -0.5052
 8031SOL    HW225002   4.145   4.917   6.846  0.5210 -0.7430  0.1174
 8032SOL     OW25003   2.883   3.291   7.636  0.1147 -0.0428 -0.4389
 8032SOL    HW125004   2.952   3.225   7.639  0.1683  0.0403  0.4818
 8032SOL    HW225005   2.929   3.375   7.639  0.0826  0.0830 -2.2521
 8033SOL     OW25006   1.506   3.206   3.379 -0.0755 -0.8535  0.2426
 8033SOL    HW125007   1.596   3.235   3.392 -0.5232  0.7005  0.0436
 8033SOL    HW225008   1.473   3.190   3.467 -0.6133  1.8722  0.6337
 8034SOL     OW25009   7.642   1.479   6.205 -0.5028  0.2991 -0.3966
 8034SOL    HW125010   7.606   1.522   6.282 -1.1580 -0.2944 -0.3676
 8034SOL    HW225011   7.608   1.390   6.208  2.8140 -1.0421  0.8736
 8035SOL     OW25012   6.572   4.607   4.693  0.6630  0.0928  0.3315
 8035SOL    HW125013   6.648   4.554   4.669  0.2130 -0.3434 -0.1543
 8035SOL    HW225014   6.610   4.686   4.731  1.3596 -0.2150  0.3043
 8036SOL     OW25015   2.853   0.679   5.976  0.0816  0.1850 -0.4004
 8036SOL    HW125016   2.777   0.732   5.950  0.5565  0.0519 -2.1924
 8036SOL    HW225017   2.886   0.722   6.054 -0.7574  1.3397 -0.6498
 8037SOL     OW25018   2.972   3.251   7.163 -0.1748  0.4478  1.0069
 8037SOL    HW125019   2.894   3.269   7.110 -1.3427 -1.6581  1.8556
 8037SOL    HW225020   2.961   3.306   7.240  0.7725  2.4083 -0.1980
 8038SOL     OW25021   6.131   5.308   0.292 -0.5749 -0.8097 -0.4651
 8038SOL    HW125022   6.165   5.374   0.232 -0.5552 -1.7487 -1.5279
 8038SOL    HW225023   6.168   5.226   0.259  0.7994 -1.1804  1.8216
 8039SOL     OW25024   2.733   5.123   3.413 -0.1698 -0.3098  0.1252
 8039SOL    HW125025   2.638   5.122   3.422 -0.2505 -0.4861 -0.6370
 8039SOL    HW225026   2.761   5.203   3.457 -1.0351  1.6408 -2.5814
 8040SOL     OW25027   4.286   2.100   5.334  0.1189  0.2387  0.3897
 8040SOL    HW125028   4.368   2.051   5.340  0.1735  0.1692 -0.6408
 8040SOL    HW225029   4.227   2.042   5.285 -0.1131  0.8112 -0.0293
 8041SOL     OW25030   1.048   3.590   6.063 -0.2265  0.1498 -0.4678
 8041SOL    HW125031   1.083   3.679   6.058 -0.7027  0.4647  1.2436
 8041SOL    HW225032   1.085   3.555   6.144 -1.5501 -0.5298 -0.1332
 8042SOL     OW25033   6.480   2.018   4.512 -0.3319  0.3085  0.2767
 8042SOL    HW125034   6.460   1.964   4.436 -0.7265  1.4713 -0.4765
 8042SOL    HW225035   6.575   2.024   4.513 -0.2795 -0.4339  0.4093
 8043SOL     OW25036   2.112   4.255   5.003 -0.1286 -0.3005 -0.1522
 8043SOL    HW125037   2.061   4.306   5.066  1.1194 -0.9920  1.4887
 8043SOL    HW225038   2.172   4.319   4.964 -1.4276  0.2889 -1.2933
 8044SOL     OW25039   5.235   4.235   6.123  0.0914  0.0861  0.3619
 8044SOL    HW125040   5.254   4.328   6.129  0.2134 -0.0294  2.4701
 8044SOL    HW225041   5.279   4.207   6.043 -1.2144  2.0784 -1.1678
 8045SOL     OW25042   7.461   5.410   6.834  0.3542 -0.1877  0.1574
 8045SOL    HW125043   7.432   5.482   6.778  0.3039  0.6941  1.2753
 8045SOL    HW225044   7.481   5.452   6.918  1.2761 -1.3366  0.5385
 8046SOL     OW25045   1.144   6.230   0.219  0.6926  0.7508  0.0317
 8046SOL    HW125046   1.048   6.240   0.218  0.5636 -0.0596 -2.4217
 8046SOL    HW225047   1.159   6.147   0.262 -0.1239 -1.3461 -3.3371
 8047SOL     OW25048   7.490   2.615   5.932 -0.3560 -0.2105  0.2668
 8047SOL    HW125049   7.577   2.593   5.899 -0.2888  1.3213 -0.6961
 8047SOL    HW225050   7.474   2.552   6.002  0.2132 -2.4806 -1.5558
 8048SOL     OW25051   6.624   4.456   4.386  0.2483  0.6003  0.0209
 8048SOL    HW125052   6.704   4.440   4.436  0.4284  0.0115 -0.4445
 8048SOL    HW225053   6.648   4.438   4.295 -0.0339  1.7962 -0.3205
 8049SOL     OW25054   3.393   4.185   5.676  0.3631 -0.3361  0.0043
 8049SOL    HW125055   3.414   4.127   5.603  0.9079  0.2873 -0.3490
 8049SOL    HW225056   3.322   4.141   5.723 -0.3428 -0.5115 -1.1990
 8050SOL     OW25057   7.239   4.568   6.815  0.4743  0.0137  0.0310
 8050SOL    HW125058   7.281   4.570   6.902 -0.0293  0.3755  0.2736
 8050SOL    HW225059   7.312   4.562   6.753  0.8391 -0.2882  0.4797
 8051SOL     OW25060   0.219   4.085   2.930 -0.0123 -0.7747  0.0972
 8051SOL    HW125061   0.281   4.025   2.971  0.8540 -0.6791 -1.0281
 8051SOL    HW225062   0.160   4.028   2.881  0.2394 -0.7798 -0.2083
 8052SOL     OW25063   0.372   4.812   3.050 -0.2311  0.4541  0.1548
 8052SOL    HW125064   0.463   4.799   3.024 -0.6497  0.0910 -1.2618
 8052SOL    HW225065   0.339   4.879   2.989 -0.3541  2.2021  2.0291
 8053SOL     OW25066   4.379   1.731   4.146  0.3520 -0.5610  0.3443
 8053SOL    HW125067   4.369   1.776   4.230  1.5224 -0.4270  0.4276
 8053SOL    HW225068   4.290   1.702   4.123 -0.3880  1.5426  0.4129
 8054SOL     OW25069   2.315   5.722   2.770 -0.0372 -0.4758 -0.0134
 8054SOL    HW125070   2.238   5.759   2.814  0.3932 -0.9747  1.2089
 8054SOL    HW225071   2.279   5.658   2.709 -0.5901 -1.9737  1.7687
 8055SOL     OW25072   7.284   4.578   1.588  0.2213 -0.0755  0.5662
 8055SOL    HW125073   7.367   4.600   1.545 -0.3042 -0.8530 -0.9164
 8055SOL    HW225074   7.298   4.491   1.624  0.0048 -0.2596  0.2030
 8056SOL     OW25075   5.860   0.546   5.241 -0.2509 -0.1675 -0.0322
 8056SOL    HW125076   5.900   0.509   5.320 -0.1999 -1.3137 -0.5720
 8056SOL    HW225077   5.913   0.623   5.221 -0.8309  0.6846  1.5589
 8057SOL     OW25078   3.298   2.963   1.022 -0.0957 -0.2256  0.3639
 8057SOL    HW125079   3.271   2.963   0.930  0.6385  0.3274  0.1400
 8057SOL    HW225080   3.370   2.901   1.026  1.2285  1.2398  0.1334
 8058SOL     OW25081   2.066   2.636   2.457  0.3635 -0.1136 -0.1406
 8058SOL    HW125082   2.159   2.634   2.435  0.4489 -0.1714  0.2262
 8058SOL    HW225083   2.041   2.727   2.443  1.1069  0.5383  2.3317
 8059SOL     OW25084   0.741   1.410   7.698  0.0539  0.1911  0.2974
 8059SOL    HW125085   0.677   1.339   7.702 -0.5189  0.7555  1.5809
 8059SOL    HW225086   0.695   1.487   7.730  0.9376  0.9592 -0.2076
 8060SOL     OW25087   0.239   3.194   2.351 -0.2563  0.4839 -0.2461
 8060SOL    HW125088   0.147   3.207   2.325  0.0772  0.7833 -1.3274
 8060SOL    HW225089   0.264   3.277   2.391  0.3054  1.4055 -2.3729
 8061SOL     OW25090   3.714   1.407   7.659 -0.3841  0.5517  0.5161
 8061SOL    HW125091   3.681   1.368   7.579 -1.4978  2.6300 -0.0987
 8061SOL    HW225092   3.642   1.399   7.722 -0.3779  1.0114  0.5854
 8062SOL     OW25093   2.746   6.754   4.052 -0.2234  0.3742  0.7410
 8062SOL    HW125094   2.799   6.768   3.974  0.1329  1.7603  1.1891
 8062SOL    HW225095   2.656   6.746   4.020 -0.0688  0.8258  0.1795
 8063SOL     OW25096   2.003   0.699   5.719 -0.5335 -0.2443  0.4866
 8063SOL    HW125097   2.060   0.720   5.646  0.6589 -1.8163  0.9290
 8063SOL    HW225098   1.917   0.684   5.679 -0.2063  0.1946 -0.4076
 8064SOL     OW25099   5.568   4.390   4.935 -0.4011  0.3641 -0.4888
 8064SOL    HW125100   5.633   4.336   4.981 -0.8893  0.0175 -0.2075
 8064SOL    HW225101   5.556   4.466   4.992 -0.7312  0.1105 -0.2136
 8065SOL     OW25102   0.105   1.447   0.021 -0.7265 -0.5351  0.2606
 8065SOL    HW125103   0.155   1.499  -0.041 -0.0880  1.7623  2.5292
 8065SOL    HW225104   0.077   1.370  -0.029  0.4273  0.7514 -2.5675
 8066SOL     OW25105   4.218   5.126   5.648  0.3797 -0.1684  0.1502
 8066SOL    HW125106   4.207   5.031   5.646 -1.5456 -0.0369 -3.6630
 8066SOL    HW225107   4.139   5.159   5.691  0.4661 -0.2427  0.3671
 8067SOL     OW25108   6.129   2.372   4.956 -0.1624 -0.0989  0.1027
 8067SOL    HW125109   6.157   2.280   4.960  0.4959  0.0002 -1.4726
 8067SOL    HW225110   6.185   2.416   5.019 -0.1298 -0.6919  0.5003
 8068SOL     OW25111   1.783   7.512   0.660 -0.3715 -0.3049 -0.4130
 8068SOL    HW125112   1.780   7.566   0.581  1.1489 -0.1156 -0.3545
 8068SOL    HW225113   1.808   7.572   0.729 -0.5176 -0.7120 -0.0011
 8069SOL     OW25114   7.554   0.313   0.608  0.5740 -0.0042 -0.2397
 8069SOL    HW125115   7.556   0.399   0.566 -0.4304  0.2210  0.1312
 8069SOL    HW225116   7.623   0.316   0.674 -0.3872  1.0629  0.7589
 8070SOL     OW25117   4.064   3.780   6.386  0.4717  0.2660  0.6036
 8070SOL    HW125118   4.151   3.804   6.417  0.9697 -1.6875  0.8971
 8070SOL    HW225119   4.006   3.796   6.461  0.8656  0.0443  0.9574
 8071SOL     OW25120   0.688   1.544   6.703 -0.4076  0.0010  0.5080
 8071SOL    HW125121   0.595   1.568   6.699 -0.3381  0.0301 -2.3056
 8071SOL    HW225122   0.735   1.620   6.670  0.4802 -0.7425  0.0067
 8072SOL     OW25123   1.299   0.529   1.749  0.1119 -0.2639 -0.4616
 8072SOL    HW125124   1.233   0.598   1.760 -0.2558 -0.5384 -0.9066
 8072SOL    HW225125   1.353   0.535   1.828 -2.0587 -1.7692  1.2419
 8073SOL     OW25126   4.889   7.123   0.634 -0.1585 -0.1586 -0.0636
 8073SOL    HW125127   4.976   7.141   0.669  0.3773 -0.3901 -1.2096
 8073SOL    HW225128   4.881   7.183   0.560 -1.1268  0.1137  0.2540
 8074SOL     OW25129   0.006   3.383   6.950  0.4430  0.1448  0.0518
 8074SOL    HW125130  -0.070   3.420   6.904 -0.0339 -0.3600  0.4245
 8074SOL    HW225131   0.057   3.459   6.975 -0.7862  0.6159  1.2567
 8075SOL     OW25132   4.124   6.925   5.844 -0.5331  0.1859  0.0136
 8075SOL    HW125133   4.210   6.967   5.841 -0.9518  0.9852 -1.8586
 8075SOL    HW225134   4.062   6.995   5.824 -1.5382 -0.6248  0.1864
 8076SOL     OW25135   4.323   7.362   4.105  0.0701 -0.4654 -0.2441
 8076SOL    HW125136   4.278   7.440   4.072 -0.6764 -0.2704  1.1783
 8076SOL    HW225137   4.416   7.385   4.101 -0.1582  2.1746  3.7971
 8077SOL     OW25138   5.538   7.377   5.753 -0.0303  0.4026  0.2224
 8077SOL    HW125139   5.452   7.346   5.724 -0.1224  1.3312 -0.5231
 8077SOL    HW225140   5.575   7.302   5.800 -0.5220 -0.6227 -0.9686
 8078SOL     OW25141   6.938   0.118   6.436  0.5303  0.8754 -0.6436
 8078SOL    HW125142   6.897   0.203   6.418 -0.4001  0.6892  0.4738
 8078SOL    HW225143   6.865   0.061   6.460  1.1235 -0.2940 -1.5044
 8079SOL     OW25144   5.666   0.311   4.335  0.5586  0.0947 -0.6910
 8079SOL    HW125145   5.631   0.338   4.420 -0.2192 -0.9862 -0.6544
 8079SOL    HW225146   5.590   0.282   4.285  1.0820  0.1567 -1.5577
 8080SOL     OW25147   2.813   5.766   7.448 -0.9173 -0.0907 -0.0428
 8080SOL    HW125148   2.775   5.715   7.377 -2.2194  1.6746 -0.7127
 8080SOL    HW225149   2.805   5.857   7.419  0.7097  0.5648  1.3513
 8081SOL     OW25150   0.635   7.110   0.371 -0.0060  0.1112  0.5574
 8081SOL    HW125151   0.569   7.117   0.440 -1.4183  2.0112 -0.8679
 8081SOL    HW225152   0.584   7.088   0.292  1.4289 -0.9623 -0.1153
 8082SOL     OW25153   6.179   1.225   2.801 -0.3612  0.0633  0.5077
 8082SOL    HW125154   6.175   1.321   2.792 -1.4904  0.1390  1.5225
 8082SOL    HW225155   6.096   1.202   2.841  0.2063 -1.2753  0.9589
 8083SOL     OW25156   7.283   7.275   4.064 -0.3616 -0.1034 -1.0436
 8083SOL    HW125157   7.322   7.188   4.057 -2.8075 -1.4794  0.8505
 8083SOL    HW225158   7.252   7.281   4.154 -0.8616  2.5160 -1.2918
 8084SOL     OW25159   6.674   2.135   7.276  0.1600  0.2693 -0.2540
 8084SOL    HW125160   6.725   2.210   7.304 -0.7977  0.1376  2.0391
 8084SOL    HW225161   6.605   2.172   7.220  0.9452  0.7871 -0.9122
 8085SOL     OW25162   6.173   7.360   4.087 -0.1070 -0.3734 -0.0272
 8085SOL    HW125163   6.239   7.295   4.113  1.3943  1.6366  1.5193
 8085SOL    HW225164   6.196   7.382   3.997  0.9822 -0.1476  0.2873
 8086SOL     OW25165   5.307   2.246   4.310 -0.0144  0.1697 -0.4348
 8086SOL    HW125166   5.380   2.184   4.311 -0.9502 -0.9681 -0.2068
 8086SOL    HW225167   5.247   2.212   4.376 -0.5972  1.2826 -0.3843
 8087SOL     OW25168   0.525   3.069   5.641  0.5850  0.4183  0.1490
 8087SOL    HW125169   0.532   3.027   5.555  0.9873  0.2393  0.2701
 8087SOL    HW225170   0.609   3.053   5.683  0.3267  0.3507  0.6502
 8088SOL     OW25171   7.436   5.827   6.428 -0.6894 -0.5719  0.3418
 8088SOL    HW125172   7.508   5.777   6.467 -0.3689 -0.1176  0.3429
 8088SOL    HW225173   7.470   5.916   6.420 -0.7237 -0.6568 -1.0260
 8089SOL     OW25174   7.566   4.464   5.871  0.1423 -0.2701 -0.4787
 8089SOL    HW125175   7.531   4.492   5.786 -0.2482 -1.5422 -0.7576
 8089SOL    HW225176   7.580   4.370   5.861  1.0550 -0.2638  0.5423
 8090SOL     OW25177   3.943   6.075   0.884 -0.3319 -0.1169 -0.1196
 8090SOL    HW125178   3.957   6.110   0.796 -0.0225 -0.8526 -0.3721
 8090SOL    HW225179   3.889   5.997   0.871 -1.4869  0.5544  0.4913
 8091SOL     OW25180   5.541   2.157   0.224  0.5297 -0.0417 -0.0263
 8091SOL    HW125181   5.552   2.104   0.303  1.3298 -1.0869 -0.8011
 8091SOL    HW225182   5.576   2.242   0.247 -0.6268  0.1470  1.2013
 8092SOL     OW25183   7.354   6.704   6.525 -0.8169 -0.1157 -0.1834
 8092SOL    HW125184   7.320   6.618   6.498  2.0433 -1.5738  0.3984
 8092SOL    HW225185   7.285   6.741   6.580 -1.7026 -2.6042  0.5290
 8093SOL     OW25186   6.575   6.553   6.300  0.5995  0.2347 -0.0028
 8093SOL    HW125187   6.542   6.612   6.367 -0.2439 -1.5216  1.2186
 8093SOL    HW225188   6.646   6.505   6.342  0.2967 -0.6498 -0.4700
 8094SOL     OW25189   0.619   4.677   6.462 -0.1994  0.1898 -0.2061
 8094SOL    HW125190   0.668   4.683   6.544  0.8459 -0.1921 -0.7831
 8094SOL    HW225191   0.641   4.591   6.427 -1.6861 -0.2067 -0.2599
 8095SOL     OW25192   2.776   4.680   5.393  0.3118 -0.4705 -0.6783
 8095SOL    HW125193   2.812   4.639   5.315 -1.1259 -0.6222 -1.2992
 8095SOL    HW225194   2.845   4.671   5.459  0.7733 -2.1986 -1.3348
 8096SOL     OW25195   0.034   0.684   4.728  0.4683 -0.2431  0.2489
 8096SOL    HW125196   0.083   0.754   4.771  1.1487 -1.6187  1.8209
 8096SOL    HW225197   0.094   0.610   4.728 -1.0652 -1.5489  0.8919
 8097SOL     OW25198   7.733   3.912   3.347 -0.1875  0.0296 -0.5630
 8097SOL    HW125199   7.825   3.904   3.322  0.5510  1.8011  1.3163
 8097SOL    HW225200   7.732   3.890   3.440 -1.5613  0.5911 -0.4241
 8098SOL     OW25201   2.466   5.863   3.872  0.0048 -0.2609 -1.0117
 8098SOL    HW125202   2.529   5.804   3.831 -1.9486 -1.7581 -2.0987
 8098SOL    HW225203   2.390   5.861   3.813 -0.8594  1.9064 -0.0894
 8099SOL     OW25204   6.867   5.709   6.832 -0.4364 -0.2916  0.2451
 8099SOL    HW125205   6.888   5.798   6.804 -1.4983  0.6972  2.3853
 8099SOL    HW225206   6.839   5.665   6.752 -1.5773  1.8118 -0.5843
 8100SOL     OW25207   2.002   5.349   3.296 -0.5155 -0.1759  0.2413
 8100SOL    HW125208   1.926   5.355   3.238 -2.1375  0.4174  2.3059
 8100SOL    HW225209   2.006   5.434   3.340  1.7937  0.0521 -0.2804
 8101SOL     OW25210   0.966   3.268   4.949  0.0468 -0.1818  0.1413
 8101SOL    HW125211   1.033   3.241   5.012 -0.1202 -1.7947 -0.3383
 8101SOL    HW225212   0.940   3.355   4.979  2.5912  0.6810  0.1356
 8102SOL     OW25213   1.592   0.494   2.524 -0.0222  0.2533  0.0526
 8102SOL    HW125214   1.498   0.504   2.536 -0.2019  1.0699 -1.7472
 8102SOL    HW225215   1.601   0.435   2.450  0.9199 -0.4075  0.6560
 8103SOL     OW25216   2.062   4.595   1.880 -0.2592 -0.5976 -0.1089
 8103SOL    HW125217   2.017   4.667   1.837  0.4416  0.0397  0.1974
 8103SOL    HW225218   1.992   4.539   1.914 -0.8061 -0.4198 -0.9346
 8104SOL     OW25219   0.454   4.538   0.490  0.5153 -0.7791 -0.0553
 8104SOL    HW125220   0.405   4.467   0.532  0.3268 -0.7330 -0.1970
 8104SOL    HW225221   0.431   4.616   0.540  0.6657 -0.8057  0.0551
 8105SOL     OW25222   1.010   3.488   7.097 -0.3978 -0.5887  0.0923
 8105SOL    HW125223   0.935   3.429   7.090 -3.6070  3.0336  0.3582
 8105SOL    HW225224   1.001   3.546   7.021  2.8871 -0.6707 -0.4788
 8106SOL     OW25225   3.074   0.527   3.900 -0.1774  0.8907  0.2161
 8106SOL    HW125226   3.025   0.475   3.964 -0.2681  0.3867 -0.2540
 8106SOL    HW225227   3.165   0.505   3.916 -0.1958  0.8104  0.2115
 8107SOL     OW25228   6.542   0.242   6.304  0.1098 -0.0007 -0.5322
 8107SOL    HW125229   6.536   0.266   6.212 -1.6988 -0.1691 -0.4831
 8107SOL    HW225230   6.581   0.319   6.346  3.0431 -0.7176 -1.6965
 8108SOL     OW25231   4.825   5.928   4.191 -0.3861 -0.0707 -0.0881
 8108SOL    HW125232   4.789   5.903   4.105 -3.2213 -1.8038  1.4318
 8108SOL    HW225233   4.772   6.003   4.217 -0.0881 -0.0593  0.4878
 8109SOL     OW25234   6.563   3.859   1.791  0.0320 -0.0888 -0.5128
 8109SOL    HW125235   6.618   3.870   1.868  0.3029 -1.1349 -0.5439
 8109SOL    HW225236   6.492   3.801   1.820  0.9699 -1.7644 -1.4204
 8110SOL     OW25237   2.467   1.600   1.746 -0.3510  0.1647  0.3115
 8110SOL    HW125238   2.446   1.679   1.698  0.3633  0.2544  0.1289
 8110SOL    HW225239   2.383   1.557   1.761 -0.8520  1.4145  1.2268
 8111SOL     OW25240   3.485   0.470   2.111 -0.4504 -0.0915 -0.3146
 8111SOL    HW125241   3.424   0.457   2.038  0.7238  0.3027 -1.4173
 8111SOL    HW225242   3.531   0.551   2.089 -0.4455  0.3145  1.1512
 8112SOL     OW25243   7.419   6.338   4.597 -0.1527  0.2184  0.1246
 8112SOL    HW125244   7.454   6.249   4.601  1.8786  0.9414 -0.3457
 8112SOL    HW225245   7.381   6.345   4.509  1.6346  0.4594 -0.6623
 8113SOL     OW25246   6.996   5.292   3.146 -0.1814 -0.0788 -0.3112
 8113SOL    HW125247   6.909   5.271   3.113  0.1837 -1.5810 -0.4149
 8113SOL    HW225248   6.996   5.260   3.236 -0.0646  0.8692  0.0328
 8114SOL     OW25249   6.330   3.265   1.574  0.1021  0.3902 -0.0778
 8114SOL    HW125250   6.296   3.249   1.663  0.4115  1.0460  0.1645
 8114SOL    HW225251   6.423   3.281   1.587  0.5865 -1.5628 -0.7511
 8115SOL     OW25252   0.712   2.521   4.711  0.8519 -0.0899  0.0421
 8115SOL    HW125253   0.789   2.578   4.718 -0.0659  1.3213 -0.8902
 8115SOL    HW225254   0.644   2.565   4.762  0.0167 -0.1150 -0.9964
 8116SOL     OW25255   6.037   3.871   4.987 -0.2036  0.3437 -0.1581
 8116SOL    HW125256   6.010   3.784   5.014  0.2312 -0.6740 -2.7438
 8116SOL    HW225257   6.133   3.865   4.979  0.0623  1.6379  1.3783
 8117SOL     OW25258   2.213   4.770   7.007 -0.0776  0.5603  0.6448
 8117SOL    HW125259   2.126   4.808   7.014 -0.4741  0.1363 -1.4904
 8117SOL    HW225260   2.261   4.830   6.949  1.1281  0.8738  1.9107
 8118SOL     OW25261   1.767   1.026   2.781 -0.1874  0.1379 -0.0115
 8118SOL    HW125262   1.738   1.103   2.830 -0.5684  0.1461 -0.2496
 8118SOL    HW225263   1.759   0.954   2.844 -0.3346  0.2045  0.0458
 8119SOL     OW25264   5.729   0.402   1.436 -0.4504 -0.5561  0.1639
 8119SOL    HW125265   5.671   0.387   1.362 -1.4252  1.1354  0.5503
 8119SOL    HW225266   5.675   0.386   1.513  0.2059 -1.0609  0.5333
 8120SOL     OW25267   2.858   6.674   4.848 -0.1861  0.7489  0.5259
 8120SOL    HW125268   2.838   6.765   4.871  1.1066  0.8568  1.3279
 8120SOL    HW225269   2.949   6.676   4.819 -0.3873 -0.1735 -0.2216
 8121SOL     OW25270   1.420   6.112   2.429 -0.5548 -0.2990  0.0701
 8121SOL    HW125271   1.378   6.148   2.351 -0.2201 -0.3970 -0.1571
 8121SOL    HW225272   1.512   6.099   2.403 -0.7831 -1.8296 -0.0278
 8122SOL     OW25273   4.679   4.278   7.642  0.2747  0.1708  0.0409
 8122SOL    HW125274   4.719   4.296   7.557 -0.7068 -0.2009 -0.5182
 8122SOL    HW225275   4.591   4.248   7.621  0.2455 -0.5949  1.1702
 8123SOL     OW25276   0.447   7.259   2.141  0.1484  0.1486 -0.0291
 8123SOL    HW125277   0.487   7.184   2.098 -0.3167  1.0821 -2.1860
 8123SOL    HW225278   0.415   7.224   2.224  2.0278 -1.4751  0.0999
 8124SOL     OW25279   5.928   4.681   3.736 -0.3778  0.7303 -0.4058
 8124SOL    HW125280   5.918   4.774   3.757  0.9553  0.3944  2.0399
 8124SOL    HW225281   6.022   4.668   3.725 -0.3944 -0.5751  0.7249
 8125SOL     OW25282   6.012   0.738   3.061  0.0006 -0.0555  0.1606
 8125SOL    HW125283   6.076   0.769   2.996 -0.1382 -0.7347 -0.3137
 8125SOL    HW225284   5.929   0.776   3.032  0.3141  1.6670  1.3476
 8126SOL     OW25285   4.791   4.307   2.608  0.0341  0.3940 -0.3329
 8126SOL    HW125286   4.752   4.256   2.678  1.8467 -0.0414  0.4303
 8126SOL    HW225287   4.875   4.263   2.591  1.4048  2.7453 -0.0550
 8127SOL     OW25288   6.003   5.385   5.616  0.0885  0.3539  0.3565
 8127SOL    HW125289   5.953   5.315   5.573 -1.0020  3.1490 -3.4809
 8127SOL    HW225290   5.939   5.455   5.629  1.5938  1.5078  1.9373
 8128SOL     OW25291   6.892   2.298   6.823 -0.0259  0.3193  0.2743
 8128SOL    HW125292   6.952   2.247   6.877 -2.0818 -2.0064  0.5776
 8128SOL    HW225293   6.921   2.281   6.733  1.9566  2.2806  0.4666
 8129SOL     OW25294   4.452   3.405   0.780  0.2686 -0.3433  0.0678
 8129SOL    HW125295   4.409   3.382   0.698  1.1163 -0.8535 -0.2399
 8129SOL    HW225296   4.531   3.453   0.754 -0.5258  1.3906  0.6464
 8130SOL     OW25297   5.234   3.220   0.107 -0.1885  0.1750 -0.0184
 8130SOL    HW125298   5.171   3.148   0.097 -0.9508  0.6731  0.9799
 8130SOL    HW225299   5.318   3.182   0.082 -0.7562 -0.7355 -0.6051
 8131SOL     OW25300   5.345   3.401   5.086  0.1277  0.0464 -0.6298
 8131SOL    HW125301   5.279   3.333   5.103  0.6154 -0.7705 -1.9495
 8131SOL    HW225302   5.302   3.483   5.114 -0.7692 -0.6841  0.2007
 8132SOL     OW25303   7.051   0.865   0.939 -0.2416 -0.7203  0.2618
 8132SOL    HW125304   7.027   0.957   0.951  1.5533 -0.4123  1.9198
 8132SOL    HW225305   7.074   0.858   0.847  0.1751  0.6521  0.2426
 8133SOL     OW25306   7.561   2.757   5.483 -0.0068  0.4567  0.9398
 8133SOL    HW125307   7.653   2.767   5.509  0.1169 -0.1755  0.7579
 8133SOL    HW225308   7.516   2.730   5.563  0.0518  0.2802  0.9123
 8134SOL     OW25309   7.014   7.607   4.480 -0.4534  0.2859  0.2843
 8134SOL    HW125310   6.960   7.558   4.542 -0.6104 -1.8307 -1.4170
 8134SOL    HW225311   6.952   7.644   4.418 -0.1050 -1.4041 -1.1585
 8135SOL     OW25312   5.285   7.625   6.877 -0.4738  0.6303 -0.4054
 8135SOL    HW125313   5.240   7.543   6.855  0.0030  0.2362  0.0560
 8135SOL    HW225314   5.333   7.648   6.796 -0.6448  0.4782 -0.5507
 8136SOL     OW25315   4.648   2.966   1.106 -0.1301  0.3079 -0.3425
 8136SOL    HW125316   4.703   2.953   1.028  0.0844  1.0730 -0.3304
 8136SOL    HW225317   4.708   3.003   1.171 -0.8841  2.4013 -0.7375
 8137SOL     OW25318   5.199   4.410   3.510 -0.3546  0.4775 -0.4171
 8137SOL    HW125319   5.290   4.381   3.515 -1.3422 -2.9601 -0.3859
 8137SOL    HW225320   5.192   4.451   3.424  1.0284  0.1368 -0.7139
 8138SOL     OW25321   6.966   4.682   2.311 -0.0088 -0.2398 -0.0078
 8138SOL    HW125322   6.908   4.664   2.236 -0.5106 -0.4781  0.4344
 8138SOL    HW225323   7.054   4.665   2.277  0.0301  1.9662 -1.2815
 8139SOL     OW25324   1.869   0.609   3.077 -0.4472  0.0002  0.0158
 8139SOL    HW125325   1.875   0.705   3.073 -1.5136  0.1140  0.9472
 8139SOL    HW225326   1.932   0.579   3.010  0.9357  1.3083  0.6665
 8140SOL     OW25327   4.703   7.450   2.594  0.1058  0.7343  0.0904
 8140SOL    HW125328   4.732   7.523   2.539 -1.5293  2.1309  0.9671
 8140SOL    HW225329   4.610   7.440   2.573  0.1068 -0.5421  0.6244
 8141SOL     OW25330   0.021   0.013   6.009 -0.1185  0.1185 -0.5418
 8141SOL    HW125331  -0.039  -0.059   5.987 -1.2260  0.8524 -0.0096
 8141SOL    HW225332   0.012   0.075   5.937  1.3465 -0.5376 -1.3463
 8142SOL     OW25333   2.230   1.706   3.081  0.4922  0.1097  0.0191
 8142SOL    HW125334   2.240   1.612   3.066  0.8846  0.3475 -1.3147
 8142SOL    HW225335   2.296   1.727   3.147 -0.3026 -0.7222  1.1207
 8143SOL     OW25336   2.222   1.247   7.655 -0.0051  0.1366  0.4666
 8143SOL    HW125337   2.290   1.180   7.659  0.1469  0.1340 -1.4088
 8143SOL    HW225338   2.250   1.306   7.586 -1.4928  0.6135  0.2394
 8144SOL     OW25339   3.789   0.556   6.062  0.8561  0.5699 -0.4339
 8144SOL    HW125340   3.857   0.528   6.123  1.1906 -1.4398 -1.6532
 8144SOL    HW225341   3.754   0.636   6.101  2.8082  0.7833  1.0450
 8145SOL     OW25342   1.985   5.156   0.873 -0.0909  0.1737 -0.3743
 8145SOL    HW125343   1.892   5.161   0.850 -0.3589 -1.2804  0.3531
 8145SOL    HW225344   2.016   5.246   0.861 -1.2471  0.4185 -1.9955
 8146SOL     OW25345   6.665   1.279   7.386 -0.2050  0.2627 -0.0760
 8146SOL    HW125346   6.696   1.193   7.361 -0.7257  0.2030 -0.5389
 8146SOL    HW225347   6.609   1.307   7.313 -1.6477  0.1384  0.9369
 8147SOL     OW25348   7.337   6.674   3.604  0.3150  0.1729  0.0545
 8147SOL    HW125349   7.353   6.631   3.520  0.7851  0.5949 -0.0799
 8147SOL    HW225350   7.250   6.713   3.595 -0.9874 -2.3287  0.8706
 8148SOL     OW25351   2.799   1.624   3.187  0.1356  0.4852  0.1307
 8148SOL    HW125352   2.774   1.559   3.252 -0.2768  0.6847  0.1783
 8148SOL    HW225353   2.894   1.633   3.196  0.2167 -0.2373 -0.0048
 8149SOL     OW25354   5.038   2.659   4.323  0.1606 -0.1171 -0.3554
 8149SOL    HW125355   4.969   2.603   4.357  1.2701 -0.0264  2.3319
 8149SOL    HW225356   5.015   2.747   4.353 -0.1001  0.4675 -2.1112
 8150SOL     OW25357   7.294   5.064   4.892  0.0980  0.2773 -0.1444
 8150SOL    HW125358   7.250   4.988   4.928  0.1867 -0.4666 -1.5311
 8150SOL    HW225359   7.224   5.116   4.853  0.4063 -1.5407 -3.5065
 8151SOL     OW25360   3.715   5.820   6.948  0.3034  0.0628 -0.0823
 8151SOL    HW125361   3.633   5.784   6.981  1.0585 -2.5917 -0.8347
 8151SOL    HW225362   3.763   5.846   7.027  0.0498 -1.4927  0.6229
 8152SOL     OW25363   2.641   5.531   0.798  0.0706 -0.4356 -0.1872
 8152SOL    HW125364   2.680   5.552   0.883 -0.1808  1.2111 -0.4446
 8152SOL    HW225365   2.547   5.531   0.814  0.0318 -0.3964 -0.4203
 8153SOL     OW25366   7.673   0.296   6.938  0.1336  0.0577  0.6126
 8153SOL    HW125367   7.677   0.392   6.943  2.4770  0.1839 -1.7155
 8153SOL    HW225368   7.597   0.279   6.882  0.6314  0.6590 -0.2756
 8154SOL     OW25369   0.958   5.235   2.923  0.7839  0.1703 -0.1886
 8154SOL    HW125370   0.922   5.293   2.990 -0.9750 -0.2521 -0.7064
 8154SOL    HW225371   0.957   5.148   2.964  1.6144  0.2020 -0.0798
 8155SOL     OW25372   3.611   5.016   2.265  0.5339 -0.3966 -0.6118
 8155SOL    HW125373   3.564   4.935   2.247  1.7132 -1.1217 -0.5605
 8155SOL    HW225374   3.701   4.988   2.281  0.8380  0.8660  0.0192
 8156SOL     OW25375   1.439   2.046   3.127 -0.0324  0.0229 -0.5530
 8156SOL    HW125376   1.462   1.959   3.096 -0.2972 -0.0957 -0.4158
 8156SOL    HW225377   1.519   2.079   3.168 -0.6836 -1.2412  1.8928
 8157SOL     OW25378   6.376   2.401   0.002 -0.7754  0.3531  0.1893
 8157SOL    HW125379   6.387   2.347   0.079 -1.7484 -1.0756 -0.6262
 8157SOL    HW225380   6.377   2.339  -0.072  0.8575  1.7349 -1.0172
 8158SOL     OW25381   4.619   4.396   4.472 -0.0139  0.0924  0.4421
 8158SOL    HW125382   4.674   4.462   4.431  0.3037 -1.2867 -1.4811
 8158SOL    HW225383   4.678   4.347   4.529  0.2606  0.0271  0.1041
 8159SOL     OW25384   6.128   0.598   0.932  0.1522 -0.0110 -0.1526
 8159SOL    HW125385   6.201   0.548   0.968  0.9315  0.2246 -1.3447
 8159SOL    HW225386   6.050   0.554   0.965  0.8254 -1.0032  0.1559
 8160SOL     OW25387   3.135   1.594   6.442  0.3466  0.0671 -0.7924
 8160SOL    HW125388   3.187   1.668   6.411 -1.4553  1.2033 -1.2620
 8160SOL    HW225389   3.198   1.538   6.488  1.9034  1.4928 -1.0759
 8161SOL     OW25390   7.596   5.376   5.451  0.7044  0.1944 -0.6419
 8161SOL    HW125391   7.612   5.423   5.533 -2.4940  2.0925 -0.9386
 8161SOL    HW225392   7.666   5.406   5.393  2.6540 -0.6869  1.0945
 8162SOL     OW25393   7.468   3.457   1.131 -0.1937 -0.3563 -0.0777
 8162SOL    HW125394   7.542   3.403   1.103  0.4215 -0.0469  0.8981
 8162SOL    HW225395   7.468   3.532   1.071 -0.7281 -1.1467 -1.1016
 8163SOL     OW25396   0.358   0.648   0.571 -0.1217  0.4625  0.3300
 8163SOL    HW125397   0.298   0.714   0.608 -0.8040 -0.5285  1.0577
 8163SOL    HW225398   0.410   0.620   0.646 -2.0455 -2.1384  0.8411
 8164SOL     OW25399   5.141   6.461   2.090  0.2254  0.0346 -0.2464
 8164SOL    HW125400   5.090   6.498   2.162  0.0016  0.2865 -0.5335
 8164SOL    HW225401   5.093   6.486   2.011  0.4428 -0.2831 -0.4813
 8165SOL     OW25402   5.863   4.919   6.888  0.0545  0.0244 -0.1074
 8165SOL    HW125403   5.776   4.918   6.848 -1.1094  0.6864  2.2063
 8165SOL    HW225404   5.913   4.983   6.837 -1.1368  0.3887 -0.8551
 8166SOL     OW25405   5.661   5.015   7.662  0.2501 -0.8139 -0.7663
 8166SOL    HW125406   5.680   5.037   7.753 -0.7405 -0.1929 -0.7018
 8166SOL    HW225407   5.742   5.036   7.615  0.6645 -0.8520 -0.0855
 8167SOL     OW25408   7.712   6.169   2.749 -0.4093  0.5607 -0.3965
 8167SOL    HW125409   7.783   6.220   2.710  0.8794 -0.7606  0.1818
 8167SOL    HW225410   7.754   6.112   2.813 -1.8131 -1.1611 -0.9207
 8168SOL     OW25411   7.336   6.955   5.544 -0.3722 -0.1490  0.0663
 8168SOL    HW125412   7.359   6.864   5.525  0.3504 -0.0587  0.4457
 8168SOL    HW225413   7.395   7.007   5.490 -0.6928  0.0925 -0.0526
 8169SOL     OW25414   1.662   7.310   1.948 -0.1468 -0.0229  0.4065
 8169SOL    HW125415   1.700   7.302   2.036  0.5306 -2.8116 -0.0348
 8169SOL    HW225416   1.567   7.305   1.963 -0.0167 -1.2994  0.9834
 8170SOL     OW25417   1.326   4.240   2.206  0.2474  0.1456  0.2119
 8170SOL    HW125418   1.335   4.148   2.234  0.5538 -0.1504 -0.8173
 8170SOL    HW225419   1.395   4.252   2.141  1.2750  1.5952  1.4907
 8171SOL     OW25420   2.795   0.970   2.881  0.0214  0.0621  0.1728
 8171SOL    HW125421   2.753   0.888   2.854  0.1179 -0.0038  0.2220
 8171SOL    HW225422   2.851   0.945   2.955  0.1970  0.1375  0.0658
 8172SOL     OW25423   7.277   3.422   4.511 -0.2312 -0.4118  0.3124
 8172SOL    HW125424   7.249   3.336   4.480 -2.4808  0.2985  0.1872
 8172SOL    HW225425   7.242   3.428   4.600  0.6958  0.0343  0.6621
 8173SOL     OW25426   4.790   4.806   3.834  0.0689 -0.3152 -0.4053
 8173SOL    HW125427   4.863   4.849   3.789 -0.0462 -1.1984 -1.4559
 8173SOL    HW225428   4.833   4.746   3.895  0.2280  1.0842  0.9212
 8174SOL     OW25429   3.752   3.786   0.479  0.1417 -0.0599 -0.2720
 8174SOL    HW125430   3.677   3.741   0.440  1.3256 -1.4723 -1.0307
 8174SOL    HW225431   3.767   3.742   0.562  1.2179 -1.0096 -0.9501
 8175SOL     OW25432   7.093   3.245   5.778  0.3731 -0.0352  0.3700
 8175SOL    HW125433   7.051   3.207   5.701 -0.6916  2.2694 -0.2970
 8175SOL    HW225434   7.076   3.182   5.849 -1.2056 -0.8302 -0.6498
 8176SOL     OW25435   3.286   7.225   2.167 -0.0698 -0.3084  0.0316
 8176SOL    HW125436   3.352   7.186   2.110  0.7241 -0.1441  0.8181
 8176SOL    HW225437   3.255   7.302   2.119  0.3207 -0.3754 -0.3349
 8177SOL     OW25438   3.399   1.225   7.107 -0.0158 -0.1288 -0.0406
 8177SOL    HW125439   3.399   1.245   7.014 -0.0065  1.4442  0.2612
 8177SOL    HW225440   3.491   1.205   7.127  0.4997  2.0488  0.0677
 8178SOL     OW25441   4.116   0.767   0.758  0.5615  0.3762 -0.1122
 8178SOL    HW125442   4.105   0.755   0.852  1.3593 -0.4567 -0.1091
 8178SOL    HW225443   4.211   0.781   0.746  0.6523 -0.7506 -0.8989
 8179SOL     OW25444   1.606   3.596   6.671  0.4614  0.4233  0.0676
 8179SOL    HW125445   1.535   3.537   6.695  0.5315  0.4717  0.3952
 8179SOL    HW225446   1.663   3.598   6.748  0.3911  1.0150  0.1106
 8180SOL     OW25447   1.843   4.628   6.758  0.2436 -0.3192 -0.7864
 8180SOL    HW125448   1.853   4.559   6.824  1.1067  0.2817 -0.2623
 8180SOL    HW225449   1.923   4.623   6.706  0.7718  0.8739 -0.1491
 8181SOL     OW25450   7.445   3.167   2.154 -0.0112  0.1019  0.6971
 8181SOL    HW125451   7.475   3.181   2.064  0.4992  0.8332  0.9727
 8181SOL    HW225452   7.410   3.078   2.154 -1.1451  0.5233 -0.5289
 8182SOL     OW25453   2.481   0.166   3.888  0.0837  0.0868 -0.2756
 8182SOL    HW125454   2.552   0.137   3.945  0.1357  0.1351 -0.3153
 8182SOL    HW225455   2.481   0.103   3.816  0.4396  0.3971 -0.5527
 8183SOL     OW25456   4.335   5.467   0.439  0.3097 -0.2801  0.2360
 8183SOL    HW125457   4.333   5.527   0.365  1.5284  1.5287  1.5577
 8183SOL    HW225458   4.378   5.388   0.406 -1.7090 -0.6450 -1.6653
 8184SOL     OW25459   7.500   4.351   0.392 -0.6062 -0.1832 -0.4329
 8184SOL    HW125460   7.412   4.326   0.365 -0.4563  0.6037 -1.7833
 8184SOL    HW225461   7.557   4.317   0.323 -0.1098  1.2675 -0.7905
 8185SOL     OW25462   6.042   2.889   6.751 -0.0262 -0.2626 -0.0736
 8185SOL    HW125463   6.023   2.836   6.674 -0.4085  1.1959 -1.0234
 8185SOL    HW225464   5.996   2.971   6.735 -2.0030 -0.6726  2.7336
 8186SOL     OW25465   4.058   7.744   0.270  0.1302 -0.0702 -0.0805
 8186SOL    HW125466   4.078   7.796   0.348 -1.0922  1.7159 -0.8736
 8186SOL    HW225467   4.070   7.805   0.197  1.7517 -1.8301 -1.3879
 8187SOL     OW25468   2.162   6.800   3.169  0.8517  0.0592 -0.5131
 8187SOL    HW125469   2.114   6.719   3.156  0.9182 -0.2266  0.9213
 8187SOL    HW225470   2.209   6.788   3.251 -0.9684  2.3999  0.9994
 8188SOL     OW25471   1.967   6.345   5.960  0.2625 -0.0399 -0.0495
 8188SOL    HW125472   1.943   6.407   6.028  1.5432 -0.0430  0.4355
 8188SOL    HW225473   1.906   6.363   5.889 -0.0656  1.0606  0.4853
 8189SOL     OW25474   1.991   2.134   6.403 -0.0814 -0.6469 -0.7373
 8189SOL    HW125475   2.062   2.070   6.412 -0.3169 -0.6944  1.2164
 8189SOL    HW225476   1.934   2.096   6.336 -0.1354 -2.4679  0.2459
 8190SOL     OW25477   7.534   4.297   3.814 -0.5127  0.2493  0.3194
 8190SOL    HW125478   7.612   4.245   3.831  0.0411  0.8872 -0.1980
 8190SOL    HW225479   7.541   4.321   3.721 -1.0216  0.7944  0.4137
 8191SOL     OW25480   4.341   2.433   3.096  0.1534 -0.0581  0.1318
 8191SOL    HW125481   4.424   2.438   3.144  0.2051  1.8866 -0.0843
 8191SOL    HW225482   4.283   2.382   3.153  0.1498  2.3269  2.4521
 8192SOL     OW25483   7.214   4.687   1.979  0.3922  0.3076 -0.2959
 8192SOL    HW125484   7.139   4.741   1.955  0.3138  0.9861  1.3032
 8192SOL    HW225485   7.290   4.732   1.941  0.3542  1.7439  1.2005
 8193SOL     OW25486   1.204   1.300   7.291 -0.1206  0.6146  0.4369
 8193SOL    HW125487   1.207   1.206   7.274 -0.4099  0.5378  0.8064
 8193SOL    HW225488   1.209   1.308   7.386 -0.4664  0.9567  0.4320
 8194SOL     OW25489   5.156   5.128   7.543 -0.3400  0.0616  0.2498
 8194SOL    HW125490   5.234   5.171   7.578  0.5331 -1.2905  0.0672
 8194SOL    HW225491   5.120   5.079   7.617 -1.8634  1.7491  0.7056
 8195SOL     OW25492   2.613   2.154   5.793  0.0197 -0.1390 -0.0856
 8195SOL    HW125493   2.687   2.147   5.733  0.6647  0.4462  0.6135
 8195SOL    HW225494   2.570   2.236   5.768 -0.1845 -0.2973 -0.2582
 8196SOL     OW25495   7.124   6.937   4.216 -0.4065  0.2451 -0.1836
 8196SOL    HW125496   7.036   6.965   4.192 -0.0964 -0.5445 -2.5161
 8196SOL    HW225497   7.111   6.854   4.263 -0.9003 -0.5067 -1.5850
 8197SOL     OW25498   3.121   3.797   7.100  0.2740 -0.0023  0.3345
 8197SOL    HW125499   3.198   3.851   7.082  0.7187 -0.7411 -0.0233
 8197SOL    HW225500   3.150   3.707   7.083 -0.7121 -0.2773  0.0471
 8198SOL     OW25501   0.774   5.628   3.759 -0.1825 -0.5581  0.3381
 8198SOL    HW125502   0.843   5.694   3.756 -0.4130 -0.3479 -0.8206
 8198SOL    HW225503   0.707   5.661   3.699 -0.6115 -1.5025  0.2811
 8199SOL     OW25504   6.521   4.284   3.519 -0.2002  0.7954 -0.1983
 8199SOL    HW125505   6.487   4.360   3.474  1.4654  0.5581 -1.9831
 8199SOL    HW225506   6.589   4.318   3.577  0.6042  0.6893 -1.0600
 8200SOL     OW25507   4.454   4.157   3.181 -0.7488  0.0841 -0.3822
 8200SOL    HW125508   4.377   4.123   3.227 -0.4980 -0.7697 -0.5644
 8200SOL    HW225509   4.490   4.080   3.136  0.4899  0.3715  0.1007
 8201SOL     OW25510   5.552   2.058   5.280  0.1429  0.2496  0.3569
 8201SOL    HW125511   5.558   2.078   5.373 -1.9447  2.7705  0.0764
 8201SOL    HW225512   5.633   2.093   5.242  0.3481  0.5304  1.0395
 8202SOL     OW25513   5.141   4.282   7.001 -0.4285 -0.4511 -0.2958
 8202SOL    HW125514   5.084   4.333   7.058  3.8783  2.5978  1.9417
 8202SOL    HW225515   5.120   4.191   7.020 -3.8737  0.4443  0.8539
 8203SOL     OW25516   2.893   2.314   1.157 -0.3082  0.7591  0.5460
 8203SOL    HW125517   2.871   2.226   1.129  1.4212  0.6711 -0.7221
 8203SOL    HW225518   2.831   2.334   1.227 -1.6034 -0.9240 -0.0702
 8204SOL     OW25519   4.958   6.641   2.209  0.3535  0.3346 -0.0255
 8204SOL    HW125520   4.939   6.716   2.266 -0.0225 -0.2205  0.5923
 8204SOL    HW225521   4.874   6.623   2.166  0.7548  1.0595 -1.1402
 8205SOL     OW25522   1.576   7.050   1.683  0.0590 -0.1415  0.0624
 8205SOL    HW125523   1.660   7.096   1.679 -0.2907  0.4546 -0.4429
 8205SOL    HW225524   1.512   7.112   1.649 -0.6532 -0.4567  0.7791
 8206SOL     OW25525   6.950   6.189   6.064 -0.3781  0.4539  0.1653
 8206SOL    HW125526   6.887   6.220   6.129  0.4907  0.5212  0.9917
 8206SOL    HW225527   7.031   6.175   6.113  0.0963 -0.2048 -0.7642
 8207SOL     OW25528   6.953   1.860   0.708 -0.5577 -0.5532 -0.2081
 8207SOL    HW125529   7.036   1.812   0.711 -0.8671 -1.1973 -1.2856
 8207SOL    HW225530   6.895   1.802   0.659 -1.6416 -0.0992  0.5205
 8208SOL     OW25531   5.713   6.542   0.767  0.8420 -0.0559  0.3922
 8208SOL    HW125532   5.789   6.599   0.757  3.5566 -3.1764  1.2858
 8208SOL    HW225533   5.707   6.527   0.861 -1.0649  0.2418  0.3555
 8209SOL     OW25534   5.325   1.626   6.698 -0.3009  0.0838  0.2069
 8209SOL    HW125535   5.386   1.555   6.720  0.6680  0.9674  0.4214
 8209SOL    HW225536   5.338   1.640   6.604  2.1664  2.3563  0.7822
 8210SOL     OW25537   5.539   4.491   2.039 -0.2746 -0.3116 -0.1158
 8210SOL    HW125538   5.572   4.401   2.035 -0.7730 -0.6919  2.5380
 8210SOL    HW225539   5.618   4.546   2.037 -0.0084 -0.6828 -2.7792
 8211SOL     OW25540   0.336   4.087   4.670 -0.1842 -0.2896  0.7466
 8211SOL    HW125541   0.345   4.175   4.707  1.6646  0.5151 -1.4029
 8211SOL    HW225542   0.263   4.094   4.609  0.5999  0.0547 -0.1665
 8212SOL     OW25543   0.575   7.303   0.810 -0.0987 -0.0888 -0.5848
 8212SOL    HW125544   0.500   7.361   0.795 -0.2511  0.0401  0.6029
 8212SOL    HW225545   0.649   7.351   0.774 -0.1127  1.1809  0.9651
 8213SOL     OW25546   5.093   1.969   3.782  0.1769  0.2511  0.0532
 8213SOL    HW125547   5.015   2.001   3.828  0.0078 -0.6702  0.4399
 8213SOL    HW225548   5.159   1.960   3.851  0.8475  1.6387 -0.3713
 8214SOL     OW25549   0.144   3.762   3.648  0.2910  0.4702  0.2453
 8214SOL    HW125550   0.238   3.758   3.666  0.1094 -0.7423  1.0896
 8214SOL    HW225551   0.131   3.703   3.575  0.0329 -0.3582  0.9433
 8215SOL     OW25552   3.579   3.040   1.619 -0.0353 -0.0349  0.1704
 8215SOL    HW125553   3.618   2.976   1.679 -0.4298  0.0813  0.5622
 8215SOL    HW225554   3.557   3.115   1.675  0.4579  0.4621 -0.2912
 8216SOL     OW25555   4.445   0.173   4.762 -0.2389 -0.4773  0.1948
 8216SOL    HW125556   4.494   0.205   4.687 -0.7274  1.0889  0.5078
 8216SOL    HW225557   4.354   0.169   4.733 -0.1813 -1.8211  0.1107
 8217SOL     OW25558   6.359   1.661   3.954 -0.3003  0.3332 -0.6586
 8217SOL    HW125559   6.307   1.582   3.969 -0.7635  0.7694  0.1419
 8217SOL    HW225560   6.448   1.637   3.977 -0.1839 -0.3446 -1.7659
 8218SOL     OW25561   6.956   2.804   6.621 -0.2293  0.2691 -0.0401
 8218SOL    HW125562   6.946   2.887   6.573  1.4958  0.2929 -0.4411
 8218SOL    HW225563   6.932   2.737   6.557  0.0673  0.3920 -0.2851
 8219SOL     OW25564   3.245   6.107   6.187 -0.4067 -0.0642 -0.1961
 8219SOL    HW125565   3.230   6.049   6.261  0.4496 -0.8444 -0.6194
 8219SOL    HW225566   3.157   6.138   6.163 -1.1029 -2.4903 -1.0222
 8220SOL     OW25567   7.416   4.926   0.353 -0.3628  0.0465 -0.3259
 8220SOL    HW125568   7.380   5.014   0.340  2.0207  1.2064  0.2965
 8220SOL    HW225569   7.484   4.918   0.286 -0.0847 -1.0483  0.0622
 8221SOL     OW25570   4.285   3.405   0.546  0.1337  0.4379 -0.0268
 8221SOL    HW125571   4.330   3.457   0.479  0.4942  1.9974  1.3454
 8221SOL    HW225572   4.208   3.457   0.569 -0.3685 -0.4232  0.2761
 8222SOL     OW25573   2.975   3.101   6.153 -0.6479  0.1556 -0.2189
 8222SOL    HW125574   2.936   3.163   6.215  1.2449  1.7914 -0.5514
 8222SOL    HW225575   3.069   3.116   6.160 -0.1629 -2.2881 -0.8070
 8223SOL     OW25576   7.150   5.987   5.216 -0.4695 -0.0713 -0.3409
 8223SOL    HW125577   7.209   6.023   5.150 -0.1173 -0.8577 -0.4709
 8223SOL    HW225578   7.062   6.005   5.182 -0.2957  0.3238 -0.5859
 8224SOL     OW25579   2.467   0.631   7.698  0.4714 -0.0860 -0.1495
 8224SOL    HW125580   2.394   0.688   7.673  0.3283 -0.4768 -0.6578
 8224SOL    HW225581   2.451   0.550   7.650 -0.3622 -1.2804  2.0097
 8225SOL     OW25582   5.064   4.269   4.502 -0.5390 -0.0443 -0.4444
 8225SOL    HW125583   5.078   4.230   4.589  2.5177  0.8121 -0.4154
 8225SOL    HW225584   5.096   4.203   4.441  1.5440  0.9887 -0.5753
 8226SOL     OW25585   5.929   2.082   0.704 -0.3547 -0.3774 -0.2496
 8226SOL    HW125586   5.907   1.989   0.698  0.7439 -0.7386  0.8741
 8226SOL    HW225587   5.973   2.091   0.788  0.6985  0.9299 -0.9053
 8227SOL     OW25588   6.424   0.175   4.081  0.5473  0.0775  0.1198
 8227SOL    HW125589   6.427   0.202   3.989 -0.4622  1.4948  0.4667
 8227SOL    HW225590   6.504   0.211   4.119  0.2782  0.7469  0.0839
 8228SOL     OW25591   4.954   1.063   7.563  0.5419 -0.7831 -0.9400
 8228SOL    HW125592   4.887   1.127   7.539 -1.0012 -2.4385 -1.2751
 8228SOL    HW225593   4.910   1.006   7.626  1.5410 -2.0966 -1.3988
 8229SOL     OW25594   2.159   5.610   7.448 -0.2614 -0.0304 -0.0109
 8229SOL    HW125595   2.092   5.651   7.502 -1.1572 -1.0579 -0.3051
 8229SOL    HW225596   2.191   5.680   7.392 -2.0437  0.2115 -0.7819
 8230SOL     OW25597   6.087   6.671   6.148  0.4232  0.4828  0.7305
 8230SOL    HW125598   6.166   6.637   6.106 -0.5323  0.8898 -1.5983
 8230SOL    HW225599   6.036   6.593   6.170  0.3079  0.2591 -0.2665
 8231SOL     OW25600   0.137   2.570   4.986 -0.3579  0.5061 -0.1821
 8231SOL    HW125601   0.054   2.538   5.023 -0.7712  1.5044 -0.2234
 8231SOL    HW225602   0.116   2.595   4.896 -0.2280  1.5630  0.0635
 8232SOL     OW25603   2.601   0.813   0.822 -0.8454  0.6450 -0.2521
 8232SOL    HW125604   2.606   0.885   0.885  1.6569 -0.8005  1.3891
 8232SOL    HW225605   2.692   0.801   0.793 -1.4123 -0.9780 -1.4885
 8233SOL     OW25606   1.214   4.522   6.932  0.4993  0.5301  0.0033
 8233SOL    HW125607   1.120   4.527   6.916  0.3956 -0.5593  0.1867
 8233SOL    HW225608   1.222   4.473   7.014  1.2022  1.4958  0.5388
 8234SOL     OW25609   0.883   0.569   2.453  0.0705 -0.1850  0.1412
 8234SOL    HW125610   0.975   0.550   2.475 -0.4921 -1.4937  1.5269
 8234SOL    HW225611   0.837   0.486   2.467 -1.7726  1.0577  2.0802
 8235SOL     OW25612   2.956   5.606   3.378  0.3923 -0.1634 -0.3422
 8235SOL    HW125613   2.941   5.700   3.368  0.6171  0.0255  0.9155
 8235SOL    HW225614   2.985   5.577   3.291  0.5306  0.9644 -0.6928
 8236SOL     OW25615   6.584   0.925   1.673  0.4257  0.0114 -0.6046
 8236SOL    HW125616   6.572   0.888   1.586  0.5471  0.9818 -1.0438
 8236SOL    HW225617   6.655   0.873   1.711 -0.4340 -1.2068 -0.6089
 8237SOL     OW25618   0.365   7.378   5.082 -0.2807  0.3634 -0.6674
 8237SOL    HW125619   0.373   7.283   5.072 -1.4937  0.0310  1.1329
 8237SOL    HW225620   0.303   7.403   5.013 -1.8144 -0.5482  0.3259
 8238SOL     OW25621   5.177   1.140   3.103 -0.0715 -0.2014 -0.0648
 8238SOL    HW125622   5.094   1.185   3.117 -0.1915 -0.9135  1.9442
 8238SOL    HW225623   5.152   1.049   3.084  0.1463  0.4614 -4.3632
 8239SOL     OW25624   7.220   1.697   5.575  0.9675 -0.1293 -0.4396
 8239SOL    HW125625   7.201   1.781   5.616  1.1357 -0.7720  1.0295
 8239SOL    HW225626   7.196   1.709   5.483 -1.6731  0.6774  0.2558
 8240SOL     OW25627   7.087   7.475   6.247 -0.0504 -0.3148 -0.0897
 8240SOL    HW125628   7.082   7.570   6.258 -1.6258 -0.5006  1.3407
 8240SOL    HW225629   7.093   7.462   6.153 -1.2867  1.1935 -0.4316
 8241SOL     OW25630   5.052   6.376   0.660  0.0230 -0.5061  0.0017
 8241SOL    HW125631   5.014   6.296   0.624 -0.4936  0.3668 -1.4629
 8241SOL    HW225632   5.134   6.388   0.612 -0.1078  0.0606 -0.0919
 8242SOL     OW25633   1.213   3.245   0.368  0.2760  0.2455 -0.5575
 8242SOL    HW125634   1.188   3.319   0.313  0.7207 -1.6693 -3.5738
 8242SOL    HW225635   1.130   3.203   0.390 -0.1686  2.5185  2.8049
 8243SOL     OW25636   1.182   5.773   6.608  0.0975 -0.4901  0.3643
 8243SOL    HW125637   1.123   5.700   6.587  0.3647 -0.7145  0.3868
 8243SOL    HW225638   1.243   5.736   6.672  1.1470 -0.6808 -0.7168
 8244SOL     OW25639   5.833   7.040   3.468 -0.7789 -0.0444 -0.0932
 8244SOL    HW125640   5.885   7.114   3.435 -1.0118 -0.0285 -0.4233
 8244SOL    HW225641   5.879   6.962   3.437  0.4998 -0.0960  1.7736
 8245SOL     OW25642   4.172   1.799   3.518  0.3843  0.1677  0.6406
 8245SOL    HW125643   4.190   1.880   3.472 -0.5443 -0.3780 -0.7331
 8245SOL    HW225644   4.211   1.731   3.463 -0.4717 -0.4662  0.7984
 8246SOL     OW25645   6.039   3.969   5.575  0.3586  0.4941 -0.1699
 8246SOL    HW125646   6.077   3.969   5.663 -0.0373 -0.2375  0.0134
 8246SOL    HW225647   5.945   3.979   5.590  0.3084  0.5525 -0.5194
 8247SOL     OW25648   6.986   3.981   3.376 -0.4667  0.4263  0.6773
 8247SOL    HW125649   6.963   3.951   3.289  0.0328  1.7384  0.0659
 8247SOL    HW225650   7.081   3.995   3.373 -0.3154 -0.2403  1.6688
 8248SOL     OW25651   0.555   5.899   2.718  0.1531  0.7474 -0.1684
 8248SOL    HW125652   0.543   5.805   2.732 -0.8372  0.8531 -0.2300
 8248SOL    HW225653   0.471   5.929   2.682  0.2870  1.7369  0.3000
 8249SOL     OW25654   7.238   0.844   6.978 -0.3726  0.0067  0.0252
 8249SOL    HW125655   7.271   0.776   6.919 -1.9843 -1.0351  0.2603
 8249SOL    HW225656   7.145   0.852   6.956 -0.0477  2.9927 -0.7962
 8250SOL     OW25657   2.795   2.914   4.313  0.3215  0.3161  0.2069
 8250SOL    HW125658   2.859   2.843   4.303 -1.3265 -1.5535  2.0086
 8250SOL    HW225659   2.791   2.929   4.408 -1.2452  1.0076  0.0649
 8251SOL     OW25660   4.149   1.670   5.425  0.6275  0.2611  0.0038
 8251SOL    HW125661   4.079   1.728   5.395  0.9830  0.8524  0.2965
 8251SOL    HW225662   4.225   1.695   5.374  1.9177  2.9720  2.8856
 8252SOL     OW25663   5.114   0.366   2.059  0.0372 -0.6386 -0.5258
 8252SOL    HW125664   5.111   0.314   2.140 -0.3432 -0.5622 -0.4886
 8252SOL    HW225665   5.024   0.364   2.026 -0.0768  0.3369 -0.3064
 8253SOL     OW25666   4.438   6.292   4.067  0.0212 -0.2685  0.1516
 8253SOL    HW125667   4.453   6.384   4.045  2.1002 -0.2388  1.3716
 8253SOL    HW225668   4.498   6.244   4.010  1.3704 -0.5702  1.7312
 8254SOL     OW25669   0.081   7.425   5.956 -0.5504  0.3154 -0.4916
 8254SOL    HW125670   0.175   7.423   5.972 -0.6843 -0.9989  0.3227
 8254SOL    HW225671   0.065   7.349   5.899 -0.9966  1.1013 -1.4348
 8255SOL     OW25672   5.216   0.517   2.930 -0.4142 -0.4150 -0.1924
 8255SOL    HW125673   5.154   0.505   3.002  1.3240 -3.1702  0.9753
 8255SOL    HW225674   5.259   0.600   2.951 -2.7936  0.9812 -0.4244
 8256SOL     OW25675   3.979   0.878   7.338 -0.0533 -0.8730  0.2162
 8256SOL    HW125676   3.931   0.876   7.255 -0.1296  1.6749  0.1323
 8256SOL    HW225677   3.911   0.867   7.405 -0.0844 -2.1686  0.0014
 8257SOL     OW25678   6.014   1.988   3.021  0.0109  0.5866 -0.0101
 8257SOL    HW125679   6.059   2.069   3.046  0.5790  0.2415  0.1138
 8257SOL    HW225680   6.062   1.919   3.067 -0.4526  0.1742 -0.1342
 8258SOL     OW25681   5.126   0.030   1.737 -0.8067  0.2135  0.0363
 8258SOL    HW125682   5.147   0.007   1.646  0.4763  0.5828  0.2117
 8258SOL    HW225683   5.173   0.112   1.752 -0.2644 -0.3053  1.3164
 8259SOL     OW25684   7.420   3.698   5.545  0.0757 -0.0302 -0.2114
 8259SOL    HW125685   7.436   3.637   5.472  0.0070 -1.1167  0.6505
 8259SOL    HW225686   7.326   3.692   5.560 -0.1561  1.3041 -0.9504
 8260SOL     OW25687   4.059   4.802   2.917 -0.2083  0.2387  0.5430
 8260SOL    HW125688   4.057   4.844   2.831  0.7358  2.3877  1.4953
 8260SOL    HW225689   4.153   4.795   2.938 -0.4484  0.7315  1.8501
 8261SOL     OW25690   4.071   1.123   6.478 -0.1453 -0.4151  0.5230
 8261SOL    HW125691   4.074   1.159   6.566  0.1276 -0.3783  0.4995
 8261SOL    HW225692   4.162   1.126   6.448 -0.1902 -0.7082  0.3554
 8262SOL     OW25693   6.148   2.292   4.684  0.1724 -0.4289  0.2113
 8262SOL    HW125694   6.114   2.354   4.749 -0.2323  0.6278 -0.9773
 8262SOL    HW225695   6.226   2.255   4.725 -0.1577  0.1051  1.3580
 8263SOL     OW25696   5.983   6.958   5.662 -0.2700 -0.1650  0.0611
 8263SOL    HW125697   5.993   6.877   5.611  1.6270  0.9084 -1.4148
 8263SOL    HW225698   5.990   6.930   5.753  1.3178 -1.5967 -0.4365
 8264SOL     OW25699   7.639   2.536   3.187 -0.0765  0.3268 -0.0766
 8264SOL    HW125700   7.663   2.496   3.104  0.3666  0.4211  0.0007
 8264SOL    HW225701   7.598   2.619   3.163 -0.9769 -0.1566 -0.2342
 8265SOL     OW25702   6.504   6.193   6.001  0.0867 -0.4870 -0.6272
 8265SOL    HW125703   6.458   6.113   6.027 -2.9590  0.3187 -2.8439
 8265SOL    HW225704   6.450   6.228   5.929  1.4394  3.3829  0.0426
 8266SOL     OW25705   5.778   2.854   0.972 -0.0351  0.1529  0.1867
 8266SOL    HW125706   5.692   2.894   0.983 -0.1657  0.1943 -0.8787
 8266SOL    HW225707   5.839   2.921   1.004 -0.4469 -0.5527  2.6185
 8267SOL     OW25708   1.611   1.354   4.720 -0.0881  0.0966  0.2685
 8267SOL    HW125709   1.560   1.415   4.666 -1.3257 -0.0329  1.2580
 8267SOL    HW225710   1.654   1.410   4.785 -0.5245  0.0081  0.6347
 8268SOL     OW25711   6.817   1.903   1.958 -0.0695 -0.3712  0.0312
 8268SOL    HW125712   6.849   1.837   1.897  0.0429  0.3600 -0.7078
 8268SOL    HW225713   6.888   1.966   1.965  0.4123 -1.0512  1.8681
 8269SOL     OW25714   1.366   3.713   6.261  0.5419 -0.1358  0.0041
 8269SOL    HW125715   1.435   3.770   6.295  1.2846 -0.4461 -0.9551
 8269SOL    HW225716   1.288   3.769   6.258  0.9102  0.4111  0.4371
 8270SOL     OW25717   4.480   1.721   5.728  0.0143  0.9296 -0.5362
 8270SOL    HW125718   4.409   1.750   5.671  0.3690  0.5295 -1.1903
 8270SOL    HW225719   4.445   1.733   5.817 -0.6608  1.2583 -0.8358
 8271SOL     OW25720   1.007   4.236   2.175 -0.3244 -0.0153 -0.1477
 8271SOL    HW125721   0.926   4.238   2.124  0.0512  2.9789 -0.8359
 8271SOL    HW225722   1.057   4.312   2.143  2.2105 -1.0481  1.1233
 8272SOL     OW25723   4.707   6.519   1.766  0.1918 -0.2191  0.9601
 8272SOL    HW125724   4.743   6.532   1.678 -1.6670  0.8417  0.2873
 8272SOL    HW225725   4.637   6.584   1.773 -0.0791 -0.6491  3.0381
 8273SOL     OW25726   6.028   6.944   7.676  0.3426  0.2540 -0.0038
 8273SOL    HW125727   6.122   6.930   7.670  0.8076  2.0601  1.9526
 8273SOL    HW225728   6.001   6.969   7.588  2.1001  1.7049 -0.1779
 8274SOL     OW25729   0.177   0.099   4.005  0.4647 -0.3628 -0.0929
 8274SOL    HW125730   0.184   0.162   3.934  2.0049  0.0983  0.4341
 8274SOL    HW225731   0.260   0.052   4.003  1.8628  1.6772  3.2373
 8275SOL     OW25732   6.676   2.249   3.151 -0.8119 -0.3676  0.0923
 8275SOL    HW125733   6.668   2.231   3.057  0.8785 -0.9346  0.0307
 8275SOL    HW225734   6.663   2.164   3.193 -0.9485 -0.2238  0.3451
 8276SOL     OW25735   4.925   2.414   6.131  0.5108 -0.2887 -0.4348
 8276SOL    HW125736   4.904   2.342   6.071  0.3703 -0.9739  0.4192
 8276SOL    HW225737   4.843   2.462   6.140  0.2431 -0.8249  0.0524
 8277SOL     OW25738   5.713   4.522   5.990  0.2497  0.1505 -0.0598
 8277SOL    HW125739   5.785   4.538   6.051 -0.7439  0.9594  0.9585
 8277SOL    HW225740   5.647   4.476   6.042  0.1937 -0.9654 -1.0883
 8278SOL     OW25741   6.454   5.035   2.331 -0.0835 -0.4280 -0.1940
 8278SOL    HW125742   6.374   5.003   2.373  0.5070 -1.6598  0.0266
 8278SOL    HW225743   6.474   5.117   2.377 -1.0898 -0.2183 -0.1086
 8279SOL     OW25744   3.969   0.361   1.414 -0.0463  0.0511 -0.2370
 8279SOL    HW125745   4.027   0.409   1.473  0.1575 -0.1734 -0.2522
 8279SOL    HW225746   3.882   0.394   1.434  0.0593  0.2193 -0.0472
 8280SOL     OW25747   5.215   0.963   0.167  0.1808 -0.1711  0.1643
 8280SOL    HW125748   5.131   1.005   0.185 -0.8574 -2.3570  0.8048
 8280SOL    HW225749   5.280   1.026   0.198 -1.2510  1.1064  0.7299
 8281SOL     OW25750   4.272   3.565   5.462 -0.0232 -0.4869  0.1020
 8281SOL    HW125751   4.326   3.553   5.539 -0.2995  0.7018  0.5007
 8281SOL    HW225752   4.244   3.477   5.437  1.7179 -1.0724  0.1395
 8282SOL     OW25753   4.126   5.354   4.265 -0.2283 -0.0506  0.1832
 8282SOL    HW125754   4.128   5.394   4.352 -0.5381 -0.5480  0.4230
 8282SOL    HW225755   4.189   5.404   4.214  0.8325 -0.5086  1.0234
 8283SOL     OW25756   5.152   1.489   0.595 -0.4091 -0.2496  0.4216
 8283SOL    HW125757   5.224   1.469   0.535 -0.4394 -1.1123  0.6630
 8283SOL    HW225758   5.091   1.416   0.584 -1.1265  0.3418  0.4179
 8284SOL     OW25759   7.194   0.449   7.135 -0.2008 -0.2004 -0.1385
 8284SOL    HW125760   7.131   0.399   7.083  0.5272 -1.3429  0.0453
 8284SOL    HW225761   7.142   0.518   7.176 -1.1169 -0.4268 -0.8946
 8285SOL     OW25762   0.434   1.534   1.197  0.4338 -0.2549  0.3963
 8285SOL    HW125763   0.495   1.561   1.266  1.3124  0.1894 -0.5319
 8285SOL    HW225764   0.482   1.549   1.116 -1.0525  0.4461 -0.3851
 8286SOL     OW25765   7.738   4.605   7.617 -0.8377  0.1826  0.1851
 8286SOL    HW125766   7.767   4.644   7.699  2.0520 -1.6960  0.1909
 8286SOL    HW225767   7.770   4.666   7.550 -1.0555  0.4984  0.3656
 8287SOL     OW25768   0.650   3.092   0.515 -0.0663 -0.1207  0.3087
 8287SOL    HW125769   0.685   3.039   0.443  1.0875  0.5171  0.3783
 8287SOL    HW225770   0.589   3.153   0.473  0.2943 -0.0195 -0.0734
 8288SOL     OW25771   4.499   5.826   0.461 -0.2917  0.1643  0.3428
 8288SOL    HW125772   4.480   5.884   0.387  0.2751 -0.1698 -0.0781
 8288SOL    HW225773   4.532   5.746   0.420 -1.5684 -0.6811  0.8748
 8289SOL     OW25774   2.371   0.674   2.467  0.6871 -0.3253 -0.2203
 8289SOL    HW125775   2.359   0.768   2.483  1.3653 -0.2648 -0.0588
 8289SOL    HW225776   2.283   0.643   2.444  0.3680  0.2618  0.1612
 8290SOL     OW25777   6.136   3.120   4.578  0.0401 -1.1347  0.1605
 8290SOL    HW125778   6.177   3.120   4.491 -1.8651 -1.2976 -0.7977
 8290SOL    HW225779   6.049   3.084   4.563 -1.0821  0.7029  1.7820
 8291SOL     OW25780   0.047   1.682   1.354 -0.2835  0.4997  0.3473
 8291SOL    HW125781   0.072   1.628   1.278 -0.5707  1.9347 -0.7966
 8291SOL    HW225782   0.015   1.618   1.418 -0.7150 -0.6901 -0.9908
 8292SOL     OW25783   3.232   1.081   7.404 -0.3353 -0.5148  0.1841
 8292SOL    HW125784   3.260   1.021   7.335  0.1982  1.0926 -1.0604
 8292SOL    HW225785   3.202   1.159   7.357 -0.0348  0.5966  1.7649
 8293SOL     OW25786   6.096   7.177   6.188  0.3375 -0.6973 -0.3792
 8293SOL    HW125787   6.049   7.222   6.258  1.8843 -1.4500  1.2165
 8293SOL    HW225788   6.035   7.176   6.115 -0.5825  2.0019  0.2268
 8294SOL     OW25789   7.210   1.362   4.686 -0.0727 -0.1031  0.1068
 8294SOL    HW125790   7.300   1.337   4.666 -0.1478 -0.3565  0.0902
 8294SOL    HW225791   7.167   1.282   4.714 -0.1485  0.1261  0.6550
 8295SOL     OW25792   1.290   7.120   6.966 -0.1117 -0.2456  0.0630
 8295SOL    HW125793   1.233   7.052   6.931 -0.3914  1.1713 -2.5645
 8295SOL    HW225794   1.379   7.088   6.950 -0.2102 -0.9553  0.9330
 8296SOL     OW25795   1.781   7.217   2.906  0.5535 -0.0425  0.1522
 8296SOL    HW125796   1.849   7.172   2.855  0.9032  0.0027  0.5766
 8296SOL    HW225797   1.823   7.237   2.989  1.2177  3.2586 -0.8548
 8297SOL     OW25798   6.383   5.883   5.110  0.5285 -0.0970  0.1487
 8297SOL    HW125799   6.369   5.887   5.015  2.0104  1.2776 -0.0589
 8297SOL    HW225800   6.389   5.789   5.130  0.7546 -0.3827 -1.1963
 8298SOL     OW25801   6.293   7.257   2.519 -0.5621  0.2232 -0.2992
 8298SOL    HW125802   6.352   7.190   2.485  0.0015  0.1833  0.7107
 8298SOL    HW225803   6.235   7.211   2.579 -1.7492  0.2371 -1.3902
 8299SOL     OW25804   3.976   2.411   5.174  0.1011 -0.0435  0.2344
 8299SOL    HW125805   4.045   2.401   5.109  1.3772 -0.2133  1.5686
 8299SOL    HW225806   3.968   2.506   5.186 -1.8840  0.1503 -1.9033
 8300SOL     OW25807   6.612   3.192   6.897  0.2069  0.0431  0.0202
 8300SOL    HW125808   6.585   3.113   6.850  0.0939 -0.7151  1.3293
 8300SOL    HW225809   6.697   3.170   6.935  1.0864  1.2165 -1.1531
 8301SOL     OW25810   4.502   2.545   7.517  0.0977  0.4646 -0.2049
 8301SOL    HW125811   4.564   2.575   7.584  0.6739  0.7729 -0.8597
 8301SOL    HW225812   4.550   2.555   7.435  0.2136 -1.9458 -0.5013
 8302SOL     OW25813   4.506   1.212   7.077 -0.5256 -0.0635 -0.1542
 8302SOL    HW125814   4.462   1.260   7.007  0.7603  0.5268 -0.5901
 8302SOL    HW225815   4.597   1.205   7.047 -0.8715 -4.0185 -0.8140
 8303SOL     OW25816   2.924   0.979   2.591 -0.4722 -0.3833  0.3754
 8303SOL    HW125817   2.994   0.914   2.593  0.1848  0.3174  0.6075
 8303SOL    HW225818   2.900   0.992   2.683  0.3999  0.7503  0.4549
 8304SOL     OW25819   4.361   3.531   3.282  0.3339 -0.2642 -0.3064
 8304SOL    HW125820   4.329   3.491   3.201 -0.2006 -0.1293 -0.1675
 8304SOL    HW225821   4.282   3.558   3.328  0.4442 -2.5043  1.3861
 8305SOL     OW25822   7.214   1.437   0.720  0.2772  0.1076  0.0373
 8305SOL    HW125823   7.204   1.343   0.737 -2.5240  0.5972  1.6492
 8305SOL    HW225824   7.128   1.465   0.689  0.7276  2.3404  0.6324
 8306SOL     OW25825   0.340   7.324   7.465  0.2649  0.1707  0.5780
 8306SOL    HW125826   0.420   7.298   7.418 -0.3061 -0.3348 -0.1302
 8306SOL    HW225827   0.292   7.378   7.403 -0.1854  0.0551  0.8238
 8307SOL     OW25828   2.489   2.413   0.299 -0.1378 -0.6383 -0.7160
 8307SOL    HW125829   2.528   2.335   0.338  1.9784  0.9876  0.6902
 8307SOL    HW225830   2.422   2.440   0.361  1.0183  0.1348  0.2512
 8308SOL     OW25831   5.538   1.883   5.685 -0.3842  0.0571  0.1000
 8308SOL    HW125832   5.617   1.887   5.631  0.9438  1.7025  2.0180
 8308SOL    HW225833   5.508   1.792   5.677  1.5473 -0.5477 -0.8809
 8309SOL     OW25834   4.545   2.141   5.050 -0.1756 -0.1449  0.3224
 8309SOL    HW125835   4.456   2.140   5.016  0.1764  2.2672 -0.8623
 8309SOL    HW225836   4.538   2.188   5.134  0.1161  1.1562 -0.3578
 8310SOL     OW25837   3.810   3.259   5.705  0.0227  0.2418 -0.1250
 8310SOL    HW125838   3.747   3.217   5.646  0.9568  0.2859 -1.1977
 8310SOL    HW225839   3.858   3.320   5.650  1.3964 -0.2078  0.5045
 8311SOL     OW25840   5.636   5.290   6.040  0.2049 -0.3220  0.0142
 8311SOL    HW125841   5.588   5.227   6.094  2.7705 -2.9293 -0.5337
 8311SOL    HW225842   5.707   5.320   6.096 -0.3437  1.3276 -0.1180
 8312SOL     OW25843   7.433   0.335   2.508  0.1148  0.2673  0.4495
 8312SOL    HW125844   7.364   0.325   2.573 -0.9035 -2.1206 -0.8897
 8312SOL    HW225845   7.397   0.397   2.444 -0.4304 -0.2566  0.2391
 8313SOL     OW25846   6.839   1.368   4.860  0.1855 -0.1055  0.4643
 8313SOL    HW125847   6.747   1.373   4.836  0.1948 -1.2434  0.1436
 8313SOL    HW225848   6.856   1.450   4.906 -1.5572 -0.8057  2.5188
 8314SOL     OW25849   6.501   2.761   4.554  0.0041  0.4494 -0.1748
 8314SOL    HW125850   6.550   2.679   4.549  0.6761  0.8590 -0.3316
 8314SOL    HW225851   6.528   2.811   4.477  0.6030  1.3704  0.6137
 8315SOL     OW25852   4.492   6.076   0.884 -0.0938  0.3746  0.8915
 8315SOL    HW125853   4.525   6.069   0.794  1.0191 -1.0234  1.3709
 8315SOL    HW225854   4.538   6.151   0.921  2.1946 -1.1565  1.3411
 8316SOL     OW25855   3.714   3.016   1.385  0.1305  0.1984 -0.2124
 8316SOL    HW125856   3.684   3.014   1.476 -0.0702  0.4878 -0.2674
 8316SOL    HW225857   3.809   3.018   1.391  0.2992 -2.9847 -0.0564
 8317SOL     OW25858   0.756   7.471   4.732  0.3853 -0.1031  0.1835
 8317SOL    HW125859   0.755   7.471   4.827 -0.7502 -2.0122  0.2309
 8317SOL    HW225860   0.757   7.378   4.708 -0.2813  0.3175 -1.6424
 8318SOL     OW25861   3.685   3.017   2.298  0.5026  0.1528  0.0700
 8318SOL    HW125862   3.694   2.984   2.387 -2.2277  1.9373  1.1212
 8318SOL    HW225863   3.608   2.972   2.263 -0.4544  1.8824 -0.1409
 8319SOL     OW25864   0.655   5.528   1.861 -0.2093  0.1079 -0.0770
 8319SOL    HW125865   0.619   5.592   1.799 -1.2365 -2.0427 -1.8677
 8319SOL    HW225866   0.579   5.494   1.908  0.3321  0.2672  0.9430
 8320SOL     OW25867   1.960   1.069   1.909 -0.1031  0.7037  0.2076
 8320SOL    HW125868   2.034   1.051   1.966 -0.2791  0.4876  0.3689
 8320SOL    HW225869   1.999   1.097   1.826  0.1669  0.0806  0.1172
 8321SOL     OW25870   0.885   7.208   0.107  0.2748 -0.1054 -0.5155
 8321SOL    HW125871   0.869   7.130   0.162 -1.2600  0.6048  0.1028
 8321SOL    HW225872   0.980   7.219   0.110  0.4363 -1.3736  0.2082
 8322SOL     OW25873   4.274   4.880   1.714  0.5775 -0.3471 -0.2926
 8322SOL    HW125874   4.213   4.825   1.764 -0.1974  1.0219  0.3153
 8322SOL    HW225875   4.311   4.940   1.778  1.4033 -0.1292 -0.9474
 8323SOL     OW25876   2.853   1.285   7.375 -0.5814 -0.0298  0.0193
 8323SOL    HW125877   2.792   1.219   7.342 -1.4001  0.8945 -0.3688
 8323SOL    HW225878   2.873   1.340   7.299 -1.0293  1.0060  0.6188
 8324SOL     OW25879   4.229   5.541   7.356 -0.3038  0.1314 -0.5755
 8324SOL    HW125880   4.157   5.509   7.411 -0.3196  0.4178 -0.4330
 8324SOL    HW225881   4.204   5.512   7.268  0.9757 -2.6359 -0.1498
 8325SOL     OW25882   4.132   6.032   5.113 -0.8108 -0.1496 -0.3666
 8325SOL    HW125883   4.218   6.074   5.112 -0.9239  0.0799 -0.8493
 8325SOL    HW225884   4.120   5.999   5.024 -1.2007 -0.2218 -0.2905
 8326SOL     OW25885   3.436   2.967   2.781  0.3359  0.7411  0.6870
 8326SOL    HW125886   3.383   3.042   2.805 -0.2548  0.8788 -0.9268
 8326SOL    HW225887   3.483   2.995   2.702 -0.1941 -0.6701 -0.1762
 8327SOL     OW25888   5.563   4.239   1.024 -0.3372  0.3106  0.0411
 8327SOL    HW125889   5.600   4.314   0.977  0.3888 -1.3415 -2.2002
 8327SOL    HW225890   5.620   4.166   1.002 -3.3156 -1.8213 -1.3900
 8328SOL     OW25891   4.953   4.059   1.396  0.5405  0.7044  0.3512
 8328SOL    HW125892   5.011   4.126   1.361  1.0939  1.2107  2.1061
 8328SOL    HW225893   5.011   3.987   1.420  0.0621 -0.0240 -0.6122
 8329SOL     OW25894   3.398   6.206   6.566 -0.2089 -0.9334 -0.0593
 8329SOL    HW125895   3.412   6.199   6.472 -1.0654 -0.5095 -0.2202
 8329SOL    HW225896   3.326   6.268   6.576  0.6001 -0.1203  0.9282
 8330SOL     OW25897   3.112   5.772   1.152  0.0842 -0.5340 -0.4986
 8330SOL    HW125898   3.055   5.806   1.084 -0.3922  0.4384  0.3636
 8330SOL    HW225899   3.175   5.843   1.168  0.5313 -0.9679 -0.3152
 8331SOL     OW25900   4.250   5.217   2.079 -0.1838  0.3212  0.1977
 8331SOL    HW125901   4.218   5.130   2.100  0.7303  0.1206  0.8092
 8331SOL    HW225902   4.180   5.256   2.026  0.1472 -1.4212 -1.6274
 8332SOL     OW25903   0.824   4.052   1.899  0.1686 -0.3780 -0.1090
 8332SOL    HW125904   0.795   4.142   1.882  0.8726  0.4003  2.4210
 8332SOL    HW225905   0.893   4.038   1.834  0.1792  0.9793 -0.4368
 8333SOL     OW25906   3.435   2.585   7.734  0.2045 -0.0113  0.3492
 8333SOL    HW125907   3.351   2.583   7.780 -0.8677  1.7987 -1.3592
 8333SOL    HW225908   3.416   2.628   7.651  2.5605 -0.8672 -0.7255
 8334SOL     OW25909   5.414   7.640   6.630 -0.8107 -0.0642  0.2090
 8334SOL    HW125910   5.391   7.556   6.590  0.2521  0.0554 -0.7222
 8334SOL    HW225911   5.390   7.705   6.564  2.2092  0.0466 -0.9337
 8335SOL     OW25912   4.079   4.271   6.971 -0.2332 -0.1584  0.1302
 8335SOL    HW125913   4.095   4.348   6.917 -0.4104 -0.3518 -0.2046
 8335SOL    HW225914   4.056   4.202   6.909  0.7221 -0.7023  0.3628
 8336SOL     OW25915   5.107   2.276   5.204 -0.1604 -0.0378 -0.5345
 8336SOL    HW125916   5.163   2.298   5.278 -0.8009 -1.5859  0.4583
 8336SOL    HW225917   5.138   2.190   5.175 -0.7361 -0.0153 -1.2408
 8337SOL     OW25918   6.142   7.136   0.328  0.2997  0.6044  0.2816
 8337SOL    HW125919   6.115   7.180   0.408  1.0867  2.8363 -0.6001
 8337SOL    HW225920   6.066   7.143   0.270  0.6746  1.5285 -0.1182
 8338SOL     OW25921   7.503   3.967   6.423  0.2604  0.1704 -0.1912
 8338SOL    HW125922   7.584   3.943   6.377 -0.1096 -2.6580  0.4666
 8338SOL    HW225923   7.522   3.950   6.515 -0.3541  1.8014  0.2625
 8339SOL     OW25924   4.076   5.990   1.143  0.3068  0.4363  0.5080
 8339SOL    HW125925   4.018   6.005   1.069 -0.2963  0.7530  1.0289
 8339SOL    HW225926   4.160   6.027   1.116  0.1683  0.2958 -0.1227
 8340SOL     OW25927   5.897   7.275   4.002  0.0321  0.2295  0.1066
 8340SOL    HW125928   5.876   7.257   4.093 -2.1628  0.8181 -0.2185
 8340SOL    HW225929   5.982   7.319   4.005  0.8569 -1.3596  1.6767
 8341SOL     OW25930   0.518   5.183   6.365  0.1223  0.0530 -0.8192
 8341SOL    HW125931   0.612   5.201   6.366  0.2328 -0.4754 -0.8626
 8341SOL    HW225932   0.476   5.269   6.366  0.5943  0.2910  0.5216
 8342SOL     OW25933   4.613   6.399   7.414  0.3442 -0.3472  0.6343
 8342SOL    HW125934   4.617   6.308   7.444 -0.4906 -0.4294  0.4995
 8342SOL    HW225935   4.564   6.445   7.482 -1.1856 -0.4510 -0.3616
 8343SOL     OW25936   7.117   5.004   3.167 -0.1438  0.6462  0.0664
 8343SOL    HW125937   7.034   5.050   3.152 -1.4608 -0.5086  2.9163
 8343SOL    HW225938   7.154   5.046   3.244 -0.5613 -1.7953  1.7399
 8344SOL     OW25939   7.154   3.692   0.058  0.0999 -0.2382  0.1980
 8344SOL    HW125940   7.174   3.617   0.113  1.5725 -0.4800 -0.6094
 8344SOL    HW225941   7.240   3.730   0.037 -0.3848 -0.1583 -1.9038
 8345SOL     OW25942   2.317   4.511   5.656 -0.4751  0.5519 -0.3671
 8345SOL    HW125943   2.224   4.492   5.674  0.2745 -2.5354  0.9379
 8345SOL    HW225944   2.362   4.488   5.737  1.7030 -0.9369 -1.8846
 8346SOL     OW25945   3.456   6.580   7.614 -0.3000 -0.1214 -0.0467
 8346SOL    HW125946   3.536   6.529   7.622 -0.3907 -0.4573 -1.1353
 8346SOL    HW225947   3.387   6.523   7.648 -0.4519 -0.8919 -1.5753
 8347SOL     OW25948   4.584   4.657   2.778 -0.2013 -0.1991  0.0957
 8347SOL    HW125949   4.567   4.686   2.867  1.1605  0.1801  0.2495
 8347SOL    HW225950   4.665   4.701   2.753  0.8546 -2.2746 -0.3904
 8348SOL     OW25951   2.017   0.491   6.129  0.2478  0.3208  0.2809
 8348SOL    HW125952   2.097   0.505   6.078 -1.2356  0.7133 -2.0474
 8348SOL    HW225953   1.956   0.558   6.098 -1.2765 -0.4843  1.4044
 8349SOL     OW25954   7.699   6.925   2.072 -0.6894 -0.1231  0.1494
 8349SOL    HW125955   7.749   6.869   2.132 -0.0187 -0.1832 -0.4523
 8349SOL    HW225956   7.766   6.976   2.026 -1.2143  0.1214 -0.3456
 8350SOL     OW25957   6.006   7.163   1.212 -0.2313  0.4619  0.5272
 8350SOL    HW125958   5.994   7.251   1.247 -0.4679  0.1301  1.3171
 8350SOL    HW225959   6.024   7.176   1.119 -0.3122  1.3378  0.6241
 8351SOL     OW25960   1.358   5.731   0.305 -0.2646  0.1977 -0.1567
 8351SOL    HW125961   1.340   5.684   0.223  2.4573 -0.5143 -0.4282
 8351SOL    HW225962   1.291   5.700   0.365 -1.1408 -0.7684 -1.5593
 8352SOL     OW25963   7.480   4.275   2.078 -0.6654 -0.0655  0.3160
 8352SOL    HW125964   7.390   4.284   2.048 -0.2917  0.0456 -0.8293
 8352SOL    HW225965   7.474   4.226   2.160 -1.8362  0.8742  0.8108
 8353SOL     OW25966   6.393   6.275   7.522 -0.0484  0.5207 -0.4115
 8353SOL    HW125967   6.311   6.324   7.511 -0.4188 -0.3446 -1.6791
 8353SOL    HW225968   6.379   6.222   7.600  0.2367  2.1343  0.7994
 8354SOL     OW25969   6.770   2.810   2.586 -0.2219  0.4121 -0.0930
 8354SOL    HW125970   6.747   2.901   2.566  1.3738  0.8788  0.0618
 8354SOL    HW225971   6.757   2.802   2.680 -0.5280  0.4289 -0.1333
 8355SOL     OW25972   5.522   5.874   3.447  0.2488 -0.3474 -0.1235
 8355SOL    HW125973   5.616   5.877   3.427  0.2845  1.4145  0.1643
 8355SOL    HW225974   5.516   5.903   3.538 -0.6250  0.0873 -0.3123
 8356SOL     OW25975   3.026   1.828   4.111 -0.1650 -0.0459  0.1301
 8356SOL    HW125976   2.940   1.788   4.123 -1.0370  0.9543 -2.1935
 8356SOL    HW225977   3.076   1.764   4.061 -0.0111 -0.1145  0.3747
 8357SOL     OW25978   5.718   4.958   4.129  0.8284 -0.6169  0.3844
 8357SOL    HW125979   5.648   4.963   4.064  0.9704 -1.7949  0.1266
 8357SOL    HW225980   5.738   5.049   4.149 -0.4758 -0.2535  0.1423
 8358SOL     OW25981   0.193   5.913   3.440 -0.6609 -0.5843 -0.1354
 8358SOL    HW125982   0.116   5.938   3.388 -0.7167  1.4861  0.8609
 8358SOL    HW225983   0.216   5.992   3.488  1.8033 -1.3193 -0.0019
 8359SOL     OW25984   3.716   1.866   1.353  0.4867  0.1037  0.4944
 8359SOL    HW125985   3.649   1.926   1.383 -0.1458 -0.7626  0.8586
 8359SOL    HW225986   3.796   1.918   1.351 -0.1052  1.0381  0.4620
 8360SOL     OW25987   4.997   0.717   6.951 -0.6463 -0.0161 -0.2292
 8360SOL    HW125988   4.972   0.809   6.940  2.1913  0.6958 -1.3618
 8360SOL    HW225989   5.037   0.714   7.038 -0.2516 -0.0485 -0.4106
 8361SOL     OW25990   3.460   2.419   4.706 -0.1211 -0.5107  0.2891
 8361SOL    HW125991   3.433   2.341   4.754 -2.3572 -2.7282 -3.9812
 8361SOL    HW225992   3.386   2.479   4.716 -0.8092 -1.1687 -0.6569
 8362SOL     OW25993   3.225   5.473   5.583  0.0948 -0.5800 -0.3583
 8362SOL    HW125994   3.273   5.517   5.513 -1.9683  0.6450 -1.0913
 8362SOL    HW225995   3.166   5.412   5.538  0.1380 -1.2460  0.4503
 8363SOL     OW25996   1.057   6.568   0.475 -0.4487 -0.3462  0.1865
 8363SOL    HW125997   1.123   6.541   0.411  0.0045 -0.8567  0.8473
 8363SOL    HW225998   0.978   6.520   0.450 -0.8848  1.0433 -1.2183
 8364SOL     OW25999   1.121   1.759   5.998 -0.1108 -1.1793 -0.4627
 8364SOL    HW126000   1.086   1.834   6.046  0.4803  0.7503 -2.8480
 8364SOL    HW226001   1.204   1.739   6.041 -0.6604 -1.0382  0.7006
 8365SOL     OW26002   4.453   3.140   0.923 -0.1060 -0.6194  0.4947
 8365SOL    HW126003   4.540   3.106   0.903  0.8216  0.8996  1.7223
 8365SOL    HW226004   4.448   3.223   0.877 -0.8449 -0.6041  0.5852
 8366SOL     OW26005   2.878   0.151   6.059 -0.4009  0.5652 -0.1550
 8366SOL    HW126006   2.973   0.154   6.052 -0.5057  1.2191 -1.4495
 8366SOL    HW226007   2.849   0.236   6.029 -1.3988  0.4877  0.5298
 8367SOL     OW26008   5.498   6.370   1.768 -0.2072 -0.6167  0.3236
 8367SOL    HW126009   5.436   6.358   1.697  0.3363 -2.2774  0.0727
 8367SOL    HW226010   5.448   6.351   1.848 -0.4351 -0.2984  0.2545
 8368SOL     OW26011   1.367   7.353   6.484 -0.3485  0.2375  0.4396
 8368SOL    HW126012   1.387   7.320   6.571  3.0074 -0.1323 -0.3392
 8368SOL    HW226013   1.373   7.276   6.427 -2.3614  0.4920 -0.2192
 8369SOL     OW26014   4.590   7.430   4.288  0.4371 -0.3165  0.5934
 8369SOL    HW126015   4.513   7.416   4.343  0.4215 -1.1579  0.3689
 8369SOL    HW226016   4.654   7.471   4.347 -0.2261  0.5485  0.7375
 8370SOL     OW26017   5.064   4.098   2.943  0.2339 -0.7104  0.4253
 8370SOL    HW126018   4.977   4.072   2.973 -0.7561  0.8306 -0.9545
 8370SOL    HW226019   5.112   4.015   2.937 -1.1341 -1.6018  1.1804
 8371SOL     OW26020   2.317   4.990   0.686 -0.3805  0.4153  0.8539
 8371SOL    HW126021   2.232   4.975   0.728 -0.7002 -1.3035 -0.3001
 8371SOL    HW226022   2.378   4.935   0.735  0.0715  1.5644  1.6120
 8372SOL     OW26023   0.769   0.619   1.364 -0.3825 -0.1140 -0.0199
 8372SOL    HW126024   0.823   0.633   1.286  1.6512 -0.2171  1.2950
 8372SOL    HW226025   0.790   0.692   1.421 -0.0622 -1.2463  1.3529
 8373SOL     OW26026   4.044   2.751   3.250  0.1262  0.4930  0.5502
 8373SOL    HW126027   4.103   2.739   3.176  0.2057 -1.5697  0.8851
 8373SOL    HW226028   4.050   2.844   3.271  1.7254  0.7120 -0.6769
 8374SOL     OW26029   5.255   2.231   7.296 -0.5999  0.0891  0.1837
 8374SOL    HW126030   5.246   2.312   7.246 -1.4556 -0.8484 -1.2338
 8374SOL    HW226031   5.275   2.260   7.385 -1.1385  1.8621 -0.2370
 8375SOL     OW26032   6.315   4.868   0.798  0.1340  0.2909  0.1234
 8375SOL    HW126033   6.254   4.828   0.860  1.0164 -0.8549  0.2725
 8375SOL    HW226034   6.326   4.958   0.830  0.1619 -0.1273  1.3112
 8376SOL     OW26035   2.370   2.320   3.661  0.6391  0.6716  0.5902
 8376SOL    HW126036   2.449   2.291   3.708  0.8234  0.7943  0.3595
 8376SOL    HW226037   2.302   2.322   3.728  0.8474  0.6263  0.8064
 8377SOL     OW26038   1.590   7.119   7.373  0.3277  0.1015 -0.3797
 8377SOL    HW126039   1.674   7.156   7.345 -0.0084  0.5173 -0.8657
 8377SOL    HW226040   1.569   7.053   7.306  0.8623 -0.9011  0.4144
 8378SOL     OW26041   2.804   0.434   1.831  0.5854 -0.5211  0.0344
 8378SOL    HW126042   2.893   0.458   1.807  1.3670 -0.5191  2.6378
 8378SOL    HW226043   2.784   0.357   1.777  1.9634 -0.2525 -0.9077
 8379SOL     OW26044   0.244   0.524   1.995  0.1395 -0.5982  0.1263
 8379SOL    HW126045   0.287   0.469   1.929  0.2303 -0.1046 -0.2271
 8379SOL    HW226046   0.180   0.466   2.036  1.2632 -1.4145  0.8027
 8380SOL     OW26047   0.555   1.130   2.410  0.5312 -0.0288  0.9172
 8380SOL    HW126048   0.506   1.115   2.329 -0.2198  0.5550  1.2549
 8380SOL    HW226049   0.556   1.045   2.454  0.7269 -0.2884  0.4181
 8381SOL     OW26050   3.359   0.306   0.419  1.1014  0.0990 -0.4003
 8381SOL    HW126051   3.341   0.363   0.344 -0.7251 -1.4817 -1.2517
 8381SOL    HW226052   3.454   0.304   0.425  1.2410  2.1933 -1.1145
 8382SOL     OW26053   2.655   0.219   1.732  0.0184  0.2893  0.1819
 8382SOL    HW126054   2.653   0.160   1.807 -1.2714 -1.9073 -1.4743
 8382SOL    HW226055   2.569   0.262   1.733 -0.2296 -0.1814 -0.3348
 8383SOL     OW26056   0.811   7.413   2.824  0.5535 -0.8046  0.1477
 8383SOL    HW126057   0.806   7.332   2.875 -0.1365 -2.1732 -1.9605
 8383SOL    HW226058   0.726   7.454   2.838  0.5139 -0.9645  0.4029
 8384SOL     OW26059   6.004   4.357   3.099  0.0908 -0.0132  0.1597
 8384SOL    HW126060   6.061   4.373   3.175  0.5480  1.4484 -0.4580
 8384SOL    HW226061   5.937   4.296   3.132  1.2156 -0.7127  1.2708
 8385SOL     OW26062   3.646   1.196   2.850 -0.1161  0.0779 -0.0696
 8385SOL    HW126063   3.718   1.243   2.808 -0.1722  0.2829  0.0637
 8385SOL    HW226064   3.669   1.103   2.840 -0.3195  0.1080 -0.8918
 8386SOL     OW26065   2.887   2.598   5.994 -0.4162  0.1559  0.1314
 8386SOL    HW126066   2.919   2.508   6.004  0.2954  0.5907  2.2128
 8386SOL    HW226067   2.963   2.653   6.011 -0.7562  1.1870 -1.4738
 8387SOL     OW26068   1.048   5.523   5.121  0.2846 -0.1648 -0.3042
 8387SOL    HW126069   1.130   5.543   5.077  1.5976  2.9484  3.0142
 8387SOL    HW226070   1.024   5.604   5.166 -3.6312 -1.5144  0.4737
 8388SOL     OW26071   4.402   6.963   7.614  0.6069  0.3591 -0.1895
 8388SOL    HW126072   4.438   6.944   7.701 -1.8596  2.6229  1.5113
 8388SOL    HW226073   4.414   7.058   7.604  0.7624  0.1569 -2.3474
 8389SOL     OW26074   0.308   6.943   7.271  0.0633 -0.4531  0.0037
 8389SOL    HW126075   0.229   6.968   7.320  0.3902  0.4187  0.0936
 8389SOL    HW226076   0.280   6.942   7.179  0.4132  1.8079 -0.1637
 8390SOL     OW26077   4.012   6.189   7.021  0.3349  0.4581 -0.0847
 8390SOL    HW126078   3.939   6.148   7.067  0.1588 -0.6045 -1.2855
 8390SOL    HW226079   4.087   6.131   7.037  0.1033 -0.3393 -1.7117
 8391SOL     OW26080   2.333   6.094   5.290  0.0680  0.0452 -0.4538
 8391SOL    HW126081   2.252   6.144   5.282  0.6661  1.2039  0.4149
 8391SOL    HW226082   2.394   6.154   5.333  1.4753 -0.7041 -1.3228
 8392SOL     OW26083   3.239   1.106   0.324 -0.1888  0.4302 -0.1445
 8392SOL    HW126084   3.332   1.083   0.325 -0.3818 -0.4401  1.7847
 8392SOL    HW226085   3.196   1.035   0.372 -1.9284  0.6013 -1.3531
 8393SOL     OW26086   6.848   4.774   4.117 -0.3588  0.1664 -0.1383
 8393SOL    HW126087   6.902   4.695   4.111 -1.0101 -0.5645  2.4826
 8393SOL    HW226088   6.760   4.745   4.093 -0.6167  0.0235  0.9135
 8394SOL     OW26089   5.171   1.087   6.068 -0.5218 -0.7889 -0.1596
 8394SOL    HW126090   5.081   1.120   6.076 -0.1032  0.2637  0.4241
 8394SOL    HW226091   5.161   0.993   6.055 -1.7251 -0.6264 -0.5375
 8395SOL     OW26092   3.317   4.620   6.978  0.1431 -0.1332 -0.4976
 8395SOL    HW126093   3.251   4.550   6.973 -0.0874  0.1285 -1.1674
 8395SOL    HW226094   3.320   4.644   7.070  0.0743 -0.8866 -0.2931
 8396SOL     OW26095   6.225   3.612   3.308  0.3598 -0.2390  0.2954
 8396SOL    HW126096   6.206   3.652   3.393 -0.8251 -1.3960  0.5917
 8396SOL    HW226097   6.158   3.546   3.296 -0.0144  0.4479 -1.9395
 8397SOL     OW26098   2.354   1.020   7.738  0.2439 -0.1115  0.0160
 8397SOL    HW126099   2.413   0.946   7.721  1.9873  1.1397  0.3120
 8397SOL    HW226100   2.363   1.036   7.832  0.7995  1.1790 -0.2378
 8398SOL     OW26101   2.652   0.600   7.293  0.0707 -0.5645 -0.0551
 8398SOL    HW126102   2.570   0.584   7.341  0.8240 -0.6050  1.2733
 8398SOL    HW226103   2.695   0.515   7.290 -0.4711 -0.8185 -1.8640
 8399SOL     OW26104   5.476   6.111   6.501 -0.1358 -0.1742  0.3774
 8399SOL    HW126105   5.554   6.157   6.531  0.1163  0.3684 -1.0286
 8399SOL    HW226106   5.418   6.110   6.577  0.4911  1.0607  0.9084
 8400SOL     OW26107   1.978   7.093   4.549  0.6196  0.2850 -0.3785
 8400SOL    HW126108   1.989   7.185   4.574 -0.9660  0.8367 -1.5910
 8400SOL    HW226109   1.885   7.075   4.560  0.7030 -0.8305 -1.2417
 8401SOL     OW26110   3.141   2.592   6.520 -0.4288 -0.3470  0.0261
 8401SOL    HW126111   3.070   2.614   6.580 -0.2199 -1.0261  0.5357
 8401SOL    HW226112   3.103   2.526   6.462  0.0261 -1.3466  0.8435
 8402SOL     OW26113   2.481   1.266   7.530 -0.3750 -0.5036  0.4446
 8402SOL    HW126114   2.534   1.315   7.593  0.5605 -1.4439  0.4241
 8402SOL    HW226115   2.516   1.177   7.534 -2.6888 -1.4352  1.2207
 8403SOL     OW26116   3.257   3.315   2.065 -0.6647  0.0307 -0.2602
 8403SOL    HW126117   3.319   3.257   2.022 -1.5184 -0.3164 -1.0522
 8403SOL    HW226118   3.195   3.256   2.108 -1.1634  0.3637 -0.5247
 8404SOL     OW26119   3.960   3.109   2.846 -0.6002  0.1358  0.2062
 8404SOL    HW126120   3.983   3.201   2.837 -0.1752  0.0271  0.1634
 8404SOL    HW226121   3.944   3.097   2.940 -0.9548  0.3188  0.1722
 8405SOL     OW26122   6.339   1.738   0.482  0.1526 -0.3350 -0.0407
 8405SOL    HW126123   6.327   1.785   0.564  0.9600  2.8737 -1.5886
 8405SOL    HW226124   6.255   1.744   0.437  0.1333 -0.8006 -0.0761
 8406SOL     OW26125   5.171   1.325   5.518  0.0340  0.2855  0.1316
 8406SOL    HW126126   5.148   1.403   5.568  1.2445  0.2987  0.7019
 8406SOL    HW226127   5.232   1.277   5.574  0.4163 -0.3529 -0.8013
 8407SOL     OW26128   6.693   6.190   2.024  0.3090  0.1074 -0.1788
 8407SOL    HW126129   6.775   6.143   2.012  0.8776  1.0560 -0.1564
 8407SOL    HW226130   6.627   6.136   1.982  0.7283 -1.3106  0.9073
 8408SOL     OW26131   3.026   1.184   2.365  0.1669 -0.5652 -0.1593
 8408SOL    HW126132   2.992   1.104   2.405  1.3928 -0.5188  1.0530
 8408SOL    HW226133   3.017   1.251   2.432  2.0906 -0.4409  0.0501
 8409SOL     OW26134   6.814   1.359   2.430 -0.8309  0.0756 -0.3934
 8409SOL    HW126135   6.841   1.450   2.421  1.1187 -0.3603  0.3521
 8409SOL    HW226136   6.780   1.334   2.344 -0.3254  1.1876 -0.9280
 8410SOL     OW26137   3.098   1.091   3.625  0.1862 -0.1331  0.1460
 8410SOL    HW126138   3.068   1.078   3.535  0.4994 -1.6709  0.2401
 8410SOL    HW226139   3.022   1.066   3.679  0.5813 -0.9686  0.3281
 8411SOL     OW26140   7.380   3.177   4.816  0.4616 -0.0316 -0.5560
 8411SOL    HW126141   7.419   3.157   4.731 -0.0874 -0.6655 -0.6757
 8411SOL    HW226142   7.344   3.265   4.806  0.1233 -0.2192 -1.0991
 8412SOL     OW26143   3.007   3.877   3.960  0.2579 -0.6065  0.3672
 8412SOL    HW126144   3.046   3.882   4.048 -0.4679 -1.1515  0.7316
 8412SOL    HW226145   3.082   3.878   3.901  0.7948 -0.9864  1.0217
 8413SOL     OW26146   5.144   6.703   2.421 -0.3585 -0.0789 -0.0149
 8413SOL    HW126147   5.086   6.666   2.355 -1.2159  0.8211  0.2040
 8413SOL    HW226148   5.112   6.668   2.504 -0.4722  0.2489  0.0844
 8414SOL     OW26149   0.524   5.310   0.582  0.0837 -1.4037  0.2886
 8414SOL    HW126150   0.473   5.304   0.663 -1.4975 -0.6238 -0.6049
 8414SOL    HW226151   0.471   5.264   0.517 -0.6074  1.2378 -1.1641
 8415SOL     OW26152   7.297   4.867   6.528 -0.4176  0.1448  0.0707
 8415SOL    HW126153   7.292   4.791   6.586  2.2487 -1.0418 -1.0930
 8415SOL    HW226154   7.315   4.830   6.442  1.2497  2.0839 -0.4883
 8416SOL     OW26155   5.545   0.291   6.446 -0.2591 -0.4603 -0.1186
 8416SOL    HW126156   5.479   0.234   6.485 -1.5774 -0.1925 -1.7863
 8416SOL    HW226157   5.507   0.379   6.453  0.2095 -0.2214 -0.5222
 8417SOL     OW26158   3.869   5.780   4.876  0.3156 -0.0758  0.2528
 8417SOL    HW126159   3.796   5.833   4.907  0.2595 -0.5053  0.8677
 8417SOL    HW226160   3.828   5.709   4.828  0.3597  0.0014  0.0986
 8418SOL     OW26161   2.928   5.360   7.192  0.0300 -0.0105 -0.1829
 8418SOL    HW126162   2.983   5.409   7.131  0.5406 -1.0414 -0.5887
 8418SOL    HW226163   2.854   5.417   7.211 -0.2573  0.2476 -1.9557
 8419SOL     OW26164   0.328   3.590   6.075 -0.4652 -0.1382  0.4912
 8419SOL    HW126165   0.396   3.526   6.095  0.0169 -0.8691 -2.9327
 8419SOL    HW226166   0.246   3.547   6.097 -0.0289 -0.9515  0.5465
 8420SOL     OW26167   1.474   6.464   3.514 -0.1138 -0.2073 -0.0409
 8420SOL    HW126168   1.515   6.520   3.580 -0.5660  2.0557 -1.5592
 8420SOL    HW226169   1.529   6.475   3.436 -0.3376 -1.7767 -0.4675
 8421SOL     OW26170   7.446   4.527   1.917  0.8674  0.7562  0.1867
 8421SOL    HW126171   7.364   4.504   1.961  0.7842  0.9003  0.1052
 8421SOL    HW226172   7.483   4.597   1.970 -0.1944  2.3113 -1.0412
 8422SOL     OW26173   1.134   7.492   2.181 -0.5517 -0.2195 -0.0546
 8422SOL    HW126174   1.120   7.521   2.271 -0.9121 -0.4048 -0.0512
 8422SOL    HW226175   1.162   7.571   2.135 -1.1297  0.0517  0.0466
 8423SOL     OW26176   6.604   5.344   0.795  0.1098 -0.4192 -0.0502
 8423SOL    HW126177   6.535   5.410   0.802  1.8003  1.5395 -1.0064
 8423SOL    HW226178   6.671   5.372   0.857  0.7571 -1.3918 -0.2855
 8424SOL     OW26179   0.901   7.386   6.693 -0.3994 -0.7636 -0.2396
 8424SOL    HW126180   0.958   7.460   6.670  1.2017 -1.3836  1.4508
 8424SOL    HW226181   0.829   7.426   6.742  0.0396 -0.2387 -0.0056
 8425SOL     OW26182   5.549   2.970   1.013  0.1341  0.4956 -0.1449
 8425SOL    HW126183   5.508   2.890   0.980  1.2670 -1.1493  2.1875
 8425SOL    HW226184   5.492   2.998   1.085  1.0033  0.4031  0.5957
 8426SOL     OW26185   7.346   6.233   6.440  0.3168 -0.2595  0.4714
 8426SOL    HW126186   7.299   6.189   6.511  0.3881  0.1853  0.8003
 8426SOL    HW226187   7.430   6.187   6.436 -0.4776 -1.7026 -0.7663
 8427SOL     OW26188   3.179   3.438   3.841 -0.4100  0.2246  0.2207
 8427SOL    HW126189   3.183   3.344   3.860  1.0134 -0.1730 -1.6374
 8427SOL    HW226190   3.131   3.443   3.758 -1.3758  1.2657  0.8161
 8428SOL     OW26191   1.490   2.090   6.725 -0.1891  0.0962  0.5158
 8428SOL    HW126192   1.451   2.003   6.714 -0.1859  0.1129  0.3689
 8428SOL    HW226193   1.489   2.105   6.820  0.4771 -0.3747  0.6070
 8429SOL     OW26194   5.539   6.618   0.003  0.4250 -0.1965 -0.3256
 8429SOL    HW126195   5.612   6.663  -0.039  1.5459 -1.3796  0.2679
 8429SOL    HW226196   5.484   6.587  -0.070  2.1736 -1.9481 -0.9781
 8430SOL     OW26197   0.454   6.079   4.611  0.2775  0.5823  0.0291
 8430SOL    HW126198   0.362   6.071   4.588  0.1188 -1.5875  1.1739
 8430SOL    HW226199   0.459   6.156   4.667 -0.8975  0.5377  0.2122
 8431SOL     OW26200   2.773   4.475   1.997 -0.1544  0.6644 -0.1350
 8431SOL    HW126201   2.785   4.570   1.998  3.0436  0.3743  0.2459
 8431SOL    HW226202   2.827   4.445   1.924  0.7811 -1.0063  1.1849
 8432SOL     OW26203   1.364   6.860   4.311  0.1203  0.3971  0.1174
 8432SOL    HW126204   1.276   6.825   4.301  0.3274 -0.2010  0.3586
 8432SOL    HW226205   1.393   6.879   4.222 -1.0366  2.5977  0.1514
 8433SOL     OW26206   0.693   0.105   1.245 -0.7314  0.0849 -0.0077
 8433SOL    HW126207   0.719   0.072   1.158 -2.6842 -3.6911  0.6460
 8433SOL    HW226208   0.630   0.175   1.226 -2.5477 -1.8803 -1.7950
 8434SOL     OW26209   6.336   1.621   5.527 -0.1269  0.0387 -0.3649
 8434SOL    HW126210   6.432   1.619   5.522 -0.1283  1.1828 -1.2727
 8434SOL    HW226211   6.308   1.537   5.491  0.5452 -0.9756  1.3406
 8435SOL     OW26212   1.642   4.745   1.080  0.2994 -0.2339  0.5021
 8435SOL    HW126213   1.591   4.741   0.998  1.3058 -0.6957 -0.1159
 8435SOL    HW226214   1.733   4.741   1.052  0.6605 -0.5330  1.6643
 8436SOL     OW26215   0.195   6.805   6.731  0.5376  0.2849  0.1041
 8436SOL    HW126216   0.246   6.871   6.778  0.3057  0.1221  0.5981
 8436SOL    HW226217   0.108   6.809   6.771  0.4093 -0.0411 -0.1345
 8437SOL     OW26218   4.034   7.398   0.636 -1.0885 -0.0508 -0.0632
 8437SOL    HW126219   4.021   7.340   0.712 -1.6953  1.4065  0.9827
 8437SOL    HW226220   3.990   7.353   0.564 -0.3513 -1.5571  0.3787
 8438SOL     OW26221   3.421   6.798   7.104 -0.3158  0.5405 -0.3015
 8438SOL    HW126222   3.494   6.738   7.121 -2.5333 -1.8239  1.6689
 8438SOL    HW226223   3.424   6.860   7.177 -0.3191  0.3687 -0.1530
 8439SOL     OW26224   6.269   2.673   5.550 -0.1074 -0.1191 -0.4110
 8439SOL    HW126225   6.219   2.723   5.485 -1.9625 -0.2699  0.8120
 8439SOL    HW226226   6.329   2.737   5.588  0.5124  0.1363 -1.7520
 8440SOL     OW26227   2.147   7.617   5.596 -0.0617 -0.3085 -0.1999
 8440SOL    HW126228   2.077   7.572   5.645 -0.0028  0.0487  0.2163
 8440SOL    HW226229   2.175   7.553   5.531 -0.5362 -0.5850 -0.1398
 8441SOL     OW26230   6.868   7.351   7.287 -0.2601 -0.2192  0.0749
 8441SOL    HW126231   6.836   7.277   7.340  1.4656 -0.4759  0.8276
 8441SOL    HW226232   6.884   7.313   7.200 -1.4577 -0.2011 -0.1664
 8442SOL     OW26233   4.066   4.970   4.643 -0.1353 -0.2755  0.2895
 8442SOL    HW126234   4.107   4.903   4.589 -2.1483  0.2536 -2.0847
 8442SOL    HW226235   4.103   5.053   4.611  0.2289 -0.0570  1.2387
 8443SOL     OW26236   6.692   0.114   2.422 -0.4887 -0.2610 -0.7001
 8443SOL    HW126237   6.787   0.105   2.433 -0.3581  1.1690 -0.4250
 8443SOL    HW226238   6.682   0.193   2.369 -1.4950 -1.1095 -1.8369
 8444SOL     OW26239   2.087   6.783   7.120  0.3374  0.5706 -0.3299
 8444SOL    HW126240   2.003   6.742   7.101  0.3891 -0.3128  1.1666
 8444SOL    HW226241   2.075   6.823   7.206  1.4445  0.4190 -0.0922
 8445SOL     OW26242   5.144   2.941   3.446  0.5671  0.6848 -0.5006
 8445SOL    HW126243   5.220   2.983   3.407  0.9414  1.9375  1.4244
 8445SOL    HW226244   5.172   2.921   3.536 -0.1997 -2.1509 -0.8095
 8446SOL     OW26245   5.812   2.474   4.382  0.7515  0.2350 -0.2757
 8446SOL    HW126246   5.853   2.430   4.307  2.3034  1.5791 -0.2738
 8446SOL    HW226247   5.885   2.492   4.442 -0.6670 -2.4281  2.5134
 8447SOL     OW26248   7.103   2.505   2.008 -0.0677  0.3295  0.2435
 8447SOL    HW126249   7.047   2.437   2.047 -0.4060  0.5663  0.1748
 8447SOL    HW226250   7.190   2.488   2.044 -0.3928  0.5963  1.1960
 8448SOL     OW26251   5.023   1.362   4.217 -0.3053 -0.3286  0.0985
 8448SOL    HW126252   5.007   1.436   4.158  0.5031 -0.4383 -0.2665
 8448SOL    HW226253   5.060   1.295   4.161  2.0174  0.1178  0.9972
 8449SOL     OW26254   3.216   7.666   5.358 -0.5383 -0.1807 -0.5232
 8449SOL    HW126255   3.238   7.661   5.452  2.4425  3.4442 -0.7424
 8449SOL    HW226256   3.294   7.633   5.314 -1.2442 -0.2846 -1.7296
 8450SOL     OW26257   1.719   0.282   2.689 -0.3331  0.5015 -1.0186
 8450SOL    HW126258   1.756   0.303   2.774 -3.1227  1.1003  0.1404
 8450SOL    HW226259   1.677   0.363   2.659  1.0460  0.4774 -3.2871
 8451SOL     OW26260   6.468   7.743   3.721  0.0510  0.0197  0.4257
 8451SOL    HW126261   6.383   7.699   3.726  0.2194 -0.2910  0.6190
 8451SOL    HW226262   6.527   7.676   3.686  0.4760 -0.1775  1.4744
 8452SOL     OW26263   0.534   7.660   7.344 -0.1967  0.3828 -0.3492
 8452SOL    HW126264   0.542   7.728   7.278  1.4446  0.1802 -0.4062
 8452SOL    HW226265   0.567   7.700   7.425  3.2416 -0.9483 -0.8886
 8453SOL     OW26266   3.102   5.336   1.290 -0.3756  0.5159 -0.2025
 8453SOL    HW126267   3.153   5.408   1.327 -0.3759  0.5989 -0.3614
 8453SOL    HW226268   3.165   5.285   1.239 -0.2292 -0.0010  0.4805
 8454SOL     OW26269   2.071   4.468   2.683  0.1590 -0.6364  0.5906
 8454SOL    HW126270   2.011   4.511   2.743  0.5818 -0.9749  1.2751
 8454SOL    HW226271   2.028   4.386   2.661  0.4446 -0.9702  1.2382
 8455SOL     OW26272   2.487   4.338   3.235  0.0853  0.4581 -0.3052
 8455SOL    HW126273   2.441   4.348   3.151  1.1623 -1.0176 -1.1234
 8455SOL    HW226274   2.535   4.256   3.226 -1.0941 -0.6150  2.4197
 8456SOL     OW26275   7.650   1.824   7.420 -0.2920  0.3094  0.4483
 8456SOL    HW126276   7.678   1.841   7.510 -0.7953  0.5261  0.5690
 8456SOL    HW226277   7.683   1.900   7.371 -1.5814  1.1120  0.7877
 8457SOL     OW26278   6.664   1.007   2.838 -0.0507 -0.3589  0.2341
 8457SOL    HW126279   6.631   1.076   2.895  1.1879  1.2398 -0.8789
 8457SOL    HW226280   6.612   1.015   2.758  1.5046  0.8059 -0.7323
 8458SOL     OW26281   3.338   0.989   1.663  0.0469  0.2753 -0.1838
 8458SOL    HW126282   3.429   1.007   1.688  0.4995 -1.6352 -0.2765
 8458SOL    HW226283   3.286   1.017   1.739  0.6396  1.7570 -0.2898
 8459SOL     OW26284   5.353   5.650   0.407 -0.1365  0.0670  0.1593
 8459SOL    HW126285   5.384   5.592   0.476  0.3028  0.6787  0.4976
 8459SOL    HW226286   5.259   5.656   0.420 -0.1306 -0.2794  0.3513
 8460SOL     OW26287   4.382   1.099   2.677  0.3945  0.3709 -0.1191
 8460SOL    HW126288   4.458   1.139   2.634  1.1347 -0.3240  0.5425
 8460SOL    HW226289   4.412   1.074   2.764 -0.1211 -1.3898 -0.4020
 8461SOL     OW26290   6.672   3.895   2.053 -0.2237  0.3161  0.3951
 8461SOL    HW126291   6.715   3.922   2.134  2.0495  0.1105 -0.6874
 8461SOL    HW226292   6.715   3.813   2.029 -1.3779 -0.0102 -0.6617
 8462SOL     OW26293   4.914   1.498   6.232 -0.4269 -0.2696  0.1665
 8462SOL    HW126294   4.919   1.585   6.272 -0.3221 -0.4460  0.5475
 8462SOL    HW226295   4.928   1.438   6.306  1.9033 -0.5883 -0.4450
 8463SOL     OW26296   0.145   7.176   0.995 -0.3780 -0.4211  0.2290
 8463SOL    HW126297   0.239   7.158   0.993  0.1794  1.9566 -2.3827
 8463SOL    HW226298   0.139   7.266   1.026 -1.6733 -0.2234 -0.5361
 8464SOL     OW26299   2.054   6.629   5.398  0.1672  0.1224 -0.0926
 8464SOL    HW126300   2.136   6.632   5.348 -0.0618 -0.2374 -0.5014
 8464SOL    HW226301   2.082   6.632   5.490  0.6799 -0.5313 -0.2120
 8465SOL     OW26302   6.930   2.739   6.113  0.2837 -0.8301 -0.3601
 8465SOL    HW126303   6.890   2.715   6.029 -2.1059  0.8111  0.1898
 8465SOL    HW226304   7.024   2.741   6.096 -0.1256 -0.6661 -2.9673
 8466SOL     OW26305   4.606   0.274   1.137 -0.3022 -0.7486 -0.0034
 8466SOL    HW126306   4.677   0.339   1.135 -1.3063  0.3580 -0.3063
 8466SOL    HW226307   4.651   0.191   1.119  1.0258 -0.1808  0.5146
 8467SOL     OW26308   3.499   4.882   1.102  0.4068 -0.0873 -0.4206
 8467SOL    HW126309   3.442   4.919   1.035  1.2661  0.2911 -0.9538
 8467SOL    HW226310   3.555   4.954   1.130  1.2426 -0.6631 -0.5631
 8468SOL     OW26311   7.306   0.633   3.074  0.2973 -1.2131 -0.0795
 8468SOL    HW126312   7.392   0.663   3.043  0.3291  0.8804  1.8258
 8468SOL    HW226313   7.245   0.660   3.006  0.4845  2.4599  1.0293
 8469SOL     OW26314   7.710   4.336   1.930  0.2252 -0.2567 -0.4539
 8469SOL    HW126315   7.628   4.368   1.969  0.0397  0.7781 -1.6257
 8469SOL    HW226316   7.729   4.256   1.978  0.1888  1.0787  1.9906
 8470SOL     OW26317   5.816   6.650   2.039  0.6372  0.2745 -0.2087
 8470SOL    HW126318   5.720   6.657   2.046  0.3228 -1.4274 -2.0319
 8470SOL    HW226319   5.844   6.628   2.128 -0.6837  0.5004  0.3026
 8471SOL     OW26320   3.580   5.972   0.949  0.0185 -0.8671  0.3112
 8471SOL    HW126321   3.627   5.944   0.870 -0.4137 -1.3946  0.2301
 8471SOL    HW226322   3.534   5.893   0.978 -0.7781 -0.3736  0.4137
 8472SOL     OW26323   2.118   5.766   7.037 -0.3857 -0.1928 -0.3478
 8472SOL    HW126324   2.080   5.834   7.092  1.0701  1.9067 -1.7658
 8472SOL    HW226325   2.204   5.750   7.075  1.2499  2.3240 -2.5888
 8473SOL     OW26326   3.098   6.988   2.204 -0.4101  0.2571  0.0182
 8473SOL    HW126327   3.152   7.067   2.206  0.9201 -0.6350  0.3545
 8473SOL    HW226328   3.028   7.005   2.267 -0.5038  1.4021 -0.3679
 8474SOL     OW26329   0.339   4.652   4.953  0.0090 -0.1733  0.1624
 8474SOL    HW126330   0.363   4.560   4.966  0.5614 -0.1262 -0.4910
 8474SOL    HW226331   0.329   4.687   5.042  1.2521 -0.4804  0.4407
 8475SOL     OW26332   1.358   1.102   0.786 -0.2413 -0.8238 -0.0287
 8475SOL    HW126333   1.341   1.177   0.729 -0.2509  0.1186  1.1829
 8475SOL    HW226334   1.412   1.044   0.733  0.6683  0.5260 -0.6433
 8476SOL     OW26335   4.884   7.180   4.331 -0.4045  0.0584  0.1282
 8476SOL    HW126336   4.832   7.194   4.252  1.4053 -0.3534 -1.2311
 8476SOL    HW226337   4.909   7.088   4.326 -1.5299 -0.3857  2.0441
 8477SOL     OW26338   7.220   3.577   2.036 -0.1219  0.0081  0.3430
 8477SOL    HW126339   7.213   3.590   2.130 -0.8114 -0.6080  0.3817
 8477SOL    HW226340   7.132   3.553   2.008  0.0026  0.5218 -0.5163
 8478SOL     OW26341   5.410   0.853   7.451  0.0827  0.4559 -0.2024
 8478SOL    HW126342   5.478   0.831   7.514  1.5834 -0.4323 -2.0274
 8478SOL    HW226343   5.342   0.896   7.503  1.5869  0.4988  1.8568
 8479SOL     OW26344   6.242   4.294   5.898 -0.3471 -0.4365  0.3911
 8479SOL    HW126345   6.157   4.339   5.899 -1.1020 -1.6940  2.9853
 8479SOL    HW226346   6.257   4.272   5.806 -1.5783  2.0167 -0.4884
 8480SOL     OW26347   4.841   4.905   5.687  0.2323 -0.6817  0.1708
 8480SOL    HW126348   4.868   4.827   5.734 -2.4912 -2.2686 -0.7122
 8480SOL    HW226349   4.770   4.942   5.739 -0.7598 -0.7300 -1.1002
 8481SOL     OW26350   7.261   5.590   3.172  0.0780 -0.0325  0.4808
 8481SOL    HW126351   7.242   5.511   3.121 -1.0762  0.5277 -0.0103
 8481SOL    HW226352   7.352   5.609   3.154  0.8572 -2.0916  1.8081
 8482SOL     OW26353   3.273   3.251   5.920  0.0937  0.4953  0.0360
 8482SOL    HW126354   3.361   3.248   5.882 -0.1521  1.1612 -0.6105
 8482SOL    HW226355   3.282   3.208   6.005  0.6246 -1.1643 -0.8192
 8483SOL     OW26356   7.507   7.091   1.859 -0.1263 -0.0553 -0.2698
 8483SOL    HW126357   7.542   7.103   1.947 -1.1076  0.6859  0.0343
 8483SOL    HW226358   7.417   7.060   1.873  0.7461 -3.3805 -1.0145
 8484SOL     OW26359   1.648   3.144   5.351 -0.4987 -0.4224 -0.1590
 8484SOL    HW126360   1.703   3.066   5.362 -1.4111 -1.1488 -0.6043
 8484SOL    HW226361   1.699   3.215   5.391  1.2437 -0.8438 -1.4778
 8485SOL     OW26362   3.254   5.514   6.162  0.3348  0.0419 -0.2137
 8485SOL    HW126363   3.196   5.519   6.238  1.2290  1.7603  0.4170
 8485SOL    HW226364   3.269   5.421   6.148 -1.5350 -0.3841  0.3931
 8486SOL     OW26365   5.755   4.230   1.817  0.1681 -0.2873 -0.1733
 8486SOL    HW126366   5.712   4.230   1.902  0.0707  0.5300 -0.2114
 8486SOL    HW226367   5.811   4.308   1.819  0.2739 -0.3440 -0.8000
 8487SOL     OW26368   7.081   6.706   2.606 -0.3620  0.6253  0.4245
 8487SOL    HW126369   7.001   6.714   2.658 -0.6310  0.0288  0.1196
 8487SOL    HW226370   7.107   6.614   2.615  1.0482  1.0988  1.6090
 8488SOL     OW26371   7.620   0.594   3.640  0.0382 -0.2283 -0.0943
 8488SOL    HW126372   7.528   0.608   3.662  0.6809 -0.0294  3.0410
 8488SOL    HW226373   7.626   0.500   3.624 -0.9868  0.0265 -2.2132
 8489SOL     OW26374   7.476   6.039   4.542 -0.1949 -0.0051 -0.1649
 8489SOL    HW126375   7.386   6.007   4.538  0.1634 -1.0474 -0.2979
 8489SOL    HW226376   7.522   5.974   4.595  0.1927  1.2635  1.1356
 8490SOL     OW26377   5.119   2.053   6.227 -0.0014 -0.1988 -0.3015
 8490SOL    HW126378   5.200   2.068   6.276  0.3695 -0.7960 -0.7125
 8490SOL    HW226379   5.135   2.094   6.142 -2.2857  4.9013  1.3713
 8491SOL     OW26380   4.382   4.709   4.715  0.5513 -0.2130  0.5222
 8491SOL    HW126381   4.392   4.633   4.658  2.8146  0.1784  0.2828
 8491SOL    HW226382   4.438   4.775   4.676 -1.7540  1.8193  0.4325
 8492SOL     OW26383   6.697   5.361   7.485 -0.2156 -0.0827  0.0892
 8492SOL    HW126384   6.771   5.421   7.500 -0.0181 -0.6782  1.6750
 8492SOL    HW226385   6.738   5.278   7.462 -0.4220 -0.1493 -0.0393
 8493SOL     OW26386   5.044   4.333   7.677  0.4747  0.3398 -0.3962
 8493SOL    HW126387   5.139   4.337   7.686  0.3642 -0.0851  1.3467
 8493SOL    HW226388   5.029   4.316   7.584  2.1169 -0.1305 -0.6037
 8494SOL     OW26389   3.653   2.503   2.783 -0.1488 -0.4159 -0.0489
 8494SOL    HW126390   3.704   2.478   2.860 -1.0587  1.1860  1.1183
 8494SOL    HW226391   3.652   2.598   2.784 -2.4143 -0.3788 -0.5224
 8495SOL     OW26392   6.177   7.531   6.728 -0.5069  0.4517 -0.7427
 8495SOL    HW126393   6.249   7.487   6.683 -0.5712  0.0765 -0.4842
 8495SOL    HW226394   6.148   7.599   6.667  1.3808  1.9565 -0.0843
 8496SOL     OW26395   0.519   6.563   5.157 -0.3954 -0.0433 -0.0497
 8496SOL    HW126396   0.573   6.509   5.215  0.4196 -1.3029 -1.8460
 8496SOL    HW226397   0.529   6.652   5.190  1.2138 -0.5175  0.8623
 8497SOL     OW26398   1.031   0.461   6.801 -0.0456  0.2997 -0.2181
 8497SOL    HW126399   0.956   0.402   6.794 -0.5797  0.9546 -0.0629
 8497SOL    HW226400   0.997   0.547   6.775  0.4231  0.7844  0.7341
 8498SOL     OW26401   4.031   5.714   4.388  0.3870 -0.2415 -0.3162
 8498SOL    HW126402   3.986   5.787   4.431  0.6560  0.5205 -1.2911
 8498SOL    HW226403   4.106   5.754   4.344  1.0917 -1.2580 -0.0738
 8499SOL     OW26404   1.128   0.173   1.501 -0.0725 -0.7770 -0.4990
 8499SOL    HW126405   1.199   0.140   1.446  0.0429  0.6071 -1.2481
 8499SOL    HW226406   1.048   0.141   1.459  0.0251  0.0608 -1.3674
 8500SOL     OW26407   4.031   2.513   6.673 -0.3152 -0.4241  0.1433
 8500SOL    HW126408   3.954   2.459   6.659 -0.2187 -0.2525 -1.2135
 8500SOL    HW226409   4.002   2.602   6.651 -0.2838 -0.0101  1.6649
 8501SOL     OW26410   1.970   5.698   3.094 -0.1599 -0.7896  0.0867
 8501SOL    HW126411   1.899   5.655   3.141  0.7810 -0.2820  2.0807
 8501SOL    HW226412   1.950   5.792   3.102  0.8214 -0.6291  0.9034
 8502SOL     OW26413   7.053   2.166   7.676 -0.2505 -0.5965  0.1057
 8502SOL    HW126414   7.025   2.253   7.647 -0.3822 -0.9426 -0.8549
 8502SOL    HW226415   7.039   2.166   7.771 -2.6143 -0.4258 -0.1810
 8503SOL     OW26416   6.978   0.521   2.322 -0.3059  0.6825 -0.3674
 8503SOL    HW126417   7.047   0.578   2.288  0.6256 -1.3778 -2.2112
 8503SOL    HW226418   7.023   0.463   2.384 -0.2212 -0.9068 -1.8472
 8504SOL     OW26419   5.437   1.884   3.263  0.2751  0.0100 -0.5074
 8504SOL    HW126420   5.420   1.963   3.313 -1.2021  0.0996 -1.1085
 8504SOL    HW226421   5.392   1.814   3.311 -0.4087 -0.0477 -1.2037
 8505SOL     OW26422   4.144   4.603   0.339 -0.1661  0.1129  0.3106
 8505SOL    HW126423   4.194   4.536   0.293  0.3927  0.0513  0.9834
 8505SOL    HW226424   4.053   4.577   0.329  0.0146 -0.4434  0.1030
 8506SOL     OW26425   6.925   1.009   2.484 -0.0893 -0.6407 -0.0076
 8506SOL    HW126426   6.912   0.928   2.435  0.2419 -1.0594  0.5890
 8506SOL    HW226427   6.946   1.074   2.417  0.1385 -1.1556 -0.4457
 8507SOL     OW26428   1.154   5.916   4.761  0.1876  0.2717 -0.1150
 8507SOL    HW126429   1.180   6.008   4.765 -2.2083  1.0742 -1.0746
 8507SOL    HW226430   1.231   5.871   4.725  1.4825  1.8293  0.5917
 8508SOL     OW26431   5.190   1.736   0.744  0.3199  0.2278  0.4185
 8508SOL    HW126432   5.146   1.819   0.725 -0.3653  0.2079  1.8247
 8508SOL    HW226433   5.162   1.677   0.673 -0.6996  0.6577  0.4449
 8509SOL     OW26434   4.619   1.542   7.044 -0.1610 -0.1922  0.3957
 8509SOL    HW126435   4.673   1.469   7.073  0.4570  0.0322 -0.1746
 8509SOL    HW226436   4.643   1.614   7.102 -1.4436 -0.6757  1.5678
 8510SOL     OW26437   7.360   0.687   3.670 -0.1433 -0.3666  0.4027
 8510SOL    HW126438   7.314   0.734   3.600  1.1300  0.0117 -0.2126
 8510SOL    HW226439   7.298   0.688   3.744 -1.1399  0.0450 -0.4090
 8511SOL     OW26440   2.248   2.401   4.763  0.4781 -0.0670 -0.5642
 8511SOL    HW126441   2.296   2.484   4.758  0.9301 -0.3139 -0.3870
 8511SOL    HW226442   2.242   2.382   4.856  0.8468 -0.4975 -0.6203
 8512SOL     OW26443   5.683   6.160   7.399  0.1725 -0.5025  0.1282
 8512SOL    HW126444   5.620   6.230   7.381  1.2837  0.7945  1.0632
 8512SOL    HW226445   5.753   6.174   7.335  0.7358 -0.2719  0.7684
 8513SOL     OW26446   3.458   0.028   4.249  0.1677 -0.2417 -0.2352
 8513SOL    HW126447   3.367   0.040   4.222  0.6854  0.4850 -1.8115
 8513SOL    HW226448   3.477   0.103   4.305 -0.3809 -0.7522  0.6518
 8514SOL     OW26449   0.520   1.470   4.182 -0.5728  0.3187 -0.0408
 8514SOL    HW126450   0.479   1.511   4.105 -1.6261 -2.3686 -1.0692
 8514SOL    HW226451   0.493   1.378   4.176  0.2581 -0.2112  2.9781
 8515SOL     OW26452   5.339   6.292   1.994 -0.7185 -0.1660 -0.4523
 8515SOL    HW126453   5.359   6.249   2.078 -0.7317  0.9393  0.1328
 8515SOL    HW226454   5.282   6.365   2.018  2.1056  2.3834 -0.9158
 8516SOL     OW26455   0.217   1.466   5.358  0.0543 -0.4188  0.7010
 8516SOL    HW126456   0.232   1.391   5.301 -0.4800 -1.6731  2.1577
 8516SOL    HW226457   0.122   1.480   5.354  0.1644  0.2763  0.3400
 8517SOL     OW26458   3.847   4.844   4.707  0.0426 -0.0622 -0.0681
 8517SOL    HW126459   3.914   4.911   4.698  0.5817 -0.7310 -1.2026
 8517SOL    HW226460   3.849   4.795   4.624  0.4728 -2.2156  1.1344
 8518SOL     OW26461   5.611   3.805   7.682 -0.1582  0.1471  0.2445
 8518SOL    HW126462   5.619   3.712   7.660  0.9903 -0.2047  1.9464
 8518SOL    HW226463   5.520   3.815   7.710 -0.0977 -0.6479  0.7625
 8519SOL     OW26464   3.599   0.057   3.981  0.6758  0.0632  0.2384
 8519SOL    HW126465   3.527   0.114   3.955  0.9975  0.1499 -0.4895
 8519SOL    HW226466   3.578   0.031   4.071 -0.8279 -0.7888 -0.3227
 8520SOL     OW26467   1.737   1.037   7.162  0.1783  0.0684 -0.0616
 8520SOL    HW126468   1.787   1.067   7.238 -0.6189 -1.9358  1.3342
 8520SOL    HW226469   1.650   1.075   7.175 -0.1537 -0.8382  0.4256
 8521SOL     OW26470   4.499   7.544   7.048 -0.3977 -0.3814 -0.3793
 8521SOL    HW126471   4.430   7.559   6.983  0.1814  0.2691 -0.8633
 8521SOL    HW226472   4.557   7.620   7.040 -0.9568  0.3445  1.7545
 8522SOL     OW26473   3.365   0.582   4.245 -0.1015  0.0139  0.3905
 8522SOL    HW126474   3.325   0.548   4.326 -0.7125 -0.1879  0.0139
 8522SOL    HW226475   3.294   0.628   4.201  0.4102  0.7113  0.2931
 8523SOL     OW26476   5.646   0.058   1.645 -0.2857  0.0724  0.0017
 8523SOL    HW126477   5.608   0.146   1.654 -4.0241 -1.3946  0.0711
 8523SOL    HW226478   5.632   0.016   1.730  2.9005 -0.2544  0.5227
 8524SOL     OW26479   0.347   1.628   4.337  0.1012  0.0915 -0.5262
 8524SOL    HW126480   0.421   1.577   4.304 -0.5217 -1.9276  0.9821
 8524SOL    HW226481   0.368   1.644   4.429 -0.9759  0.1608 -0.2788
 8525SOL     OW26482   5.902   3.167   1.163  0.2681  0.3541  0.1251
 8525SOL    HW126483   5.862   3.251   1.137 -1.8447 -1.5719 -3.6702
 8525SOL    HW226484   5.828   3.114   1.191  1.4035 -0.7231  1.1810
 8526SOL     OW26485   7.013   0.626   1.626 -0.3993  0.4942 -0.1300
 8526SOL    HW126486   7.094   0.589   1.660  1.1905  2.3179 -1.6403
 8526SOL    HW226487   7.042   0.696   1.567 -3.0749  0.7444 -1.2988
 8527SOL     OW26488   5.139   6.423   1.609  0.1122 -0.1782 -0.3772
 8527SOL    HW126489   5.213   6.443   1.553 -0.4485  1.9943 -0.4430
 8527SOL    HW226490   5.112   6.334   1.584  1.5979 -0.3374 -1.5313
 8528SOL     OW26491   7.600   4.806   6.307  0.5056 -0.0636  0.0519
 8528SOL    HW126492   7.665   4.863   6.348 -1.6480  2.3949  0.2895
 8528SOL    HW226493   7.601   4.727   6.362  2.3609  0.4095  0.7872
 8529SOL     OW26494   4.325   4.810   0.285 -0.3804  0.1852 -0.4806
 8529SOL    HW126495   4.265   4.737   0.265 -0.6178 -0.2253  1.5391
 8529SOL    HW226496   4.291   4.847   0.366  1.2099  0.9600 -0.1345
 8530SOL     OW26497   5.391   4.619   1.440 -0.4967  0.4733 -0.1195
 8530SOL    HW126498   5.476   4.593   1.406 -0.9504 -1.0825 -0.1251
 8530SOL    HW226499   5.346   4.537   1.460 -1.6093  1.2744  0.8655
 8531SOL     OW26500   3.460   7.317   0.300 -0.0747  0.4124 -0.2632
 8531SOL    HW126501   3.371   7.350   0.294 -0.3191 -0.2949 -0.7493
 8531SOL    HW226502   3.515   7.391   0.276 -0.5508  0.7578 -0.2924
 8532SOL     OW26503   6.875   1.292   1.625  0.1704  0.1085 -0.1155
 8532SOL    HW126504   6.785   1.276   1.652  0.5315 -4.4536 -0.7016
 8532SOL    HW226505   6.868   1.332   1.538 -1.1503  2.0083  0.8004
 8533SOL     OW26506   4.065   7.490   3.589  0.9868  0.5508  0.3250
 8533SOL    HW126507   3.988   7.546   3.578 -0.5984 -1.5801 -0.1603
 8533SOL    HW226508   4.123   7.516   3.517 -1.2304 -0.6492 -2.0977
 8534SOL     OW26509   6.370   2.703   4.163 -0.3502 -0.6543 -0.0990
 8534SOL    HW126510   6.429   2.679   4.091 -0.2862  1.9552 -1.0417
 8534SOL    HW226511   6.282   2.693   4.127 -0.3133  1.0990 -0.7952
 8535SOL     OW26512   2.929   4.432   2.326  0.5936 -0.1406 -0.2680
 8535SOL    HW126513   2.890   4.349   2.297 -2.5618  0.7769  0.9115
 8535SOL    HW226514   2.949   4.419   2.419  0.4791  0.2784 -0.1808
 8536SOL     OW26515   1.350   6.328   1.708  0.0460  0.3218  0.1996
 8536SOL    HW126516   1.428   6.373   1.739  1.7702 -3.0339  1.3150
 8536SOL    HW226517   1.360   6.326   1.613  1.9921 -0.9129  0.3603
 8537SOL     OW26518   4.005   0.427   0.257  0.2044  0.3341  0.7269
 8537SOL    HW126519   4.016   0.359   0.191 -0.2148  1.2883 -0.3539
 8537SOL    HW226520   4.067   0.495   0.233 -1.9310  1.9911 -0.4671
 8538SOL     OW26521   5.724   3.655   5.604 -0.2975 -0.1722  0.2703
 8538SOL    HW126522   5.761   3.600   5.673 -0.7989  0.3075  0.9253
 8538SOL    HW226523   5.800   3.683   5.552  0.8914  3.6766  3.5878
 8539SOL     OW26524   5.433   3.316   2.560  0.4242 -0.2845  0.7035
 8539SOL    HW126525   5.479   3.353   2.485  1.6188 -2.4766  0.2402
 8539SOL    HW226526   5.502   3.301   2.625 -0.1175 -0.9881  1.1311
 8540SOL     OW26527   1.857   2.607   1.027  0.0673  0.2944 -0.6080
 8540SOL    HW126528   1.832   2.608   0.934  1.2107  0.4771 -0.9412
 8540SOL    HW226529   1.945   2.568   1.027 -1.0512 -2.4655  0.7314
 8541SOL     OW26530   5.907   3.381   4.401 -0.2858 -0.4069  0.3803
 8541SOL    HW126531   5.967   3.321   4.356  0.4737 -0.0058  0.8395
 8541SOL    HW226532   5.924   3.466   4.360  1.2712  0.2088  2.1754
 8542SOL     OW26533   4.162   2.191   5.582  0.3020  0.0502 -0.0671
 8542SOL    HW126534   4.201   2.162   5.499  0.6679  0.3973 -0.0176
 8542SOL    HW226535   4.080   2.233   5.556 -0.2023 -0.9690 -0.1429
 8543SOL     OW26536   7.491   2.407   5.692  0.1371  0.4480 -0.2882
 8543SOL    HW126537   7.561   2.345   5.669 -0.0373 -0.0671  0.4954
 8543SOL    HW226538   7.528   2.458   5.764 -0.0525  0.6115 -0.3077
 8544SOL     OW26539   1.177   3.815   1.090 -0.2168 -0.0165  0.4660
 8544SOL    HW126540   1.120   3.757   1.140 -2.2043  0.4836 -1.0827
 8544SOL    HW226541   1.140   3.814   1.002  1.7340  0.9797 -0.4249
 8545SOL     OW26542   1.826   2.920   5.333 -0.0161  0.0207  0.0120
 8545SOL    HW126543   1.750   2.893   5.282  0.1815 -0.5519  0.0177
 8545SOL    HW226544   1.859   2.840   5.373  1.5822 -0.0461 -1.3101
 8546SOL     OW26545   4.913   5.283   3.757  0.2492  0.2964 -0.1816
 8546SOL    HW126546   4.941   5.374   3.760  0.3753  0.2604 -0.2565
 8546SOL    HW226547   4.951   5.243   3.835 -2.3949  1.0322  1.6287
 8547SOL     OW26548   2.221   7.457   4.418 -0.1477 -0.2223 -0.0702
 8547SOL    HW126549   2.214   7.469   4.324 -0.5161 -0.0702 -0.0242
 8547SOL    HW226550   2.208   7.544   4.455  0.2777 -0.2332  0.1095
 8548SOL     OW26551   0.385   0.264   2.486 -0.4498 -0.5321 -0.2747
 8548SOL    HW126552   0.320   0.197   2.507 -1.2521  0.2670 -0.1586
 8548SOL    HW226553   0.409   0.247   2.395  1.5515 -2.7738  0.5636
 8549SOL     OW26554   6.600   2.638   2.451 -0.1694 -0.0665  0.8152
 8549SOL    HW126555   6.652   2.693   2.510  0.8276  2.4044 -2.0911
 8549SOL    HW226556   6.521   2.688   2.435 -0.0987 -0.3475 -0.4848
 8550SOL     OW26557   7.266   5.535   4.693  0.1308  0.8517 -0.2421
 8550SOL    HW126558   7.170   5.538   4.686  0.1079  1.6038  0.3291
 8550SOL    HW226559   7.289   5.613   4.743  1.1587  1.4497 -1.5633
 8551SOL     OW26560   0.703   7.674   1.843 -0.1403  0.6991 -0.4527
 8551SOL    HW126561   0.778   7.732   1.852  0.3852 -0.1216  0.8157
 8551SOL    HW226562   0.627   7.731   1.859  0.3970  0.9676  1.4956
 8552SOL     OW26563   2.473   4.797   0.830 -0.0463 -0.0037 -0.2814
 8552SOL    HW126564   2.556   4.756   0.854 -0.3937 -0.8868 -0.5300
 8552SOL    HW226565   2.408   4.727   0.843 -0.5569  0.2434 -1.4233
 8553SOL     OW26566   1.182   6.525   1.369  0.1452 -0.4967 -0.5458
 8553SOL    HW126567   1.254   6.463   1.379  1.2327  0.9556  1.2323
 8553SOL    HW226568   1.220   6.610   1.388 -0.7707  1.1775 -4.9527
 8554SOL     OW26569   6.712   3.614   2.350  0.8447  0.0640  0.5911
 8554SOL    HW126570   6.794   3.643   2.311  1.4078  0.6335  2.1230
 8554SOL    HW226571   6.679   3.547   2.290  3.1102 -1.1737  0.6088
 8555SOL     OW26572   7.553   6.500   3.600  0.1243  0.5182 -0.0746
 8555SOL    HW126573   7.510   6.505   3.515 -0.3244 -0.0672  0.1166
 8555SOL    HW226574   7.483   6.518   3.663  0.6049  1.7013  0.1451
 8556SOL     OW26575   2.486   6.935   1.189  0.1011 -0.3989  0.3578
 8556SOL    HW126576   2.481   6.919   1.283 -0.5134 -1.6796  0.1326
 8556SOL    HW226577   2.579   6.944   1.171  0.3208 -1.3110  0.9309
 8557SOL     OW26578   1.436   1.692   2.807  0.3910  0.1679 -0.1059
 8557SOL    HW126579   1.434   1.737   2.722 -2.3614 -0.2757 -0.3471
 8557SOL    HW226580   1.440   1.599   2.784 -0.9264  0.0197  0.2040
 8558SOL     OW26581   4.187   6.123   0.536 -0.3469  0.1876 -0.4608
 8558SOL    HW126582   4.219   6.071   0.610  0.0339  1.2278  0.1371
 8558SOL    HW226583   4.258   6.122   0.473  0.0450  0.7791 -0.0314
 8559SOL     OW26584   7.600   7.061   2.508 -0.1632  0.1330  0.1507
 8559SOL    HW126585   7.543   7.133   2.534 -0.4138  0.6043 -1.6148
 8559SOL    HW226586   7.675   7.102   2.465  0.7004 -0.5723  0.9220
 8560SOL     OW26587   6.480   6.005   6.662 -0.0509 -0.4691  0.2121
 8560SOL    HW126588   6.452   5.979   6.750  0.1501 -2.4172 -0.2506
 8560SOL    HW226589   6.542   6.076   6.677 -0.2319 -0.5699  1.6345
 8561SOL     OW26590   2.355   7.541   7.315 -0.2013 -0.7416  0.4920
 8561SOL    HW126591   2.373   7.468   7.256 -1.4502 -1.9943  1.5841
 8561SOL    HW226592   2.439   7.561   7.356  0.5730 -0.2042 -1.2634
 8562SOL     OW26593   7.386   6.134   6.158 -0.7340  0.2947  0.1419
 8562SOL    HW126594   7.420   6.223   6.150  1.2671 -0.4350  0.1755
 8562SOL    HW226595   7.417   6.089   6.079  1.3111 -1.2848  1.7213
 8563SOL     OW26596   2.237   5.851   4.402 -0.1925  0.1942  0.3114
 8563SOL    HW126597   2.176   5.785   4.372 -0.5048 -0.8414  2.9670
 8563SOL    HW226598   2.260   5.824   4.491  2.2351  1.8857  0.2953
 8564SOL     OW26599   5.520   1.548   5.579 -0.1636 -0.4124  0.7656
 8564SOL    HW126600   5.455   1.480   5.560 -0.9000  0.3919  0.3290
 8564SOL    HW226601   5.575   1.510   5.647 -2.0021 -0.5961  2.2536
 8565SOL     OW26602   5.269   1.321   2.809 -0.4790  0.0016  0.4616
 8565SOL    HW126603   5.265   1.230   2.780  1.0291  0.3010 -0.7974
 8565SOL    HW226604   5.238   1.318   2.900  1.4486 -2.0928  1.1413
 8566SOL     OW26605   4.009   7.161   3.906  0.2187  0.0690 -0.1016
 8566SOL    HW126606   4.055   7.244   3.897  0.6887 -0.2908 -1.2903
 8566SOL    HW226607   4.069   7.096   3.868 -0.4504 -0.6983  0.1220
 8567SOL     OW26608   2.037   7.341   0.888  0.0914  0.2382  0.1453
 8567SOL    HW126609   1.988   7.261   0.872  1.6623 -1.0406  1.3265
 8567SOL    HW226610   2.089   7.322   0.966  1.3125  2.0460 -0.1565
 8568SOL     OW26611   6.594   7.674   1.249 -0.1421 -0.4606  0.2416
 8568SOL    HW126612   6.615   7.580   1.248 -1.0715 -0.6819 -0.5987
 8568SOL    HW226613   6.625   7.706   1.164 -1.4338 -0.4028 -0.2293
 8569SOL     OW26614   4.292   5.329   0.979 -0.1545  0.1096 -0.7818
 8569SOL    HW126615   4.206   5.370   0.989 -0.5896 -0.9194 -0.0939
 8569SOL    HW226616   4.330   5.333   1.067  0.7037  0.9380 -1.1660
 8570SOL     OW26617   5.001   6.701   5.198 -0.0994  0.2652 -0.0749
 8570SOL    HW126618   4.995   6.675   5.290  0.3318  1.0579  0.1822
 8570SOL    HW226619   4.915   6.739   5.179 -0.1599  0.1788  0.0188
 8571SOL     OW26620   3.141   2.712   4.085  0.5215 -0.2533  0.1769
 8571SOL    HW126621   3.084   2.769   4.032  1.4463  0.1360 -0.4173
 8571SOL    HW226622   3.229   2.726   4.050  0.9674 -0.9978  0.9557
 8572SOL     OW26623   3.524   6.844   7.659 -0.7442 -0.2783 -0.1177
 8572SOL    HW126624   3.482   6.758   7.652 -2.3789  0.3292  1.3235
 8572SOL    HW226625   3.578   6.837   7.738 -0.9051  0.0129  0.0184
 8573SOL     OW26626   0.157   6.425   6.475  0.1849  0.0619 -0.4595
 8573SOL    HW126627   0.155   6.417   6.570  0.2482  0.8029 -0.3919
 8573SOL    HW226628   0.146   6.335   6.443 -0.1901 -0.1472  0.2428
 8574SOL     OW26629   4.284   2.114   6.385 -0.0677 -0.1180  0.7877
 8574SOL    HW126630   4.275   2.071   6.470  0.0575 -0.2768  0.7234
 8574SOL    HW226631   4.326   2.047   6.330  3.5893  1.2427  1.6490
 8575SOL     OW26632   6.615   2.186   3.984 -0.1789  0.0224  0.0758
 8575SOL    HW126633   6.623   2.267   3.933 -0.9878 -0.5269 -0.9399
 8575SOL    HW226634   6.636   2.213   4.074  0.4345  1.1726 -0.3930
 8576SOL     OW26635   3.719   6.088   3.870 -0.0630  0.4396 -0.2318
 8576SOL    HW126636   3.725   6.048   3.956 -0.0013  0.0937 -0.3945
 8576SOL    HW226637   3.737   6.017   3.809 -2.2972  0.1359 -0.6162
 8577SOL     OW26638   3.591   7.701   5.341  0.2109 -0.2682  0.8139
 8577SOL    HW126639   3.663   7.688   5.403  1.9694 -1.0522 -1.2374
 8577SOL    HW226640   3.583   7.796   5.332  1.6419 -0.1586  0.4338
 8578SOL     OW26641   1.105   0.119   7.613 -0.2276 -0.0064 -0.1234
 8578SOL    HW126642   1.018   0.141   7.645 -1.7014 -0.7151 -3.3201
 8578SOL    HW226643   1.092   0.044   7.555  2.9439 -1.8602  1.2813
 8579SOL     OW26644   5.180   2.569   0.316  0.6017 -0.5141 -0.1402
 8579SOL    HW126645   5.140   2.633   0.257  2.5089  1.7658  0.8554
 8579SOL    HW226646   5.108   2.544   0.375 -0.0774  1.3917 -0.0585
 8580SOL     OW26647   7.629   4.564   6.461 -0.2408  0.5459  0.0010
 8580SOL    HW126648   7.628   4.480   6.415 -1.2832  0.3227  0.4013
 8580SOL    HW226649   7.709   4.563   6.513 -0.5973 -0.5142  0.5536
 8581SOL     OW26650   7.437   5.605   7.166  0.1206 -0.4910 -0.1481
 8581SOL    HW126651   7.506   5.633   7.106  1.1014 -0.3957  0.9864
 8581SOL    HW226652   7.481   5.596   7.251 -1.4101  0.3165  0.7802
 8582SOL     OW26653   6.475   5.929   3.639 -0.5738  0.2307  0.1728
 8582SOL    HW126654   6.508   5.990   3.572  1.5349 -0.8791  0.1003
 8582SOL    HW226655   6.417   5.871   3.591  2.1885 -1.6030 -1.2224
 8583SOL     OW26656   3.485   5.730   1.012 -0.2803 -0.2617  0.2251
 8583SOL    HW126657   3.391   5.718   0.998 -0.2720  0.4591 -0.5237
 8583SOL    HW226658   3.510   5.658   1.070 -1.0043 -1.3466 -0.7668
 8584SOL     OW26659   2.109   6.760   0.036 -0.4712 -0.0084  0.7331
 8584SOL    HW126660   2.085   6.738  -0.054 -0.9671 -0.6974  1.0249
 8584SOL    HW226661   2.191   6.809   0.028 -1.0156  0.7989 -0.1557
 8585SOL     OW26662   2.946   3.607   5.176  0.2260 -0.2690 -0.6356
 8585SOL    HW126663   2.874   3.619   5.238  1.3342 -0.0410  0.6663
 8585SOL    HW226664   3.006   3.547   5.220  0.6825 -0.7310 -1.8300
 8586SOL     OW26665   7.390   4.085   4.150 -0.0640 -0.1657  0.6663
 8586SOL    HW126666   7.451   4.016   4.125  1.1883  1.2085 -0.2432
 8586SOL    HW226667   7.354   4.056   4.234  0.3855 -1.9136  0.3000
 8587SOL     OW26668   7.173   1.112   6.570 -0.5815 -0.0637 -0.1849
 8587SOL    HW126669   7.253   1.071   6.603 -0.1846 -1.0216 -2.1848
 8587SOL    HW226670   7.120   1.039   6.539 -1.7725  0.6501  0.1333
 8588SOL     OW26671   3.967   2.796   6.450 -0.1683  0.1017  0.4172
 8588SOL    HW126672   3.964   2.711   6.407  0.0141 -0.1299  0.8517
 8588SOL    HW226673   3.979   2.859   6.379 -2.2292 -0.0435 -0.1281
 8589SOL     OW26674   5.690   0.162   1.181 -0.2440  0.1828 -0.1954
 8589SOL    HW126675   5.778   0.197   1.193 -0.1152 -0.1725 -0.0671
 8589SOL    HW226676   5.633   0.238   1.183 -0.2309  0.2227  2.5496
 8590SOL     OW26677   7.580   1.514   4.256 -0.0189  0.1895 -0.2416
 8590SOL    HW126678   7.567   1.457   4.180 -0.3705  1.9658 -1.5743
 8590SOL    HW226679   7.508   1.576   4.253 -0.2210  0.1295  1.7630
 8591SOL     OW26680   5.384   5.275   0.297 -0.0571  0.2450  0.6689
 8591SOL    HW126681   5.474   5.299   0.322 -0.4683  1.4809  1.0367
 8591SOL    HW226682   5.345   5.358   0.269 -0.9345 -0.3766  0.0142
 8592SOL     OW26683   1.969   7.651   3.044 -0.1216  0.3888 -0.3742
 8592SOL    HW126684   2.005   7.582   2.990  0.6891 -1.1294  1.9545
 8592SOL    HW226685   2.013   7.641   3.128 -3.8328  0.2381  1.7756
 8593SOL     OW26686   4.057   7.672   4.434 -0.0034  0.6666 -0.0465
 8593SOL    HW126687   4.043   7.591   4.384  0.1014  0.8395 -0.3564
 8593SOL    HW226688   3.977   7.723   4.419  0.7082  1.4370 -1.4073
 8594SOL     OW26689   6.431   6.560   1.229  0.1758 -0.1035  0.5882
 8594SOL    HW126690   6.468   6.569   1.317  1.2587  1.6076  0.0079
 8594SOL    HW226691   6.356   6.618   1.229 -0.4735 -0.9257  0.6894
 8595SOL     OW26692   5.053   2.058   0.076  0.9290  0.5047 -0.1933
 8595SOL    HW126693   5.031   2.082   0.166  1.3200  1.5315 -0.3548
 8595SOL    HW226694   5.147   2.074   0.069  1.2079 -1.0443 -0.3486
 8596SOL     OW26695   5.575   2.804   5.390 -0.1259 -0.4530 -0.6052
 8596SOL    HW126696   5.499   2.856   5.363  0.1118 -0.0384 -0.5015
 8596SOL    HW226697   5.638   2.870   5.420  1.4981 -0.4889 -3.6200
 8597SOL     OW26698   7.178   5.924   1.709  0.5580 -0.1845  0.3675
 8597SOL    HW126699   7.141   5.958   1.790  1.5061  1.3558  0.1941
 8597SOL    HW226700   7.103   5.890   1.661 -0.6891  2.7078  0.0860
 8598SOL     OW26701   0.120   4.659   6.600 -0.1983  0.7904 -0.3125
 8598SOL    HW126702   0.155   4.577   6.633 -0.5662  0.1852 -1.3661
 8598SOL    HW226703   0.196   4.719   6.598  0.1754  0.3298 -0.0029
 8599SOL     OW26704   1.617   2.319   6.602 -0.0334  0.2875 -0.0111
 8599SOL    HW126705   1.587   2.238   6.642  0.3519  0.0657 -0.1666
 8599SOL    HW226706   1.667   2.292   6.525  2.5563  0.4817  1.4791
 8600SOL     OW26707   5.426   4.588   5.851  0.5640 -0.3589 -0.1238
 8600SOL    HW126708   5.339   4.601   5.811 -0.1031 -0.7497  1.1411
 8600SOL    HW226709   5.407   4.559   5.940  1.9936  0.9487  0.6678
 8601SOL     OW26710   6.909   1.054   7.583  0.0538 -0.2771  0.6139
 8601SOL    HW126711   6.971   1.073   7.513 -0.9627 -0.4314 -0.3731
 8601SOL    HW226712   6.824   1.051   7.539 -0.8358  1.1361  2.0989
 8602SOL     OW26713   6.000   6.793   4.287  0.3699  0.3816  0.0052
 8602SOL    HW126714   5.909   6.820   4.275  0.3641  1.2101  1.6354
 8602SOL    HW226715   6.047   6.834   4.216  0.0585  3.3462  1.3770
 8603SOL     OW26716   0.306   2.484   3.594  0.9288  0.3414  0.1065
 8603SOL    HW126717   0.351   2.476   3.510 -0.2592 -0.5654 -0.4653
 8603SOL    HW226718   0.257   2.565   3.588 -2.5829 -1.7046 -1.8552
 8604SOL     OW26719   7.573   3.320   3.927 -0.1549 -0.3449 -0.2635
 8604SOL    HW126720   7.640   3.264   3.889  0.4557 -0.4819  0.9468
 8604SOL    HW226721   7.593   3.321   4.021 -0.0977  1.9394 -0.2259
 8605SOL     OW26722   2.844   3.322   6.849 -0.1088 -0.0034  0.1674
 8605SOL    HW126723   2.762   3.335   6.800 -0.6027 -2.9499  0.0067
 8605SOL    HW226724   2.833   3.237   6.891  2.7313 -0.3050  0.4681
 8606SOL     OW26725   3.381   2.045   2.039 -0.4654 -0.2292 -0.3069
 8606SOL    HW126726   3.420   1.977   2.094  1.8672  0.7481 -0.6305
 8606SOL    HW226727   3.455   2.101   2.014 -2.2523  2.3327 -0.2081
 8607SOL     OW26728   2.419   6.924   2.107 -0.2798 -0.2102 -0.1347
 8607SOL    HW126729   2.505   6.924   2.065 -0.4736 -2.0580 -0.6417
 8607SOL    HW226730   2.436   6.952   2.197  0.8241 -0.3999 -0.2668
 8608SOL     OW26731   1.866   0.252   2.440 -0.4214  0.3734  0.4592
 8608SOL    HW126732   1.814   0.261   2.520 -1.7520 -0.9500 -0.2210
 8608SOL    HW226733   1.917   0.333   2.436 -0.1219  0.3846  2.7686
 8609SOL     OW26734   3.023   7.042   6.139 -0.3326  0.2885 -0.8173
 8609SOL    HW126735   3.004   6.988   6.062  0.5626 -0.0789 -0.7915
 8609SOL    HW226736   3.118   7.054   6.137 -0.1582 -0.5429  0.7458
 8610SOL     OW26737   6.352   7.426   6.131  0.7385  0.3088  0.2548
 8610SOL    HW126738   6.438   7.433   6.089  0.5868 -1.0759 -0.3241
 8610SOL    HW226739   6.329   7.333   6.124 -0.9833  0.7236  0.0702
 8611SOL     OW26740   5.112   5.864   1.685 -0.3817 -0.0145 -0.2931
 8611SOL    HW126741   5.136   5.844   1.776 -2.6631 -0.8521  0.1968
 8611SOL    HW226742   5.057   5.942   1.692 -0.5191 -0.0473 -0.9794
 8612SOL     OW26743   1.245   5.378   6.749 -0.5477  0.0413  0.0491
 8612SOL    HW126744   1.235   5.363   6.655 -0.8766 -0.5535  0.1767
 8612SOL    HW226745   1.283   5.466   6.755 -1.1208  0.3471 -0.6225
 8613SOL     OW26746   6.014   3.554   6.487  0.4357 -0.2175  0.3605
 8613SOL    HW126747   6.084   3.618   6.483  0.7982 -0.6817 -1.2164
 8613SOL    HW226748   5.939   3.602   6.523  1.7937  0.0038  3.1728
 8614SOL     OW26749   2.175   7.192   2.881 -0.2059  0.0929  0.5995
 8614SOL    HW126750   2.254   7.216   2.831  0.5833 -1.0810  1.2415
 8614SOL    HW226751   2.124   7.138   2.821  0.8038 -1.4251  1.0539
 8615SOL     OW26752   0.015   3.652   1.242 -0.2466  0.3784 -0.1042
 8615SOL    HW126753   0.006   3.588   1.171 -1.6968  1.6525 -1.1204
 8615SOL    HW226754  -0.044   3.620   1.310 -0.6914  0.4186 -0.4628
 8616SOL     OW26755   2.941   0.227   3.001 -0.0990  0.1715  0.4271
 8616SOL    HW126756   2.950   0.137   2.971  0.0705  0.4935 -0.5211
 8616SOL    HW226757   2.872   0.223   3.068  0.1440 -0.7046  0.6414
 8617SOL     OW26758   1.685   1.906   3.410 -0.0363  0.3860  0.2546
 8617SOL    HW126759   1.728   1.919   3.326 -1.9321 -0.1629 -0.8441
 8617SOL    HW226760   1.678   1.994   3.447  1.6725  0.5274  0.3341
 8618SOL     OW26761   7.325   4.529   1.294 -0.0693  0.0737  0.1485
 8618SOL    HW126762   7.260   4.591   1.328  0.7760  0.6637  0.7195
 8618SOL    HW226763   7.276   4.448   1.280 -1.0255  0.6452  0.1198
 8619SOL     OW26764   0.537   6.687   3.975  0.0649  0.2368 -0.3756
 8619SOL    HW126765   0.588   6.740   4.037  0.5951 -2.5900  1.8308
 8619SOL    HW226766   0.447   6.693   4.006  0.1008  0.0117 -0.2226
 8620SOL     OW26767   0.164   0.298   6.477  0.6867  0.2070  0.2357
 8620SOL    HW126768   0.204   0.237   6.539  1.8248 -0.5330 -1.1546
 8620SOL    HW226769   0.215   0.287   6.396 -2.7157 -1.3566 -1.9741
 8621SOL     OW26770   1.870   7.556   6.994  0.5251  0.5166  0.7039
 8621SOL    HW126771   1.895   7.577   7.084  1.1027 -0.4699  0.7932
 8621SOL    HW226772   1.829   7.469   7.000  1.3171  0.0696 -0.0728
 8622SOL     OW26773   6.232   0.306   4.500 -0.3788 -0.1141 -0.2318
 8622SOL    HW126774   6.314   0.263   4.523 -0.5595 -0.2539  0.1656
 8622SOL    HW226775   6.177   0.235   4.465 -0.1551  0.0714 -0.9705
 8623SOL     OW26776   2.431   4.149   6.318  0.8081 -0.0670 -0.0335
 8623SOL    HW126777   2.337   4.141   6.307  1.1505 -1.2026 -2.9667
 8623SOL    HW226778   2.442   4.219   6.383 -2.0131  1.6064 -1.1938
 8624SOL     OW26779   2.572   1.156   0.688 -0.2678 -0.2858 -0.1480
 8624SOL    HW126780   2.576   1.238   0.738  1.1620 -0.8196  0.7014
 8624SOL    HW226781   2.639   1.166   0.620  0.5892 -1.0799  0.5467
 8625SOL     OW26782   2.242   5.134   1.443  0.3948  1.1995 -0.5367
 8625SOL    HW126783   2.199   5.059   1.485 -0.4756  1.0888 -1.5746
 8625SOL    HW226784   2.331   5.134   1.478 -0.1758  0.8771  0.9765
 8626SOL     OW26785   6.671   2.448   5.107  0.4729 -0.0575  0.2810
 8626SOL    HW126786   6.678   2.537   5.073  0.9732 -0.7655 -1.5387
 8626SOL    HW226787   6.635   2.396   5.035  1.2230 -1.5535  0.9373
 8627SOL     OW26788   1.006   0.471   4.731 -0.3818 -0.3742  0.6541
 8627SOL    HW126789   0.912   0.483   4.725 -0.4237 -1.0279 -0.3363
 8627SOL    HW226790   1.043   0.534   4.669 -0.3407 -1.8342 -0.8903
 8628SOL     OW26791   2.300   1.458   3.108  0.8980  1.0517  0.3813
 8628SOL    HW126792   2.245   1.387   3.144  1.3876  0.5704  0.1903
 8628SOL    HW226793   2.390   1.429   3.125  1.1214  1.1459 -0.6069
 8629SOL     OW26794   4.112   3.005   7.261 -0.0050 -0.2240  0.1765
 8629SOL    HW126795   4.164   2.937   7.219 -0.6549  0.0752 -1.1539
 8629SOL    HW226796   4.169   3.081   7.265 -0.8308  0.7361 -3.0802
 8630SOL     OW26797   4.903   6.134   6.178  0.0745  0.1740  0.0891
 8630SOL    HW126798   4.899   6.173   6.265  0.3057  0.7514 -0.1541
 8630SOL    HW226799   4.970   6.066   6.185 -0.7694 -0.6131  0.6780
 8631SOL     OW26800   3.732   3.715   2.743  0.1870 -0.1435  0.0215
 8631SOL    HW126801   3.784   3.649   2.697  0.5442 -0.6392  1.0822
 8631SOL    HW226802   3.791   3.750   2.810 -0.7797 -0.6436  1.1831
 8632SOL     OW26803   6.773   2.690   3.186 -0.2479  0.3277  0.1543
 8632SOL    HW126804   6.703   2.738   3.141 -0.7156 -0.7078 -0.2655
 8632SOL    HW226805   6.757   2.599   3.163  0.0242 -0.1503  1.7439
 8633SOL     OW26806   0.657   2.077   6.824 -0.2176  0.4612  0.1565
 8633SOL    HW126807   0.742   2.046   6.858 -0.6609  0.7451  1.5890
 8633SOL    HW226808   0.678   2.112   6.737  1.1531  0.5974  0.5068
 8634SOL     OW26809   6.798   0.261   5.652 -0.3864 -0.2138  0.3380
 8634SOL    HW126810   6.839   0.209   5.721 -0.5153 -0.7968 -0.0166
 8634SOL    HW226811   6.760   0.336   5.697  0.4570 -0.0276  0.7634
 8635SOL     OW26812   3.822   6.602   2.743 -0.1744  0.5602 -0.6190
 8635SOL    HW126813   3.847   6.535   2.807  0.2313 -1.7290 -2.9722
 8635SOL    HW226814   3.778   6.553   2.673 -3.2825  3.3164 -0.8099
 8636SOL     OW26815   7.333   1.900   3.096 -0.3454 -0.4405 -0.6508
 8636SOL    HW126816   7.285   1.837   3.150 -0.1295  0.7878  1.0325
 8636SOL    HW226817   7.290   1.896   3.011 -2.8119 -0.1257  0.4998
 8637SOL     OW26818   4.235   7.745   4.099  0.5033  0.0275 -0.0211
 8637SOL    HW126819   4.238   7.785   4.186  0.1876  1.4369 -0.6197
 8637SOL    HW226820   4.325   7.749   4.067  0.6689 -0.7365  0.3372
 8638SOL     OW26821   3.562   6.011   5.492  0.3734  0.1223 -0.5337
 8638SOL    HW126822   3.531   5.940   5.548  1.2029  0.5220  0.4504
 8638SOL    HW226823   3.653   6.023   5.516  0.2377  1.5594 -0.6539
 8639SOL     OW26824   4.718   7.230   3.440  0.6891 -0.1762  0.2387
 8639SOL    HW126825   4.663   7.299   3.402 -0.2195 -0.3168  1.2430
 8639SOL    HW226826   4.807   7.255   3.416  0.2847  0.6930 -0.4424
 8640SOL     OW26827   3.624   6.805   2.789 -0.1504  0.4511 -0.9433
 8640SOL    HW126828   3.644   6.850   2.871  0.2112 -0.1879 -0.6791
 8640SOL    HW226829   3.694   6.741   2.778 -0.5097  0.1311 -1.4561
 8641SOL     OW26830   5.468   6.259   2.253 -0.1167  0.5011  0.0733
 8641SOL    HW126831   5.499   6.200   2.321  1.3554  0.9013 -0.2198
 8641SOL    HW226832   5.419   6.326   2.300  1.0456  0.8807  0.7925
 8642SOL     OW26833   2.834   0.072   2.713  0.6568 -0.3043  0.4851
 8642SOL    HW126834   2.742   0.100   2.709  0.1670 -1.9551 -1.3575
 8642SOL    HW226835   2.884   0.149   2.685 -0.3721 -0.1554 -1.0274
 8643SOL     OW26836   3.808   0.433   0.846  0.0978 -0.7586 -0.3170
 8643SOL    HW126837   3.852   0.474   0.771 -0.9975  0.7120 -0.2071
 8643SOL    HW226838   3.848   0.475   0.923 -0.2566 -0.6893 -0.1662
 8644SOL     OW26839   1.969   5.388   4.316 -0.2160  0.2108  0.5148
 8644SOL    HW126840   1.888   5.340   4.301 -0.5830  0.5881  1.2433
 8644SOL    HW226841   1.957   5.430   4.401  2.1451 -2.6818  2.4773
 8645SOL     OW26842   3.697   3.939   5.408 -0.3606 -0.0821 -0.0563
 8645SOL    HW126843   3.640   4.002   5.363  1.4403  0.3403 -1.8989
 8645SOL    HW226844   3.664   3.853   5.380 -1.5848  0.0528  0.8800
 8646SOL     OW26845   2.378   6.357   2.467  0.5606 -0.1499 -0.3836
 8646SOL    HW126846   2.470   6.351   2.492  0.1306  1.4004  1.7906
 8646SOL    HW226847   2.338   6.278   2.504  0.9804 -0.7720 -1.2404
 8647SOL     OW26848   4.765   2.111   5.394 -0.2520  0.9630  0.4042
 8647SOL    HW126849   4.854   2.110   5.427  0.4648  0.7736 -1.4118
 8647SOL    HW226850   4.763   2.042   5.327 -1.7836  0.8913  0.4830
 8648SOL     OW26851   2.151   5.219   1.812 -0.0913 -0.0175 -0.3160
 8648SOL    HW126852   2.139   5.129   1.839 -0.3275  0.0957 -0.0449
 8648SOL    HW226853   2.062   5.252   1.798 -0.0265  0.3236  0.0742
 8649SOL     OW26854   2.223   1.728   3.548 -0.5914  0.2445 -0.4948
 8649SOL    HW126855   2.182   1.814   3.545 -0.1436  0.4401 -1.3145
 8649SOL    HW226856   2.182   1.684   3.623 -0.8962  1.1239 -0.1405
 8650SOL     OW26857   6.232   6.889   2.881  0.0809 -0.3291  0.0181
 8650SOL    HW126858   6.201   6.925   2.797  1.5894 -0.7823 -0.7621
 8650SOL    HW226859   6.157   6.899   2.940  0.1957  3.7489 -0.2210
 8651SOL     OW26860   4.647   6.895   3.158 -0.1110 -0.6705 -0.4978
 8651SOL    HW126861   4.704   6.955   3.110 -1.3728  0.4501 -0.6435
 8651SOL    HW226862   4.630   6.939   3.242 -0.8212 -0.9404 -0.4919
 8652SOL     OW26863   1.597   5.953   3.064  0.1016 -0.5030  0.1492
 8652SOL    HW126864   1.648   5.965   2.984 -1.9044 -1.2049 -1.3188
 8652SOL    HW226865   1.506   5.947   3.034 -0.7763 -0.3794  2.5340
 8653SOL     OW26866   6.146   5.038   1.713  0.2484 -0.3560 -0.1458
 8653SOL    HW126867   6.152   5.129   1.743 -0.6498  0.3335 -1.8921
 8653SOL    HW226868   6.155   4.986   1.793 -2.9389  1.3336  1.5315
 8654SOL     OW26869   1.274   2.198   5.545 -0.1883 -0.3828 -0.0160
 8654SOL    HW126870   1.284   2.258   5.472  0.5089  2.6448  2.3545
 8654SOL    HW226871   1.316   2.117   5.516  1.2409  1.1290 -2.4851
 8655SOL     OW26872   7.421   6.913   6.281  0.4679  0.5456 -0.6374
 8655SOL    HW126873   7.388   6.942   6.366 -1.8538 -0.0840 -1.2672
 8655SOL    HW226874   7.501   6.965   6.268 -0.1289  2.0045  1.0724
 8656SOL     OW26875   2.887   6.392   7.650 -0.2621 -0.0674  1.8208
 8656SOL    HW126876   2.964   6.407   7.596 -1.5084 -0.9661 -0.3016
 8656SOL    HW226877   2.877   6.473   7.701  0.5987  1.0623  0.2696
 8657SOL     OW26878   0.727   0.412   1.134  0.2994 -0.2820  0.5884
 8657SOL    HW126879   0.744   0.448   1.221  0.6094  1.8864 -0.3171
 8657SOL    HW226880   0.802   0.355   1.116 -0.3192 -1.6727  2.1574
 8658SOL     OW26881   6.710   0.313   3.865 -0.1624  0.1167 -0.3516
 8658SOL    HW126882   6.674   0.289   3.780 -0.4551  1.0232 -0.4991
 8658SOL    HW226883   6.723   0.230   3.911  1.0401 -0.4622 -1.6861
 8659SOL     OW26884   6.943   7.213   3.403  0.1361  0.1013 -0.4265
 8659SOL    HW126885   6.962   7.272   3.330 -0.6758 -0.1683 -0.8704
 8659SOL    HW226886   7.020   7.156   3.409  0.5584  0.6573 -0.5387
 8660SOL     OW26887   0.209   3.465   0.266 -0.1325 -0.5209 -0.0969
 8660SOL    HW126888   0.195   3.527   0.338  0.7589 -2.0460  1.4923
 8660SOL    HW226889   0.169   3.383   0.297  0.4571 -1.2713 -1.2419
 8661SOL     OW26890   7.605   1.684   3.706  0.0048  0.4532 -0.2302
 8661SOL    HW126891   7.520   1.726   3.695  0.1340  0.4852 -1.1260
 8661SOL    HW226892   7.655   1.710   3.629  1.4015  1.7705  1.0620
 8662SOL     OW26893   3.833   7.050   3.718  0.0696 -0.1142 -0.1824
 8662SOL    HW126894   3.873   7.099   3.646 -1.7397  2.5090  0.4601
 8662SOL    HW226895   3.884   7.072   3.795  0.8772 -1.4563 -0.2998
 8663SOL     OW26896   0.932   7.728   6.047 -0.6988  0.1830  0.2397
 8663SOL    HW126897   1.000   7.712   5.982  0.7603  2.8814  0.9691
 8663SOL    HW226898   0.948   7.662   6.115 -0.5051 -0.8745 -0.8015
 8664SOL     OW26899   4.773   0.608   1.958  0.1444  0.3378 -0.9605
 8664SOL    HW126900   4.706   0.631   1.894  0.0936  1.5728 -0.4866
 8664SOL    HW226901   4.750   0.656   2.037 -0.4503 -2.0349  0.4321
 8665SOL     OW26902   5.087   2.457   2.572 -0.0429  0.1002  0.3987
 8665SOL    HW126903   5.049   2.370   2.579  0.9136 -0.3422  0.2117
 8665SOL    HW226904   5.180   2.445   2.591  0.6201  0.6394 -2.0729
 8666SOL     OW26905   5.063   3.953   5.269 -0.1456 -1.0241 -0.0698
 8666SOL    HW126906   5.126   3.894   5.309  0.5162  0.1512  0.6844
 8666SOL    HW226907   4.978   3.911   5.284  0.2656 -1.5646  0.8406
 8667SOL     OW26908   3.163   3.144   2.226 -0.3412 -0.1249  0.1356
 8667SOL    HW126909   3.188   3.081   2.293 -0.7051 -1.3592 -0.8580
 8667SOL    HW226910   3.110   3.209   2.273 -0.6680 -1.0200  1.0338
 8668SOL     OW26911   7.718   1.332   2.888 -0.0863  0.4287 -0.1590
 8668SOL    HW126912   7.648   1.367   2.834 -0.4801 -0.2464 -0.1047
 8668SOL    HW226913   7.724   1.392   2.962  0.5805  1.4561 -1.0309
 8669SOL     OW26914   7.641   1.069   4.964 -0.9212  0.3338 -0.3833
 8669SOL    HW126915   7.609   1.020   4.889  0.7750  2.6809 -2.8650
 8669SOL    HW226916   7.629   1.161   4.940  1.0042  1.2144  1.5854
 8670SOL     OW26917   2.951   0.437   5.390  0.0836 -0.1999 -0.0744
 8670SOL    HW126918   2.989   0.518   5.424 -0.8894  0.9476 -1.5778
 8670SOL    HW226919   2.905   0.399   5.464 -0.2693  1.1553  0.4317
 8671SOL     OW26920   2.339   2.642   2.405  0.0967  0.3799 -0.5584
 8671SOL    HW126921   2.374   2.684   2.325 -0.2374 -2.7065 -2.4821
 8671SOL    HW226922   2.375   2.553   2.403 -3.6385 -1.3150  0.1606
 8672SOL     OW26923   1.273   4.745   5.805 -0.1384  0.2469 -0.2812
 8672SOL    HW126924   1.204   4.799   5.844  0.1303 -0.0187  0.5886
 8672SOL    HW226925   1.229   4.661   5.786 -0.2409  0.3363 -0.4408
 8673SOL     OW26926   0.575   1.623   1.908 -0.2647  0.2420 -1.0314
 8673SOL    HW126927   0.506   1.614   1.973 -0.4131 -0.8678 -1.3200
 8673SOL    HW226928   0.655   1.597   1.954 -0.5612 -1.9503 -1.6100
 8674SOL     OW26929   0.794   5.962   2.807  0.2097  0.9637  0.4036
 8674SOL    HW126930   0.803   5.884   2.862  2.2388 -0.1648 -1.3766
 8674SOL    HW226931   0.710   5.949   2.762  0.2928  0.0177  0.4833
 8675SOL     OW26932   0.547   5.620   0.660 -0.2525  0.2466 -0.5754
 8675SOL    HW126933   0.506   5.643   0.576 -0.8622  0.2494 -0.2828
 8675SOL    HW226934   0.498   5.544   0.691 -1.1521  1.2401  0.5632
 8676SOL     OW26935   1.975   4.534   4.635 -0.2085  0.4726 -0.5686
 8676SOL    HW126936   1.947   4.455   4.681 -1.2892  0.5374 -1.0966
 8676SOL    HW226937   1.978   4.509   4.543 -1.8842  1.3760 -0.9075
 8677SOL     OW26938   7.637   0.873   6.419  0.3129 -0.4673  0.0696
 8677SOL    HW126939   7.706   0.821   6.459 -0.2691 -1.2910  0.0299
 8677SOL    HW226940   7.670   0.963   6.421  0.8577 -0.6727  1.1818
 8678SOL     OW26941   6.385   0.349   7.537 -0.3585 -0.3349  0.1937
 8678SOL    HW126942   6.352   0.438   7.521 -1.8916 -0.9608 -0.3393
 8678SOL    HW226943   6.310   0.303   7.574  0.8577 -1.0415  1.8703
 8679SOL     OW26944   2.830   3.427   5.602 -0.5929 -0.0061  0.3574
 8679SOL    HW126945   2.880   3.408   5.682 -1.4596 -0.4009  0.8166
 8679SOL    HW226946   2.817   3.341   5.561  2.0925  0.4122 -1.6254
 8680SOL     OW26947   3.966   4.542   5.634  0.1419 -0.0596 -0.1012
 8680SOL    HW126948   4.047   4.563   5.680  0.2505  0.4536 -0.5144
 8680SOL    HW226949   3.992   4.479   5.567  0.3756  0.7599 -0.8054
 8681SOL     OW26950   5.848   4.944   5.427 -0.3238  0.3523  0.4436
 8681SOL    HW126951   5.832   4.883   5.499 -0.2571  1.2739  1.2554
 8681SOL    HW226952   5.859   4.887   5.350 -0.8781 -0.6210  1.0589
 8682SOL     OW26953   3.361   5.732   6.308  0.0904  0.3050  0.1762
 8682SOL    HW126954   3.301   5.806   6.306 -0.5949 -0.2522 -0.2450
 8682SOL    HW226955   3.331   5.674   6.237  2.0365  0.7298 -1.0714
 8683SOL     OW26956   3.084   7.515   2.171  0.0975 -0.2122  0.0254
 8683SOL    HW126957   3.163   7.534   2.120 -0.1195 -1.1784 -0.7152
 8683SOL    HW226958   3.099   7.557   2.255  0.4248  1.5480 -0.8572
 8684SOL     OW26959   4.571   4.545   0.241  0.8333 -0.4419  0.0943
 8684SOL    HW126960   4.588   4.637   0.259  0.5534 -0.7349  2.0028
 8684SOL    HW226961   4.621   4.527   0.161  2.4853  0.8457  0.7886
 8685SOL     OW26962   1.571   7.415   2.853 -0.4192  1.0985  0.2745
 8685SOL    HW126963   1.504   7.464   2.901 -1.6385  0.1970 -0.4573
 8685SOL    HW226964   1.605   7.352   2.917  1.0096  2.6802  1.1584
 8686SOL     OW26965   7.731   6.424   3.950 -0.3151  0.2045 -0.1922
 8686SOL    HW126966   7.811   6.402   3.901 -1.6594 -0.3289 -2.2898
 8686SOL    HW226967   7.725   6.519   3.944  0.7438  0.3657  0.9895
 8687SOL     OW26968   6.193   3.537   0.000 -0.5706 -0.5144 -0.0035
 8687SOL    HW126969   6.172   3.459  -0.051 -0.4425 -0.7416  0.2832
 8687SOL    HW226970   6.271   3.573  -0.042 -0.3935 -0.7691  0.1050
 8688SOL     OW26971   2.642   6.561   5.367  0.4036  0.4212  0.1951
 8688SOL    HW126972   2.725   6.515   5.380 -0.6197 -1.8540 -0.5955
 8688SOL    HW226973   2.666   6.643   5.324  2.2375 -0.2212 -0.1056
 8689SOL     OW26974   5.133   5.446   6.515  0.2209 -0.3003 -0.1810
 8689SOL    HW126975   5.140   5.518   6.578 -0.1364 -0.4359  0.0144
 8689SOL    HW226976   5.039   5.429   6.509  0.3595 -1.2897  0.3797
 8690SOL     OW26977   7.660   6.807   6.856  0.0438 -0.1099  0.0468
 8690SOL    HW126978   7.632   6.863   6.783  1.2773  0.0264 -0.3492
 8690SOL    HW226979   7.588   6.746   6.869 -1.1164  1.2302  0.1427
 8691SOL     OW26980   1.137   3.128   6.320  0.1547 -0.1174 -0.1078
 8691SOL    HW126981   1.128   3.035   6.298  2.0146 -0.9047  2.0585
 8691SOL    HW226982   1.209   3.159   6.266 -0.7983  0.2544 -1.2104
 8692SOL     OW26983   1.387   7.339   1.623  0.7083  0.5087 -0.0491
 8692SOL    HW126984   1.343   7.262   1.588  0.5478  0.0448  1.1541
 8692SOL    HW226985   1.469   7.344   1.573 -0.1533  0.7218 -1.5006
 8693SOL     OW26986   6.330   5.743   6.452 -0.8241  0.1350 -0.3997
 8693SOL    HW126987   6.273   5.730   6.528 -1.1718  1.1917 -0.4642
 8693SOL    HW226988   6.312   5.667   6.396 -1.8054  0.1971 -0.1894
 8694SOL     OW26989   2.808   2.533   1.870 -0.1587 -0.2939  0.3347
 8694SOL    HW126990   2.847   2.602   1.817  0.0099 -0.5976  0.0636
 8694SOL    HW226991   2.790   2.461   1.809  1.2018 -1.1434  0.8886
 8695SOL     OW26992   7.606   4.469   4.018 -0.3938  0.1954 -0.3901
 8695SOL    HW126993   7.694   4.495   3.992  0.5967 -1.6159  0.9361
 8695SOL    HW226994   7.577   4.407   3.951  0.0567 -0.5138  0.0595
 8696SOL     OW26995   3.146   2.593   7.393  0.0939  0.3861  0.2295
 8696SOL    HW126996   3.110   2.534   7.326  0.7728 -1.7497  1.6352
 8696SOL    HW226997   3.233   2.616   7.360 -0.5114  1.3911 -0.7487
 8697SOL     OW26998   5.510   1.321   4.593  0.5135 -0.0469 -0.7571
 8697SOL    HW126999   5.517   1.331   4.499 -0.3180 -3.1447 -1.2565
 8697SOL    HW227000   5.457   1.242   4.605 -1.7235  1.6994  2.3380
 8698SOL     OW27001   6.626   5.620   5.558  0.0095 -0.1991 -0.1597
 8698SOL    HW127002   6.683   5.690   5.527  0.3685  0.3358  1.6015
 8698SOL    HW227003   6.617   5.562   5.483 -0.2049  1.6429 -1.6558
 8699SOL     OW27004   7.015   2.709   3.473  0.6012  0.1277  0.0871
 8699SOL    HW127005   7.023   2.617   3.447 -1.1635 -0.7439  2.2610
 8699SOL    HW227006   7.008   2.757   3.391  1.9823 -1.6072 -1.1272
 8700SOL     OW27007   0.555   0.003   7.583 -0.0475  0.2423  0.2228
 8700SOL    HW127008   0.544  -0.089   7.609 -1.3512  0.8084  1.8713
 8700SOL    HW227009   0.470   0.043   7.601  1.4726  2.5686  3.1124
 8701SOL     OW27010   4.895   1.289   0.949 -0.5719 -0.3317 -0.3712
 8701SOL    HW127011   4.958   1.353   0.982 -0.1980 -0.1186 -1.4712
 8701SOL    HW227012   4.823   1.342   0.915 -1.0827 -0.5600  0.3190
 8702SOL     OW27013   7.100   3.575   6.215 -0.1159  0.1875 -0.4021
 8702SOL    HW127014   7.029   3.639   6.211  1.2334  1.8812  0.8502
 8702SOL    HW227015   7.136   3.573   6.127 -0.7935  0.4302 -0.6874
 8703SOL     OW27016   5.990   0.401   5.470 -0.8134  0.9567  0.1416
 8703SOL    HW127017   6.012   0.351   5.548  0.2078  1.3453  0.1081
 8703SOL    HW227018   5.951   0.482   5.503 -0.6049  1.0151  0.2462
 8704SOL     OW27019   2.429   4.250   4.816 -0.1021 -0.7873  0.1029
 8704SOL    HW127020   2.392   4.323   4.867 -2.0118 -1.4225 -0.2689
 8704SOL    HW227021   2.518   4.277   4.796 -0.7438  1.4757 -0.0156
 8705SOL     OW27022   1.878   0.329   0.104  0.1179 -0.2395  0.1232
 8705SOL    HW127023   1.857   0.420   0.079  0.0636  0.4045  2.3450
 8705SOL    HW227024   1.939   0.337   0.177  0.5957 -2.0201 -0.0323
 8706SOL     OW27025   0.629   6.523   5.554 -0.1851  0.9058  0.0863
 8706SOL    HW127026   0.580   6.596   5.593  0.6287  0.8249  1.3286
 8706SOL    HW227027   0.705   6.512   5.612  0.3358 -0.1465 -0.7674
 8707SOL     OW27028   2.617   2.581   7.226  0.2653  0.8453 -0.6452
 8707SOL    HW127029   2.610   2.676   7.219  0.6494  0.8022 -1.7988
 8707SOL    HW227030   2.692   2.567   7.283 -0.1580  1.2234  0.0225
 8708SOL     OW27031   7.618   4.911   0.529 -0.1489 -0.0477 -0.5883
 8708SOL    HW127032   7.636   4.998   0.565  0.3856 -0.2146 -0.4486
 8708SOL    HW227033   7.538   4.922   0.478 -0.3410  0.4210 -0.1832
 8709SOL     OW27034   2.999   2.764   1.998 -0.2087  0.2895  0.6679
 8709SOL    HW127035   3.036   2.677   1.986 -3.2832 -1.4349  2.3022
 8709SOL    HW227036   3.074   2.821   2.012  2.0323 -1.6716 -2.3286
 8710SOL     OW27037   0.770   1.006   2.000  0.3783  1.1290  0.3676
 8710SOL    HW127038   0.854   0.980   2.036  0.6571  0.5786 -0.6405
 8710SOL    HW227039   0.706   0.977   2.065  1.0161  3.0343  1.9598
 8711SOL     OW27040   0.376   3.297   6.420 -0.2065  0.2630  0.0177
 8711SOL    HW127041   0.418   3.225   6.372 -0.1472  0.5526 -0.3716
 8711SOL    HW227042   0.406   3.286   6.510 -0.8433 -0.6828  0.1301
 8712SOL     OW27043   6.230   0.937   7.486 -0.0859 -0.2847  0.1126
 8712SOL    HW127044   6.203   1.025   7.461  0.8321  0.0294  0.2048
 8712SOL    HW227045   6.320   0.930   7.456 -0.6125 -1.7437 -1.2972
 8713SOL     OW27046   6.995   6.619   3.013 -0.6472 -0.2445 -0.0770
 8713SOL    HW127047   6.951   6.616   2.927  0.5854 -0.9328 -0.7220
 8713SOL    HW227048   6.984   6.709   3.043  0.8813  0.6940 -2.0658
 8714SOL     OW27049   7.231   4.000   0.436 -0.0627  0.1284 -0.5196
 8714SOL    HW127050   7.297   3.959   0.491 -0.1060  0.9953  0.1997
 8714SOL    HW227051   7.162   3.934   0.427 -0.7453  0.4314  1.7044
 8715SOL     OW27052   0.770   5.737   2.957 -0.0143 -0.2534  0.1490
 8715SOL    HW127053   0.680   5.705   2.955  0.1337 -0.7604  1.1020
 8715SOL    HW227054   0.823   5.658   2.964  0.6541 -0.1152 -2.4027
 8716SOL     OW27055   2.870   6.507   3.461 -0.3458  0.6842 -0.1042
 8716SOL    HW127056   2.879   6.520   3.367  0.1976 -0.7415 -0.2753
 8716SOL    HW227057   2.790   6.554   3.485 -1.7443 -0.8166 -1.6685
 8717SOL     OW27058   3.749   4.487   6.409  0.5086  0.1421 -0.2685
 8717SOL    HW127059   3.753   4.428   6.484  0.0364  0.4405 -0.0029
 8717SOL    HW227060   3.828   4.540   6.415  0.7286 -0.1831 -0.2767
 8718SOL     OW27061   6.016   2.192   6.580  1.1374  0.1147 -0.3092
 8718SOL    HW127062   6.026   2.102   6.611  0.0608  0.5466  1.4339
 8718SOL    HW227063   6.105   2.226   6.573  1.4942  0.0643  2.7040
 8719SOL     OW27064   1.745   5.844   6.857  0.3552 -0.2286 -0.1158
 8719SOL    HW127065   1.757   5.807   6.945  0.0369 -0.1018 -0.0148
 8719SOL    HW227066   1.692   5.922   6.872  0.8922  0.1798 -0.3482
 8720SOL     OW27067   1.398   1.191   4.084 -0.1439  0.3391 -0.1292
 8720SOL    HW127068   1.393   1.169   4.177 -3.8244  1.0247 -0.0332
 8720SOL    HW227069   1.414   1.108   4.040  1.1605 -0.0585  1.0524
 8721SOL     OW27070   7.435   4.322   2.848  0.0133  0.3110 -0.3183
 8721SOL    HW127071   7.515   4.373   2.848 -0.1025  0.5580  1.6272
 8721SOL    HW227072   7.368   4.383   2.816  0.5470  0.1173 -1.8961
 8722SOL     OW27073   3.534   4.242   1.134 -0.4444  0.1748 -0.0042
 8722SOL    HW127074   3.586   4.182   1.188 -1.2746 -1.0204 -0.4920
 8722SOL    HW227075   3.595   4.270   1.066  0.3369  0.9565  0.9758
 8723SOL     OW27076   2.401   4.106   4.075  0.3263 -0.4544  0.3782
 8723SOL    HW127077   2.441   4.040   4.132  0.0980  0.7895  2.0645
 8723SOL    HW227078   2.347   4.056   4.014  2.3177 -1.9918 -0.2280
 8724SOL     OW27079   4.179   1.827   2.058  0.3481 -0.4556 -0.0086
 8724SOL    HW127080   4.231   1.796   2.132  1.2685 -2.0734 -1.2704
 8724SOL    HW227081   4.240   1.880   2.007  0.1503 -0.5770 -0.3729
 8725SOL     OW27082   0.153   6.677   3.320  0.3372 -0.0608  0.1650
 8725SOL    HW127083   0.222   6.741   3.335  0.1155  0.3940 -0.6842
 8725SOL    HW227084   0.128   6.647   3.407  2.4847 -1.1858  0.4555
 8726SOL     OW27085   1.230   5.392   3.292 -0.4132  0.2159 -0.1295
 8726SOL    HW127086   1.164   5.327   3.268  0.5158 -0.4783 -0.8601
 8726SOL    HW227087   1.194   5.435   3.370 -1.4638 -0.5312 -0.1859
 8727SOL     OW27088   3.182   1.170   1.519  0.0801 -0.9566 -0.4970
 8727SOL    HW127089   3.212   1.253   1.556 -1.3230 -0.5541 -0.1958
 8727SOL    HW227090   3.253   1.108   1.538  1.9657  0.5231 -2.3160
 8728SOL     OW27091   2.460   1.307   5.506  0.1840 -0.4515 -0.3311
 8728SOL    HW127092   2.440   1.374   5.440  1.3610  3.9266  3.2717
 8728SOL    HW227093   2.549   1.277   5.483 -0.5326 -1.3000 -2.2597
 8729SOL     OW27094   6.365   1.702   1.232  0.2408 -0.7385 -0.4581
 8729SOL    HW127095   6.279   1.660   1.232 -0.2848  0.3051 -0.9950
 8729SOL    HW227096   6.405   1.675   1.149  0.1238 -0.6137 -0.5549
 8730SOL     OW27097   3.620   7.335   4.280 -0.1992  0.2269  0.4688
 8730SOL    HW127098   3.639   7.367   4.191 -1.7469 -1.0426 -0.3757
 8730SOL    HW227099   3.589   7.413   4.327 -1.4805  0.5316 -0.7960
 8731SOL     OW27100   4.201   2.008   4.544 -0.1840 -0.3997 -0.4377
 8731SOL    HW127101   4.201   1.977   4.635 -3.2373 -0.5216 -0.3919
 8731SOL    HW227102   4.251   2.090   4.548  0.6576 -0.9338  1.1225
 8732SOL     OW27103   3.605   7.243   6.075 -0.1935  0.4761 -0.6229
 8732SOL    HW127104   3.523   7.278   6.041 -0.9324  0.5864  1.1340
 8732SOL    HW227105   3.580   7.198   6.156  1.1357 -1.6654 -1.3098
 8733SOL     OW27106   6.132   3.041   4.860  0.0460  0.2065 -0.0635
 8733SOL    HW127107   6.129   3.053   4.765  0.1991  3.6456  0.2273
 8733SOL    HW227108   6.058   2.985   4.881 -0.2869 -0.1787 -2.1525
 8734SOL     OW27109   3.054   0.550   1.734 -0.1255  0.0424 -0.0760
 8734SOL    HW127110   3.105   0.614   1.785 -3.0728  0.1796  3.0803
 8734SOL    HW227111   3.006   0.603   1.671 -0.0591  0.5364  0.2762
 8735SOL     OW27112   6.416   6.273   7.077 -0.2239  0.2441 -0.3235
 8735SOL    HW127113   6.495   6.256   7.129  0.1499 -0.7538 -1.1747
 8735SOL    HW227114   6.345   6.233   7.128  0.4204 -2.6108 -1.4995
 8736SOL     OW27115   6.236   0.583   5.130  0.5134  0.4075  0.2062
 8736SOL    HW127116   6.172   0.535   5.077 -0.0577  1.5973 -0.2246
 8736SOL    HW227117   6.276   0.517   5.186 -0.8415 -0.4242  0.2204
 8737SOL     OW27118   7.052   6.088   1.936 -0.2552  0.0060 -0.7163
 8737SOL    HW127119   7.017   6.177   1.943  1.3025  0.6069  0.0119
 8737SOL    HW227120   7.147   6.099   1.947  0.3530 -1.4113 -3.5914
 8738SOL     OW27121   5.687   0.843   0.969  0.3942  0.0417 -0.0492
 8738SOL    HW127122   5.659   0.857   1.059 -0.0919  0.4215 -0.2533
 8738SOL    HW227123   5.617   0.882   0.916  1.2204  0.8533 -0.5733
 8739SOL     OW27124   2.435   4.921   6.203 -0.1015  0.1176 -0.1250
 8739SOL    HW127125   2.417   4.828   6.193 -0.4133  0.1058  0.4885
 8739SOL    HW227126   2.361   4.964   6.159 -1.5003  0.0661  2.0154
 8740SOL     OW27127   2.496   4.752   1.383 -0.1365 -0.5141  0.3606
 8740SOL    HW127128   2.431   4.738   1.452 -1.1910 -0.3895 -0.5854
 8740SOL    HW227129   2.448   4.794   1.313  0.9368 -0.5811 -0.4399
 8741SOL     OW27130   2.036   3.815   7.506  0.3862  0.5966 -0.1561
 8741SOL    HW127131   1.955   3.802   7.456 -0.5861  1.8479  1.0302
 8741SOL    HW227132   2.052   3.909   7.501  1.8251  0.3487 -0.4362
 8742SOL     OW27133   5.416   4.077   2.204 -0.1669  0.1338 -0.4078
 8742SOL    HW127134   5.335   4.092   2.253 -0.2084  2.3609 -1.0411
 8742SOL    HW227135   5.463   4.011   2.255 -2.6190 -1.7115 -0.3710
 8743SOL     OW27136   5.193   5.025   3.039 -0.2499 -0.1801 -0.0235
 8743SOL    HW127137   5.170   4.959   2.973 -0.1301  0.0544 -0.3034
 8743SOL    HW227138   5.134   5.007   3.112 -1.3038  0.3702 -0.7014
 8744SOL     OW27139   1.051   1.746   2.293  0.3287 -0.2182  0.0468
 8744SOL    HW127140   0.960   1.742   2.263  0.5951 -1.3919 -0.6817
 8744SOL    HW227141   1.060   1.670   2.351  0.7332  0.1342  0.4490
 8745SOL     OW27142   2.574   0.067   1.964 -0.4869 -0.4352  0.0226
 8745SOL    HW127143   2.592   0.127   2.037 -0.7346  0.1182 -0.3636
 8745SOL    HW227144   2.634  -0.006   1.978  0.7314  0.4849 -0.1861
 8746SOL     OW27145   6.045   2.544   0.182  0.0312  0.2018  0.2425
 8746SOL    HW127146   6.112   2.607   0.157  0.7021 -0.3134  0.6825
 8746SOL    HW227147   6.067   2.521   0.273 -1.5980  1.0990  0.8895
 8747SOL     OW27148   5.560   2.415   2.824 -0.0885 -0.0637 -0.3308
 8747SOL    HW127149   5.568   2.340   2.765  0.4524 -1.0900  1.0117
 8747SOL    HW227150   5.514   2.381   2.900 -0.7302  1.2345 -0.1182
 8748SOL     OW27151   0.142   3.134   5.586 -0.5074 -0.0035  0.0058
 8748SOL    HW127152   0.064   3.166   5.631 -0.5628 -1.6000  1.1265
 8748SOL    HW227153   0.203   3.112   5.657 -0.2703 -1.7957 -0.6981
 8749SOL     OW27154   5.247   4.742   1.091  0.6823  0.2391  0.4567
 8749SOL    HW127155   5.334   4.708   1.107  0.9225  1.3598  1.6415
 8749SOL    HW227156   5.208   4.681   1.028  1.2220 -1.9776  2.1837
 8750SOL     OW27157   5.268   2.510   3.635  0.1047 -0.6868  0.6323
 8750SOL    HW127158   5.214   2.527   3.557  1.6463  2.5269  0.0814
 8750SOL    HW227159   5.357   2.499   3.600  0.6626 -0.2799  1.8701
 8751SOL     OW27160   3.667   6.678   7.327  0.3680  0.6532 -0.5143
 8751SOL    HW127161   3.676   6.648   7.418  1.3140 -0.9416 -1.0862
 8751SOL    HW227162   3.656   6.598   7.277 -0.9789  1.5711 -1.7443
 8752SOL     OW27163   5.314   0.555   6.709 -0.5827  0.7074  0.1060
 8752SOL    HW127164   5.312   0.466   6.745 -0.3425  0.5995 -0.1430
 8752SOL    HW227165   5.230   0.593   6.734 -1.0482  0.1185 -0.5162
 8753SOL     OW27166   2.693   0.695   3.136 -0.0703 -0.2532  0.4772
 8753SOL    HW127167   2.658   0.704   3.048 -1.0776 -2.4792  0.5769
 8753SOL    HW227168   2.768   0.637   3.126 -0.7601 -1.3030  1.1643
 8754SOL     OW27169   6.271   4.568   2.491 -0.1068  0.0303  0.1028
 8754SOL    HW127170   6.272   4.602   2.581  0.8538  0.2499  0.0207
 8754SOL    HW227171   6.329   4.492   2.494 -0.2173 -0.0726 -0.2986
 8755SOL     OW27172   4.778   5.980   7.632 -0.2952  0.6652  0.0601
 8755SOL    HW127173   4.750   6.047   7.569  1.7955  0.6287 -1.0345
 8755SOL    HW227174   4.809   5.908   7.577 -0.1136 -0.1416  1.1838
 8756SOL     OW27175   4.319   5.066   0.163 -0.0941 -0.0773 -0.2694
 8756SOL    HW127176   4.264   5.079   0.085 -0.8479  0.9839  0.4157
 8756SOL    HW227177   4.326   4.971   0.171  0.7485 -0.2119 -2.1420
 8757SOL     OW27178   0.545   2.148   6.090  0.0557  0.7607 -0.8921
 8757SOL    HW127179   0.546   2.143   6.186  0.2026  1.4937 -0.8506
 8757SOL    HW227180   0.454   2.135   6.066 -0.0095  0.7495 -0.6391
 8758SOL     OW27181   1.498   3.171   7.061  0.1670  0.3015  0.2078
 8758SOL    HW127182   1.474   3.165   7.153 -0.0681 -1.7419  0.0641
 8758SOL    HW227183   1.540   3.086   7.042 -1.1186  0.0862 -1.9150
 8759SOL     OW27184   1.732   5.467   4.896 -0.6266  0.1683  0.0745
 8759SOL    HW127185   1.697   5.556   4.906 -0.4603  0.0109  2.6560
 8759SOL    HW227186   1.827   5.479   4.892 -0.6408  0.1446 -0.4257
 8760SOL     OW27187   7.252   1.164   3.122 -0.4205  0.0089 -0.3161
 8760SOL    HW127188   7.250   1.180   3.217 -0.3140 -0.2810 -0.2643
 8760SOL    HW227189   7.334   1.117   3.108 -0.2600  0.3713 -0.6061
 8761SOL     OW27190   5.908   3.266   1.725  0.5907 -0.1366  0.1276
 8761SOL    HW127191   5.887   3.359   1.723  1.0548 -0.0189  0.6083
 8761SOL    HW227192   5.851   3.230   1.793  0.6727 -0.1389  0.1949
 8762SOL     OW27193   1.815   4.034   2.879  0.0990 -0.4918 -0.4492
 8762SOL    HW127194   1.729   4.032   2.921  0.3319 -1.1790  0.0071
 8762SOL    HW227195   1.877   4.030   2.951  0.5223  0.0313 -0.7759
 8763SOL     OW27196   0.623   2.237   6.570 -0.1505  0.1420 -0.0647
 8763SOL    HW127197   0.569   2.195   6.502  2.6039 -0.3282 -2.1721
 8763SOL    HW227198   0.646   2.322   6.532 -0.2940  0.7980  1.2771
 8764SOL     OW27199   6.846   1.055   6.747  0.3050 -0.4124 -0.2811
 8764SOL    HW127200   6.936   1.050   6.713  0.1447 -0.1920 -0.7355
 8764SOL    HW227201   6.847   0.997   6.823  0.2433 -2.2168 -1.5848
 8765SOL     OW27202   5.703   1.809   1.802 -0.0227 -0.7026 -0.5882
 8765SOL    HW127203   5.789   1.768   1.791  0.1041 -0.7879  0.5550
 8765SOL    HW227204   5.709   1.853   1.887 -0.0669  1.9706 -1.8906
 8766SOL     OW27205   5.077   4.119   0.184  0.4567 -0.1145  0.0464
 8766SOL    HW127206   5.093   4.198   0.235  0.3183  0.5944 -0.9667
 8766SOL    HW227207   5.103   4.142   0.095 -1.1917 -0.6409 -0.6168
 8767SOL     OW27208   4.946   1.501   1.586  0.2989  0.4994 -0.4418
 8767SOL    HW127209   4.895   1.528   1.663 -2.0948  0.1426 -1.8037
 8767SOL    HW227210   5.025   1.554   1.590 -0.7976  2.1422  1.0530
 8768SOL     OW27211   0.503   6.789   4.851  0.0178 -0.0606 -0.1286
 8768SOL    HW127212   0.452   6.822   4.924  0.4048 -0.4133  0.3154
 8768SOL    HW227213   0.594   6.802   4.878  0.1669 -0.6793 -0.3113
 8769SOL     OW27214   4.054   1.857   7.688  0.1166  0.3262 -0.2955
 8769SOL    HW127215   4.007   1.778   7.662 -0.8377  0.3897  1.1102
 8769SOL    HW227216   4.069   1.904   7.606 -0.4694 -0.6839 -1.0006
 8770SOL     OW27217   4.232   2.807   3.950 -0.0264 -0.4137  0.0409
 8770SOL    HW127218   4.298   2.828   4.016 -0.1789  3.3085 -0.7966
 8770SOL    HW227219   4.157   2.775   4.001  1.0216 -0.9522  1.3173
 8771SOL     OW27220   0.108   7.029   7.419 -0.1886 -0.1501  0.0292
 8771SOL    HW127221   0.149   7.079   7.489  1.3242 -0.1339 -0.8223
 8771SOL    HW227222   0.019   7.012   7.450 -1.1586  3.8588 -0.0237
 8772SOL     OW27223   4.333   1.586   2.448  0.3846  0.5769  0.3099
 8772SOL    HW127224   4.370   1.654   2.503  0.5057  1.1575 -0.4745
 8772SOL    HW227225   4.238   1.593   2.462  0.4814 -1.6330  3.1763
 8773SOL     OW27226   0.137   4.760   2.119 -0.6458  0.5425 -0.3754
 8773SOL    HW127227   0.140   4.833   2.058  0.1304  0.6036 -0.2747
 8773SOL    HW227228   0.157   4.799   2.204 -1.0098  0.3427 -0.1968
 8774SOL     OW27229   1.749   3.793   1.224 -0.6772  0.1776 -0.0908
 8774SOL    HW127230   1.732   3.884   1.197 -1.5675  0.7489  2.1493
 8774SOL    HW227231   1.668   3.766   1.268 -0.5494 -1.8474 -0.9961
 8775SOL     OW27232   1.063   1.455   2.395  0.8268 -0.3654  0.2741
 8775SOL    HW127233   1.037   1.420   2.310  1.9473 -0.2805 -0.1081
 8775SOL    HW227234   0.985   1.444   2.450 -0.2008  0.3879 -0.9904
 8776SOL     OW27235   7.196   3.312   2.156 -0.0266  0.4259  0.6227
 8776SOL    HW127236   7.285   3.279   2.165  0.2684  1.7124  3.7071
 8776SOL    HW227237   7.205   3.395   2.109  0.3432  0.3153  0.4984
 8777SOL     OW27238   4.882   6.445   0.888 -0.1820  0.6492  0.0900
 8777SOL    HW127239   4.929   6.516   0.932  1.5861 -1.0033  0.9777
 8777SOL    HW227240   4.902   6.458   0.795 -1.0985  2.1295  0.0561
 8778SOL     OW27241   5.658   1.655   1.259 -0.2808 -0.4376 -0.2298
 8778SOL    HW127242   5.741   1.659   1.306 -0.3304 -0.0425 -0.1664
 8778SOL    HW227243   5.662   1.574   1.209  0.7845  0.2970 -1.3875
 8779SOL     OW27244   0.474   0.270   0.180  0.2422  0.3605  0.1254
 8779SOL    HW127245   0.392   0.294   0.137 -0.1937 -1.8251 -0.3911
 8779SOL    HW227246   0.453   0.271   0.273 -0.7156 -1.1756 -0.0408
 8780SOL     OW27247   4.215   3.197   5.174 -0.0464 -0.6083  0.0537
 8780SOL    HW127248   4.257   3.267   5.123 -0.8785  0.2418  0.5018
 8780SOL    HW227249   4.237   3.117   5.127 -0.6152  0.1291 -1.5557
 8781SOL     OW27250   2.280   3.690   7.441  0.2400 -0.0509  0.0075
 8781SOL    HW127251   2.220   3.623   7.409  0.6941 -0.5819  0.2358
 8781SOL    HW227252   2.224   3.757   7.479 -0.1916 -0.9632  1.0484
 8782SOL     OW27253   5.364   4.693   7.480  0.0825  0.2953 -0.1440
 8782SOL    HW127254   5.275   4.667   7.457  0.0752 -0.6755  0.9167
 8782SOL    HW227255   5.354   4.772   7.533 -0.1734 -0.0325  0.2962
 8783SOL     OW27256   4.599   3.389   5.597 -0.1597 -0.1058 -0.0885
 8783SOL    HW127257   4.678   3.339   5.574  2.0440  2.6316  0.8621
 8783SOL    HW227258   4.602   3.465   5.539 -3.5516 -1.0465 -1.7081
 8784SOL     OW27259   4.170   7.013   3.750 -0.1750  0.9693 -0.6348
 8784SOL    HW127260   4.216   7.075   3.694  0.6984  0.6368 -0.3185
 8784SOL    HW227261   4.155   6.937   3.694  3.0345 -0.4383  0.1535
 8785SOL     OW27262   6.119   7.077   4.620  0.2059 -0.4941 -0.2304
 8785SOL    HW127263   6.033   7.085   4.662 -0.4146  0.8631 -1.6695
 8785SOL    HW227264   6.181   7.076   4.693 -0.6033  4.2399  0.8586
 8786SOL     OW27265   2.781   1.780   1.728  0.4092  0.3382 -0.3134
 8786SOL    HW127266   2.825   1.847   1.677  0.0403  0.1232 -0.9231
 8786SOL    HW227267   2.729   1.830   1.792  0.7082  0.6115 -0.2796
 8787SOL     OW27268   2.027   6.118   4.106 -0.4371 -0.0688  0.2488
 8787SOL    HW127269   2.026   6.123   4.011  3.2430  0.8826  0.0903
 8787SOL    HW227270   2.027   6.024   4.125  1.3517 -0.3657 -0.9226
 8788SOL     OW27271   6.945   0.018   0.695 -0.0873  0.2142  0.6844
 8788SOL    HW127272   6.879   0.052   0.754 -1.3410  0.3067 -0.7206
 8788SOL    HW227273   7.022   0.073   0.710 -0.9241  1.3069  1.0358
 8789SOL     OW27274   1.919   1.805   4.628 -0.4847  0.1783 -0.2760
 8789SOL    HW127275   1.836   1.831   4.668  0.1691  1.0611  0.5364
 8789SOL    HW227276   1.944   1.879   4.573 -0.7296 -0.5041 -1.3329
 8790SOL     OW27277   5.598   2.017   3.045 -0.2712  0.0735 -0.2783
 8790SOL    HW127278   5.592   1.988   3.136 -0.9984  0.7051 -0.1094
 8790SOL    HW227279   5.539   2.093   3.041  1.0734  1.1158 -0.8511
 8791SOL     OW27280   1.023   1.084   3.628  0.6968  0.0261 -0.6364
 8791SOL    HW127281   0.953   1.129   3.580 -0.4736 -0.1218  0.8746
 8791SOL    HW227282   0.978   1.014   3.676  1.8592 -0.0027  0.4542
 8792SOL     OW27283   2.791   6.053   7.074  0.2935 -0.3799  0.3996
 8792SOL    HW127284   2.720   6.079   7.133  0.4843 -0.5209  0.6946
 8792SOL    HW227285   2.821   6.136   7.035  0.3051 -0.2594  0.6596
 8793SOL     OW27286   7.629   3.041   0.653 -0.7097  0.5600  0.0340
 8793SOL    HW127287   7.724   3.030   0.665 -0.4612  1.5039 -0.8195
 8793SOL    HW227288   7.614   3.015   0.562 -0.9686  1.9061 -0.3426
 8794SOL     OW27289   4.911   0.306   2.731 -0.2305 -0.0651  0.2472
 8794SOL    HW127290   4.892   0.391   2.771  0.1546  0.3593 -0.4490
 8794SOL    HW227291   4.985   0.271   2.780 -1.3132 -0.6883  1.4963
 8795SOL     OW27292   2.856   3.566   0.881 -0.0123  0.5324  0.2926
 8795SOL    HW127293   2.933   3.512   0.899 -0.3817 -0.3566 -0.6843
 8795SOL    HW227294   2.802   3.513   0.822 -1.2878  1.2153  0.7883
 8796SOL     OW27295   6.534   1.465   2.029 -0.3647  0.0975  0.2499
 8796SOL    HW127296   6.479   1.387   2.021 -0.2616 -0.0276  0.7109
 8796SOL    HW227297   6.587   1.466   1.950 -2.2465  1.1840 -1.0740
 8797SOL     OW27298   0.950   4.990   3.056 -0.3617 -0.1072 -0.0693
 8797SOL    HW127299   0.965   4.900   3.085 -0.3415  0.4088  1.6300
 8797SOL    HW227300   0.856   4.997   3.044 -0.5727  0.0770  1.4626
 8798SOL     OW27301   6.169   1.090   6.421  0.1115  0.2724 -0.6499
 8798SOL    HW127302   6.205   1.179   6.414  0.1521  0.3770  0.6147
 8798SOL    HW227303   6.077   1.100   6.400  0.2515  0.4830 -1.1989
 8799SOL     OW27304   5.927   0.575   5.671  0.2184  0.0764  0.0316
 8799SOL    HW127305   5.860   0.639   5.649  0.7149  0.5756 -0.0323
 8799SOL    HW227306   5.907   0.549   5.761  0.8072  1.3183  0.5360
 8800SOL     OW27307   0.946   2.559   5.769  0.1347 -0.8985  0.0042
 8800SOL    HW127308   0.978   2.649   5.758  0.9107 -1.1333  0.2951
 8800SOL    HW227309   1.018   2.504   5.740  0.0293 -1.4429  0.7382
 8801SOL     OW27310   1.723   7.032   0.074 -0.6141  0.2124 -0.5898
 8801SOL    HW127311   1.685   6.991   0.152 -1.0591  0.5411 -0.6284
 8801SOL    HW227312   1.768   6.961   0.029 -0.4280  0.0014 -0.0791
 8802SOL     OW27313   4.408   5.853   1.566 -0.3272  0.1932  0.0239
 8802SOL    HW127314   4.396   5.813   1.652 -1.8007 -0.0952 -0.2896
 8802SOL    HW227315   4.362   5.937   1.571  1.0988  1.0019  0.0610
 8803SOL     OW27316   5.041   4.642   6.346 -0.3345  0.3549 -0.3447
 8803SOL    HW127317   5.094   4.717   6.372 -1.2397  1.0275 -0.4378
 8803SOL    HW227318   5.089   4.603   6.273  1.3211 -0.5175  1.1281
 8804SOL     OW27319   6.311   1.649   2.751 -0.4552  0.0165  0.0945
 8804SOL    HW127320   6.226   1.686   2.726  0.0528  0.8789 -0.3997
 8804SOL    HW227321   6.335   1.593   2.678 -1.0686 -1.0507  0.6944
 8805SOL     OW27322   4.475   7.165   3.607  0.0803 -0.0876  0.6972
 8805SOL    HW127323   4.530   7.201   3.538 -1.7920 -1.5314 -1.6972
 8805SOL    HW227324   4.520   7.084   3.633  0.0558 -0.3159  0.0553
 8806SOL     OW27325   1.400   4.688   0.493  0.5453 -0.3428  0.4838
 8806SOL    HW127326   1.327   4.739   0.527  0.5519 -1.3856  2.1305
 8806SOL    HW227327   1.367   4.599   0.486  1.3081 -0.6070  0.1236
 8807SOL     OW27328   1.617   7.259   4.337 -0.1410 -0.1560  0.0129
 8807SOL    HW127329   1.527   7.255   4.370 -0.4269  0.2596 -0.6841
 8807SOL    HW227330   1.662   7.318   4.398 -0.3538 -0.3304  0.3390
 8808SOL     OW27331   1.107   4.847   4.368 -0.2752 -0.4837  0.1980
 8808SOL    HW127332   1.128   4.905   4.295  0.1298 -1.2983 -0.3492
 8808SOL    HW227333   1.181   4.785   4.372  1.2423  1.2750  3.1498
 8809SOL     OW27334   1.487   5.908   4.873 -0.0863  0.3242  0.0058
 8809SOL    HW127335   1.483   5.976   4.939 -1.5612  0.8998 -0.6358
 8809SOL    HW227336   1.549   5.941   4.808 -0.6887  1.0162 -0.2323
 8810SOL     OW27337   3.839   3.417   0.482 -0.5408 -0.1807  0.5875
 8810SOL    HW127338   3.787   3.423   0.402 -2.9762  1.7458  2.1456
 8810SOL    HW227339   3.918   3.467   0.462  1.9206 -4.5880 -2.4189
 8811SOL     OW27340   2.844   5.762   5.836  0.1081  0.3312  0.1716
 8811SOL    HW127341   2.795   5.790   5.758  0.2056  1.3994  0.4783
 8811SOL    HW227342   2.920   5.820   5.839  0.8240 -0.5884  0.3254
 8812SOL     OW27343   7.061   2.140   7.028  0.0500 -0.0083  0.0210
 8812SOL    HW127344   7.105   2.060   7.059  0.7213  0.3127 -0.0948
 8812SOL    HW227345   6.993   2.156   7.093 -1.6887 -1.9952 -1.1535
 8813SOL     OW27346   4.804   5.834   4.679 -0.6015  0.4241  0.8626
 8813SOL    HW127347   4.781   5.908   4.622 -0.1285  0.0082  0.1183
 8813SOL    HW227348   4.824   5.763   4.619  1.0027  0.2897  1.5030
 8814SOL     OW27349   5.856   2.552   5.358 -0.0181  0.5809  0.0259
 8814SOL    HW127350   5.797   2.553   5.283  2.7926  0.5695 -2.3566
 8814SOL    HW227351   5.912   2.628   5.345  1.5130 -0.2671  1.3073
 8815SOL     OW27352   5.146   7.289   1.340 -0.5441 -0.2157  0.7059
 8815SOL    HW127353   5.062   7.243   1.327 -0.0960 -0.9113  0.1887
 8815SOL    HW227354   5.181   7.252   1.421  0.6200 -2.0976 -0.5829
 8816SOL     OW27355   5.201   6.901   3.549 -0.1793 -0.3998  0.2381
 8816SOL    HW127356   5.297   6.902   3.552 -0.1320 -1.0730 -0.6150
 8816SOL    HW227357   5.176   6.820   3.594 -0.3423 -0.2794  0.3654
 8817SOL     OW27358   1.884   5.029   5.631 -0.5123 -0.1329 -0.1573
 8817SOL    HW127359   1.902   5.021   5.725 -1.7513 -2.5550 -0.0697
 8817SOL    HW227360   1.853   5.119   5.621 -1.0312 -0.0336  1.8696
 8818SOL     OW27361   1.421   6.428   0.904  0.0936  0.0384  0.6605
 8818SOL    HW127362   1.440   6.341   0.870 -1.0522 -0.2583  0.7524
 8818SOL    HW227363   1.413   6.483   0.826  0.4321 -0.0163  0.5867
 8819SOL     OW27364   1.048   1.003   0.085  0.3996  0.0845  0.1745
 8819SOL    HW127365   1.047   0.955   0.002  1.1512  0.4361 -0.0494
 8819SOL    HW227366   0.976   0.965   0.136  0.2492 -0.4779 -0.4431
 8820SOL     OW27367   3.985   1.373   4.372 -0.2399  0.5080 -0.5794
 8820SOL    HW127368   4.014   1.330   4.291  0.1754  1.1634 -0.7859
 8820SOL    HW227369   3.896   1.404   4.352 -0.0663  0.8349 -0.8510
 8821SOL     OW27370   5.054   1.482   7.474  0.1446  0.6020 -0.2920
 8821SOL    HW127371   5.102   1.555   7.513  1.9058 -0.6580  0.0243
 8821SOL    HW227372   4.973   1.477   7.525 -0.3845  2.7575 -0.8161
 8822SOL     OW27373   1.552   1.426   6.261 -0.7234 -0.1996 -0.3945
 8822SOL    HW127374   1.572   1.370   6.186 -0.0474 -0.1549 -0.2532
 8822SOL    HW227375   1.574   1.374   6.338  0.7059  0.5190 -0.2732
 8823SOL     OW27376   5.290   3.463   6.469 -0.5317 -0.5956 -0.2506
 8823SOL    HW127377   5.328   3.494   6.552 -1.1835 -0.5141  0.0229
 8823SOL    HW227378   5.339   3.384   6.448 -0.5983 -0.8115  0.3995
 8824SOL     OW27379   2.503   3.592   0.954 -0.4197 -0.0787  0.1940
 8824SOL    HW127380   2.581   3.606   1.008 -2.4959  2.5240  2.8825
 8824SOL    HW227381   2.472   3.505   0.981  0.3871 -0.2322  0.6872
 8825SOL     OW27382   2.518   3.586   0.502 -0.8570 -0.2502  0.4841
 8825SOL    HW127383   2.458   3.638   0.555 -1.4587 -0.3764 -0.0563
 8825SOL    HW227384   2.565   3.649   0.449 -1.8335 -0.2532 -0.4245
 8826SOL     OW27385   3.668   6.103   7.528  0.4533 -0.5198  0.2506
 8826SOL    HW127386   3.763   6.116   7.533  0.6616 -2.1339  1.7171
 8826SOL    HW227387   3.643   6.074   7.616 -1.6093  0.8890  0.2010
 8827SOL     OW27388   0.558   6.401   5.963  0.4450 -0.1678  0.1655
 8827SOL    HW127389   0.562   6.337   5.892 -0.3647  1.1268 -1.0917
 8827SOL    HW227390   0.585   6.484   5.923 -1.1008  0.8159  1.0757
 8828SOL     OW27391   6.085   4.907   5.725 -0.5664  0.0416 -0.3904
 8828SOL    HW127392   6.152   4.874   5.785 -0.1989 -0.0111 -0.8145
 8828SOL    HW227393   6.002   4.889   5.768 -0.2793  0.8416  0.5092
 8829SOL     OW27394   0.659   0.395   2.118  0.2802 -0.1243  0.5960
 8829SOL    HW127395   0.578   0.346   2.110  1.3691 -1.7938 -0.9114
 8829SOL    HW227396   0.691   0.373   2.206 -0.8431  0.5333  1.1929
 8830SOL     OW27397   2.800   5.543   6.182 -0.3828 -0.2271  0.3562
 8830SOL    HW127398   2.882   5.557   6.135 -1.1888  0.4844 -0.8842
 8830SOL    HW227399   2.741   5.504   6.118 -1.5366  0.8638  0.6942
 8831SOL     OW27400   6.637   4.987   0.374 -0.0581  0.1156 -0.0005
 8831SOL    HW127401   6.627   5.050   0.445 -0.0526 -0.7262  0.7656
 8831SOL    HW227402   6.698   5.028   0.313  2.5506 -0.4484  2.0690
 8832SOL     OW27403   4.435   7.031   5.282  0.1332  0.2838  0.1444
 8832SOL    HW127404   4.378   7.020   5.357 -0.5498 -2.2794 -0.6470
 8832SOL    HW227405   4.380   7.010   5.206  1.4079  0.4143 -0.8615
 8833SOL     OW27406   0.476   0.373   3.764 -0.5640 -0.4769 -0.9140
 8833SOL    HW127407   0.538   0.302   3.783 -0.1482  0.1261  0.0492
 8833SOL    HW227408   0.418   0.375   3.841  1.6227  2.5192  0.8782
 8834SOL     OW27409   4.000   0.526   1.047 -0.1004  0.6651 -0.3774
 8834SOL    HW127410   4.012   0.620   1.060 -2.0663  1.1360 -1.4361
 8834SOL    HW227411   3.957   0.495   1.126  1.8592  0.2931  0.6119
 8835SOL     OW27412   0.246   3.987   1.570  0.8254 -0.0908  0.9263
 8835SOL    HW127413   0.250   3.989   1.666 -0.7025  1.1970  0.9935
 8835SOL    HW227414   0.154   3.969   1.550  0.7240  1.5855 -0.2828
 8836SOL     OW27415   4.018   7.103   1.891 -0.1097  0.3257  0.1813
 8836SOL    HW127416   3.956   7.172   1.867  0.8415  0.9857 -0.4947
 8836SOL    HW227417   4.103   7.148   1.892  0.7494 -1.1257 -1.7581
 8837SOL     OW27418   7.148   5.600   5.212 -0.2464 -0.0393  0.3769
 8837SOL    HW127419   7.240   5.623   5.223  0.0003 -0.3643 -0.8214
 8837SOL    HW227420   7.148   5.530   5.147 -1.3697  0.3016 -0.0242
 8838SOL     OW27421   1.792   6.866   1.119  0.5948  0.2322  0.6357
 8838SOL    HW127422   1.869   6.809   1.118  0.6030  0.2019  1.7846
 8838SOL    HW227423   1.768   6.872   1.211 -0.4077  0.7510  0.3534
 8839SOL     OW27424   1.813   4.617   4.347 -0.2249 -0.2702  0.0455
 8839SOL    HW127425   1.889   4.629   4.404 -0.2226 -1.9157  0.4487
 8839SOL    HW227426   1.849   4.586   4.264 -0.1709  2.7665 -1.1740
 8840SOL     OW27427   1.035   1.014   7.471  0.0016  0.0062 -0.3846
 8840SOL    HW127428   0.944   1.034   7.449  0.4802  1.0356 -1.5352
 8840SOL    HW227429   1.029   0.939   7.530 -1.5669 -0.1806 -0.7276
 8841SOL     OW27430   3.131   2.203   3.939 -0.1312 -0.4956  0.0871
 8841SOL    HW127431   3.048   2.235   3.903 -1.4488 -3.1007  0.6128
 8841SOL    HW227432   3.124   2.108   3.935  1.2015 -0.9073  3.7424
 8842SOL     OW27433   0.533   5.199   2.165  0.0370 -0.0106  0.4947
 8842SOL    HW127434   0.538   5.268   2.231 -0.7407  1.2521 -0.7107
 8842SOL    HW227435   0.461   5.143   2.195 -0.7265  0.9013  0.4223
 8843SOL     OW27436   6.721   5.999   1.616  0.2791 -0.5086 -0.6061
 8843SOL    HW127437   6.664   6.056   1.668 -1.3843 -2.4124 -0.2238
 8843SOL    HW227438   6.678   5.995   1.530  0.4586 -1.0523 -0.6729
 8844SOL     OW27439   1.069   7.343   1.900  0.1462  0.3034  0.6506
 8844SOL    HW127440   1.014   7.324   1.824 -1.6041 -0.5541  2.0704
 8844SOL    HW227441   1.063   7.438   1.911 -1.7262  0.1674  1.2042
 8845SOL     OW27442   4.961   5.285   1.920  0.8005  0.1727  0.0629
 8845SOL    HW127443   4.966   5.224   1.846 -0.4474 -0.1295  0.1962
 8845SOL    HW227444   4.869   5.281   1.948  1.0595  0.9231  1.0894
 8846SOL     OW27445   6.581   5.639   6.221 -1.0170  0.0055  0.1564
 8846SOL    HW127446   6.507   5.699   6.215 -1.0719 -0.0593  0.1840
 8846SOL    HW227447   6.657   5.692   6.199 -0.9663  0.2852  0.9870
 8847SOL     OW27448   1.996   2.640   6.795 -0.1938  0.0403  0.2161
 8847SOL    HW127449   1.901   2.640   6.788 -0.3198 -2.5198  0.8427
 8847SOL    HW227450   2.024   2.567   6.739  1.3059  0.1511  0.7833
 8848SOL     OW27451   0.635   2.332   1.169  0.5546  0.4783  0.1168
 8848SOL    HW127452   0.638   2.237   1.174  1.0425  0.4687 -0.1690
 8848SOL    HW227453   0.542   2.354   1.160  0.5428 -0.0857 -1.5549
 8849SOL     OW27454   2.290   4.574   0.805  0.6462 -0.4729 -0.3888
 8849SOL    HW127455   2.202   4.609   0.792  0.2160 -0.7864  1.4206
 8849SOL    HW227456   2.277   4.480   0.818  1.3797 -0.7072 -1.1991
 8850SOL     OW27457   5.304   5.563   5.703 -0.0669 -0.4501 -0.0222
 8850SOL    HW127458   5.398   5.552   5.718 -0.1254  0.9944  1.6257
 8850SOL    HW227459   5.273   5.474   5.684  1.5303 -1.0380 -0.0422
 8851SOL     OW27460   6.296   1.837   1.810 -0.2838 -0.1840 -0.5177
 8851SOL    HW127461   6.311   1.770   1.878  0.8270  0.8146  0.2638
 8851SOL    HW227462   6.380   1.882   1.802 -0.8016  0.6325 -1.5764
 8852SOL     OW27463   1.464   3.555   6.945 -0.6570 -0.0529  0.0249
 8852SOL    HW127464   1.464   3.497   7.021  1.6990 -0.6352 -0.3370
 8852SOL    HW227465   1.518   3.630   6.971  0.6471 -0.5199 -1.2090
 8853SOL     OW27466   1.445   1.497   4.376  0.3942  0.8101  0.3538
 8853SOL    HW127467   1.390   1.426   4.408  1.7837 -0.3207  0.3167
 8853SOL    HW227468   1.483   1.535   4.456 -1.3527  2.4373  0.4917
 8854SOL     OW27469   3.071   6.973   6.925  0.0768 -0.3841  0.0841
 8854SOL    HW127470   2.976   6.958   6.918 -0.0298 -0.0793  0.7686
 8854SOL    HW227471   3.105   6.954   6.837 -0.4703 -1.5209  0.1007
 8855SOL     OW27472   4.977   0.052   1.191  0.2355  0.1115  0.4462
 8855SOL    HW127473   4.954  -0.041   1.182 -0.2806  0.1486  1.3527
 8855SOL    HW227474   5.028   0.071   1.111 -1.4232 -0.4079 -0.7902
 8856SOL     OW27475   1.202   2.358   2.582  0.2571 -0.1514  0.2405
 8856SOL    HW127476   1.120   2.380   2.538  0.8315  0.3456 -0.6151
 8856SOL    HW227477   1.183   2.369   2.676 -0.2508  1.4497 -0.0210
 8857SOL     OW27478   0.743   6.411   6.930 -0.7769  0.7941 -0.1859
 8857SOL    HW127479   0.703   6.348   6.990 -0.8201  1.6120  0.6615
 8857SOL    HW227480   0.678   6.480   6.921 -1.3671  0.0345 -2.3195
 8858SOL     OW27481   0.294   5.359   4.457 -0.1224  0.5781  0.8698
 8858SOL    HW127482   0.290   5.390   4.367  3.2874 -0.4616  0.1784
 8858SOL    HW227483   0.327   5.433   4.507 -2.2834  1.2449  1.4029
 8859SOL     OW27484   7.424   2.968   7.403  0.4714  0.0540  0.0179
 8859SOL    HW127485   7.401   2.882   7.368 -1.1073  0.8537 -1.0162
 8859SOL    HW227486   7.451   3.019   7.327  0.3967  0.7880  0.4679
 8860SOL     OW27487   4.333   2.171   7.317 -0.1535 -0.0889 -0.5636
 8860SOL    HW127488   4.428   2.174   7.306 -0.2538  0.6715 -1.2912
 8860SOL    HW227489   4.321   2.143   7.408  0.7800  0.5855 -0.2106
 8861SOL     OW27490   6.115   2.546   7.290 -0.2572  0.1398  0.2050
 8861SOL    HW127491   6.122   2.539   7.385 -1.6536  0.3001  0.3386
 8861SOL    HW227492   6.022   2.564   7.274  0.2906  2.1254 -1.0680
 8862SOL     OW27493   4.928   7.147   6.996 -1.0240  0.1227  0.0649
 8862SOL    HW127494   4.977   7.228   7.007 -0.2286 -0.4790  1.1060
 8862SOL    HW227495   4.850   7.174   6.947 -0.7885  1.5187  0.3872
 8863SOL     OW27496   0.450   0.905   5.836  0.0420 -0.2270  0.1187
 8863SOL    HW127497   0.465   0.870   5.748  1.0516  2.7565 -0.9901
 8863SOL    HW227498   0.356   0.923   5.839  0.3173  1.7535 -1.2798
 8864SOL     OW27499   2.598   3.270   5.001 -0.1630  0.0882 -1.1619
 8864SOL    HW127500   2.649   3.201   4.959  0.6300  1.3081 -2.2847
 8864SOL    HW227501   2.605   3.345   4.941  0.6248  1.7698  0.9171
 8865SOL     OW27502   7.125   1.870   7.089  0.2392  0.4298  0.3936
 8865SOL    HW127503   7.186   1.835   7.154  1.6082  0.3862 -0.8474
 8865SOL    HW227504   7.086   1.793   7.049 -1.2865  0.4656  1.7309
 8866SOL     OW27505   2.686   6.655   1.654 -0.3870  0.4715  0.3810
 8866SOL    HW127506   2.776   6.688   1.654 -0.4315  0.5950  0.3260
 8866SOL    HW227507   2.667   6.639   1.561 -0.5229  0.7238  0.3659
 8867SOL     OW27508   0.198   4.540   1.039 -0.4870  0.1955  0.1584
 8867SOL    HW127509   0.147   4.563   1.116 -0.6515  0.7338 -0.1049
 8867SOL    HW227510   0.257   4.471   1.068  0.7692  1.6696  1.2426
 8868SOL     OW27511   7.411   1.755   1.355 -0.5814  0.0401  0.0257
 8868SOL    HW127512   7.463   1.766   1.435  1.9078 -1.9486 -1.1935
 8868SOL    HW227513   7.410   1.842   1.315 -1.2754  0.9108  1.8097
 8869SOL     OW27514   1.372   1.878   5.653 -0.3052 -1.0051 -0.1673
 8869SOL    HW127515   1.439   1.878   5.585 -0.1545 -0.4222 -0.0174
 8869SOL    HW227516   1.397   1.948   5.713 -0.2927 -1.6838  0.6373
 8870SOL     OW27517   2.217   1.923   2.904  0.4829  0.5377  0.3234
 8870SOL    HW127518   2.195   1.836   2.936 -1.5071 -0.0127 -2.1483
 8870SOL    HW227519   2.311   1.920   2.888  0.5836 -0.8673  1.0201
 8871SOL     OW27520   1.231   6.061   4.331 -0.1367  0.0431  0.4050
 8871SOL    HW127521   1.223   6.042   4.237  2.6687 -0.9845  0.2622
 8871SOL    HW227522   1.167   6.002   4.373 -0.5366 -0.4032 -0.7899
 8872SOL     OW27523   2.941   5.116   2.342  0.5675 -0.5269 -0.4750
 8872SOL    HW127524   2.968   5.025   2.359  0.6443 -0.7683 -1.7810
 8872SOL    HW227525   2.870   5.132   2.403 -1.0243 -2.2739 -1.7447
 8873SOL     OW27526   0.085   0.789   1.193  0.0135 -0.2072 -0.4844
 8873SOL    HW127527   0.140   0.738   1.252 -1.4166  0.1767  1.2616
 8873SOL    HW227528   0.001   0.796   1.238 -0.3912  2.1966 -1.4626
 8874SOL     OW27529   0.522   6.167   7.695  0.1693  0.4260  0.4486
 8874SOL    HW127530   0.446   6.140   7.644 -0.5576 -0.5518  1.9696
 8874SOL    HW227531   0.487   6.225   7.762  0.7804  0.1777  1.0033
 8875SOL     OW27532   0.534   4.431   7.121  0.1997  0.4202 -0.3683
 8875SOL    HW127533   0.596   4.423   7.193 -0.7244 -3.2576  0.2065
 8875SOL    HW227534   0.514   4.525   7.116  1.7797  1.0370  2.8149
 8876SOL     OW27535   6.727   2.100   6.043  0.3148 -0.1882  0.5790
 8876SOL    HW127536   6.778   2.054   5.976 -0.8940 -1.7661  0.6836
 8876SOL    HW227537   6.733   2.193   6.019 -0.3495 -0.7202 -1.9391
 8877SOL     OW27538   5.909   7.486   4.602 -0.2216 -0.1421 -0.2175
 8877SOL    HW127539   5.872   7.407   4.564 -1.6191  0.5321 -0.2868
 8877SOL    HW227540   5.941   7.536   4.527 -0.8689  0.1319 -0.3083
 8878SOL     OW27541   2.489   0.897   5.227 -0.0487 -0.4021 -0.4256
 8878SOL    HW127542   2.425   0.936   5.287  0.5478 -1.3212  0.8462
 8878SOL    HW227543   2.437   0.842   5.169 -0.7440  1.2064 -1.4061
 8879SOL     OW27544   6.393   7.120   7.151  0.4929 -0.3362  0.3613
 8879SOL    HW127545   6.359   7.065   7.081  0.1057 -0.4496  0.6362
 8879SOL    HW227546   6.353   7.205   7.137  1.1649 -0.0854 -0.1200
 8880SOL     OW27547   1.545   2.726   2.602  0.2621 -0.0619  0.2852
 8880SOL    HW127548   1.573   2.697   2.514 -0.7092  0.8078 -0.3247
 8880SOL    HW227549   1.453   2.700   2.607  0.2213  0.2049  0.9136
 8881SOL     OW27550   3.411   6.240   5.534  0.2293  0.0295  0.1035
 8881SOL    HW127551   3.471   6.181   5.488 -0.1734 -0.6618  0.4427
 8881SOL    HW227552   3.388   6.193   5.614 -0.2802  0.5513  0.2692
 8882SOL     OW27553   6.101   0.547   0.628 -0.4141 -0.4179  0.8159
 8882SOL    HW127554   6.041   0.591   0.568 -0.1671  0.0346  0.8962
 8882SOL    HW227555   6.094   0.597   0.710 -2.0377 -2.0365  1.7380
 8883SOL     OW27556   0.393   0.958   6.874  0.1762  0.1672  0.3246
 8883SOL    HW127557   0.449   1.036   6.872  1.4862 -0.7266  0.4248
 8883SOL    HW227558   0.451   0.887   6.845 -1.2794 -0.5974 -0.7992
 8884SOL     OW27559   4.996   4.698   1.635  0.2419  0.1441  0.3229
 8884SOL    HW127560   5.018   4.607   1.617 -0.7856  0.2231 -1.6775
 8884SOL    HW227561   5.076   4.746   1.615  1.4082 -0.4039  3.2284
 8885SOL     OW27562   4.645   2.355   0.908 -0.4056 -0.3825  0.8412
 8885SOL    HW127563   4.686   2.366   0.822 -3.1037  0.3102 -0.4936
 8885SOL    HW227564   4.582   2.283   0.895 -0.7695 -0.3582  2.2786
 8886SOL     OW27565   6.227   6.164   3.574 -0.1064  0.1182  0.1497
 8886SOL    HW127566   6.283   6.130   3.504 -1.4166  1.0855 -1.4473
 8886SOL    HW227567   6.177   6.088   3.603  0.5642 -0.3311  0.1465
 8887SOL     OW27568   6.013   1.809   5.706 -0.2385 -0.1600  0.2923
 8887SOL    HW127569   6.071   1.883   5.688 -0.3509 -0.4433 -1.4054
 8887SOL    HW227570   6.071   1.741   5.740  0.0162  0.3599  0.9255
 8888SOL     OW27571   6.859   4.512   0.249  0.1235 -0.4777 -0.0799
 8888SOL    HW127572   6.840   4.586   0.308  1.1700 -1.1639  1.1912
 8888SOL    HW227573   6.924   4.547   0.188  0.2441 -0.1999  0.2003
 8889SOL     OW27574   0.500   1.035   1.163  0.4971  0.4351 -0.2257
 8889SOL    HW127575   0.510   1.071   1.075  0.8556  0.9931  0.0372
 8889SOL    HW227576   0.579   0.982   1.176  0.9257  1.1564  0.1324
 8890SOL     OW27577   5.707   3.091   6.298  0.4553  0.2444  0.2439
 8890SOL    HW127578   5.663   3.007   6.310  0.0323  0.6484  1.6085
 8890SOL    HW227579   5.791   3.069   6.257 -0.3033 -0.6834 -0.8515
 8891SOL     OW27580   3.920   7.158   4.831 -0.6686  0.5177 -0.8479
 8891SOL    HW127581   3.866   7.157   4.910  0.5904 -1.5188  0.0956
 8891SOL    HW227582   3.908   7.245   4.794 -2.3704  1.0636  0.8333
 8892SOL     OW27583   6.372   4.274   5.195 -0.4237 -0.0121  0.2804
 8892SOL    HW127584   6.397   4.304   5.283 -0.7902 -0.2635  0.4739
 8892SOL    HW227585   6.342   4.353   5.151  0.1537  0.1899  0.2393
 8893SOL     OW27586   1.486   5.934   0.986 -0.5064  0.0224 -0.0779
 8893SOL    HW127587   1.486   5.900   1.075 -0.2838  0.4969  0.1051
 8893SOL    HW227588   1.502   6.028   0.996  2.5450 -0.3272 -0.7475
 8894SOL     OW27589   1.621   2.640   7.247  0.0574  0.6127 -0.3352
 8894SOL    HW127590   1.539   2.595   7.227 -0.1824  1.3247 -0.9925
 8894SOL    HW227591   1.630   2.706   7.179  1.3391  0.3462 -0.4532
 8895SOL     OW27592   5.086   5.449   1.697 -0.2988  0.3481 -0.1660
 8895SOL    HW127593   5.045   5.418   1.778 -3.0203  1.1262 -1.1248
 8895SOL    HW227594   5.058   5.541   1.690  1.9448  1.0309 -0.7781
 8896SOL     OW27595   7.071   3.028   3.521 -0.2729  0.1879 -0.6003
 8896SOL    HW127596   7.099   2.944   3.485 -2.2400  0.6900 -3.7075
 8896SOL    HW227597   6.994   3.052   3.469 -2.0334  2.2213  2.5853
 8897SOL     OW27598   2.374   2.550   2.063 -0.1580  0.0820 -0.0250
 8897SOL    HW127599   2.435   2.605   2.112 -1.8697  1.5601  0.5567
 8897SOL    HW227600   2.296   2.545   2.118 -0.9739 -0.8598 -1.2051
 8898SOL     OW27601   2.887   2.524   2.614  0.4478 -0.2868 -0.3250
 8898SOL    HW127602   2.912   2.616   2.621 -0.0491 -0.2536  2.0415
 8898SOL    HW227603   2.792   2.525   2.628  0.4635 -1.1578 -0.1346
 8899SOL     OW27604   4.084   5.358   6.761 -0.2847  0.1226  0.1436
 8899SOL    HW127605   4.167   5.343   6.806 -0.0655  0.5501 -0.1166
 8899SOL    HW227606   4.083   5.451   6.742 -0.8897  0.1488  0.2681
 8900SOL     OW27607   3.146   3.833   6.678 -0.5392  0.0273 -0.3247
 8900SOL    HW127608   3.101   3.808   6.758 -1.2063  0.7967 -0.4435
 8900SOL    HW227609   3.109   3.777   6.610 -0.4706 -0.1534 -0.2120
 8901SOL     OW27610   6.963   3.573   4.638 -0.1261  0.2597 -0.2976
 8901SOL    HW127611   7.010   3.643   4.683  0.5320 -0.9314  0.9308
 8901SOL    HW227612   6.897   3.544   4.700 -1.2719  0.6437 -1.3031
 8902SOL     OW27613   0.497   5.158   0.832  0.3805  0.0927 -0.1874
 8902SOL    HW127614   0.581   5.195   0.861 -0.1995 -0.5958  2.7056
 8902SOL    HW227615   0.518   5.070   0.802  0.8994  0.5344 -1.1726
 8903SOL     OW27616   7.722   2.707   2.547  0.0262  0.6917 -0.0163
 8903SOL    HW127617   7.711   2.617   2.516 -2.2123  0.8138  0.2104
 8903SOL    HW227618   7.718   2.700   2.643  1.0723  0.9128  0.0488
 8904SOL     OW27619   7.224   7.645   7.068 -0.1199  0.2047 -0.2355
 8904SOL    HW127620   7.150   7.614   7.122  1.3983 -1.1446  1.1841
 8904SOL    HW227621   7.199   7.623   6.979 -2.0243  1.0480  0.0165
 8905SOL     OW27622   3.709   1.577   3.877 -0.8215  0.7523 -0.0323
 8905SOL    HW127623   3.740   1.505   3.932 -3.0148  0.0446  0.3971
 8905SOL    HW227624   3.784   1.600   3.822 -0.0507 -1.9726 -0.2748
 8906SOL     OW27625   3.787   4.680   7.301 -0.6919 -0.0680  0.2528
 8906SOL    HW127626   3.824   4.729   7.374  0.2779 -0.7919  0.2652
 8906SOL    HW227627   3.696   4.710   7.295 -0.4423  0.8622  0.9907
 8907SOL     OW27628   4.851   6.832   1.930  0.3956  0.2174  0.1420
 8907SOL    HW127629   4.913   6.887   1.978  1.0024 -0.4971  0.2062
 8907SOL    HW227630   4.860   6.746   1.972  1.2459 -0.5358 -1.5250
 8908SOL     OW27631   3.242   3.204   5.033 -0.2134 -0.4416 -0.8669
 8908SOL    HW127632   3.251   3.114   5.000  0.5624 -0.8287  0.3005
 8908SOL    HW227633   3.331   3.230   5.057 -0.6499 -0.0206  0.4005
 8909SOL     OW27634   1.893   4.853   2.972  0.2748 -0.5712 -0.0332
 8909SOL    HW127635   1.939   4.794   3.032  1.2582  2.2887  2.2187
 8909SOL    HW227636   1.957   4.870   2.902  0.3927 -1.2800 -0.1062
 8910SOL     OW27637   0.266   6.679   6.443  0.0431 -0.0069 -0.0885
 8910SOL    HW127638   0.251   6.584   6.450 -2.1125  0.3306  0.7259
 8910SOL    HW227639   0.178   6.716   6.441  0.8580  1.9937 -0.5304
 8911SOL     OW27640   3.236   0.067   4.725 -0.2035 -0.2506  0.0920
 8911SOL    HW127641   3.319   0.033   4.691  1.8586  2.4329  2.0549
 8911SOL    HW227642   3.238   0.160   4.703 -2.1127  0.1174  1.3127
 8912SOL     OW27643   0.241   0.393   4.560  0.8857  0.8218  0.1989
 8912SOL    HW127644   0.251   0.478   4.517  0.4690  1.4009  1.2215
 8912SOL    HW227645   0.323   0.379   4.606  0.4997  1.2613  1.0413
 8913SOL     OW27646   6.664   1.605   3.948  0.4135 -0.4968  0.5553
 8913SOL    HW127647   6.744   1.562   3.919 -0.5235 -0.7613 -1.9067
 8913SOL    HW227648   6.644   1.668   3.879 -1.2375 -0.1051  1.3379
 8914SOL     OW27649   2.871   6.165   7.485 -0.1208 -0.3135  0.5095
 8914SOL    HW127650   2.858   6.245   7.536  0.7637  0.8194 -0.9587
 8914SOL    HW227651   2.837   6.095   7.541 -0.2015  0.9843  2.1604
 8915SOL     OW27652   7.593   6.707   4.856  0.2877 -0.1046  0.2424
 8915SOL    HW127653   7.660   6.654   4.813  1.0297  1.6365 -0.8363
 8915SOL    HW227654   7.514   6.652   4.854  1.4016 -1.8219  0.7065
 8916SOL     OW27655   3.530   5.781   4.444  0.4556 -0.1459 -0.3028
 8916SOL    HW127656   3.625   5.787   4.453  0.4086 -1.3446  1.3577
 8916SOL    HW227657   3.505   5.863   4.401  2.1432  0.5561 -0.0215
 8917SOL     OW27658   4.562   7.231   6.378 -0.4559  0.5271  0.0108
 8917SOL    HW127659   4.630   7.211   6.314  0.0779  2.0656  0.0685
 8917SOL    HW227660   4.540   7.146   6.416  3.1907  0.1871  1.7712
 8918SOL     OW27661   1.620   0.024   6.180  0.1397  0.3982  0.2637
 8918SOL    HW127662   1.693   0.068   6.134  0.6811 -2.1317 -1.5149
 8918SOL    HW227663   1.543   0.048   6.129  0.5945 -1.5036 -1.4778
 8919SOL     OW27664   5.509   1.406   6.332  0.1929  0.3416  0.0897
 8919SOL    HW127665   5.451   1.335   6.305  0.3374  0.5351 -0.7611
 8919SOL    HW227666   5.473   1.435   6.416  0.7771 -1.4353  0.9985
 8920SOL     OW27667   5.046   3.078   5.908  0.1971 -0.2785  0.0450
 8920SOL    HW127668   5.068   3.141   5.838  0.4719 -0.0849  0.3040
 8920SOL    HW227669   5.050   2.993   5.865  0.9708 -0.2080 -0.0326
 8921SOL     OW27670   1.748   4.932   7.238  0.1800 -0.3513 -0.2051
 8921SOL    HW127671   1.762   4.839   7.255 -0.0555  0.1731  3.6955
 8921SOL    HW227672   1.667   4.953   7.286  0.5707  1.9967 -0.4544
 8922SOL     OW27673   2.770   6.023   7.727 -0.0200 -0.0232 -0.1019
 8922SOL    HW127674   2.773   6.095   7.790  1.0940  0.7534 -1.0062
 8922SOL    HW227675   2.730   5.951   7.775 -0.8162  1.0742  0.9429
 8923SOL     OW27676   5.147   7.666   0.301 -0.1719 -0.2356 -0.3683
 8923SOL    HW127677   5.146   7.751   0.257  0.5185 -0.5897 -1.1039
 8923SOL    HW227678   5.068   7.665   0.354 -1.5325 -0.1149 -2.2838
 8924SOL     OW27679   1.726   7.728   0.480 -0.4990 -0.2314 -0.4727
 8924SOL    HW127680   1.669   7.794   0.440 -1.0112 -0.2519  0.2141
 8924SOL    HW227681   1.815   7.762   0.464 -0.7528  0.6277 -0.1406
 8925SOL     OW27682   6.694   1.300   2.189 -0.2606  0.2790 -0.1563
 8925SOL    HW127683   6.753   1.289   2.115 -1.2907  1.6177 -1.2540
 8925SOL    HW227684   6.642   1.378   2.166 -1.2668  0.1560  1.5345
 8926SOL     OW27685   4.472   7.087   1.882  0.4292 -0.0628  0.6304
 8926SOL    HW127686   4.519   7.026   1.826  0.2364 -0.2682  0.6909
 8926SOL    HW227687   4.520   7.170   1.873  0.7943 -0.2671  0.6854
 8927SOL     OW27688   4.002   5.900   2.581  0.2838  0.3127 -0.3419
 8927SOL    HW127689   4.031   5.940   2.662 -1.5108 -0.0326  0.5173
 8927SOL    HW227690   4.024   5.807   2.592  2.9979  0.6840 -1.6760
 8928SOL     OW27691   2.371   0.894   2.894  0.3010  0.2239  0.5285
 8928SOL    HW127692   2.461   0.870   2.872  0.5406  1.2430  0.3457
 8928SOL    HW227693   2.340   0.943   2.817 -0.3187  0.1058  0.6979
 8929SOL     OW27694   6.229   2.582   6.801 -0.4085  0.4000 -0.4892
 8929SOL    HW127695   6.253   2.506   6.854 -1.6122  0.1083 -0.3373
 8929SOL    HW227696   6.135   2.595   6.818 -0.5833  0.9385 -1.7563
 8930SOL     OW27697   7.372   6.740   6.812 -0.7039  0.6648 -0.8853
 8930SOL    HW127698   7.298   6.726   6.871  0.8515  0.1656  1.0325
 8930SOL    HW227699   7.392   6.653   6.778  0.9118  0.1989  1.0667
 8931SOL     OW27700   6.083   4.816   7.258  0.0859  0.1291  0.3846
 8931SOL    HW127701   5.989   4.826   7.250  0.1631  0.6563  0.0773
 8931SOL    HW227702   6.119   4.880   7.197  0.6304 -1.0676 -0.6143
 8932SOL     OW27703   4.699   4.749   4.735  0.3914 -0.6017  0.4327
 8932SOL    HW127704   4.639   4.792   4.796  2.8000  2.0734  1.1189
 8932SOL    HW227705   4.685   4.793   4.652 -0.6035 -2.0457 -0.2159
 8933SOL     OW27706   4.215   2.943   2.405 -0.0561 -0.2211 -0.2370
 8933SOL    HW127707   4.192   2.956   2.497  2.6849  0.0040  0.5078
 8933SOL    HW227708   4.160   3.005   2.357 -0.4950  0.7035  1.3879
 8934SOL     OW27709   2.629   7.662   5.323 -0.4454 -0.6776 -0.6151
 8934SOL    HW127710   2.601   7.573   5.345  0.8522 -0.3559  3.0775
 8934SOL    HW227711   2.681   7.652   5.244  0.5544 -3.4549  0.2598
 8935SOL     OW27712   4.459   0.526   2.413 -0.1791 -0.3797 -0.3829
 8935SOL    HW127713   4.503   0.567   2.338 -0.3620 -0.5657 -0.5936
 8935SOL    HW227714   4.529   0.507   2.475 -0.1734  0.9632  0.0611
 8936SOL     OW27715   0.375   5.419   0.846 -0.2213  0.0808 -0.3463
 8936SOL    HW127716   0.386   5.468   0.928 -1.8169 -0.7192  0.4067
 8936SOL    HW227717   0.400   5.329   0.869 -1.4846 -0.3225 -0.4657
 8937SOL     OW27718   4.815   0.652   6.498 -1.0970  0.1372 -0.1882
 8937SOL    HW127719   4.744   0.715   6.483 -0.3678  1.1454  0.4482
 8937SOL    HW227720   4.892   0.694   6.459 -0.7605 -0.7714 -0.5301
 8938SOL     OW27721   4.051   6.211   0.054 -0.3323  0.4493 -0.3774
 8938SOL    HW127722   4.101   6.285   0.018  0.4020 -0.3879 -1.1291
 8938SOL    HW227723   3.973   6.208  -0.001 -1.5658  2.1166  1.1580
 8939SOL     OW27724   5.231   1.327   6.621 -0.2303 -0.3721  0.4599
 8939SOL    HW127725   5.219   1.232   6.622 -0.7931 -0.3065  0.2029
 8939SOL    HW227726   5.325   1.339   6.638 -0.1192 -0.9797  0.3149
 8940SOL     OW27727   2.730   0.154   4.721  0.5178 -0.2764  0.0964
 8940SOL    HW127728   2.809   0.197   4.687 -0.7070  2.9220  0.9054
 8940SOL    HW227729   2.735   0.166   4.816 -0.2012 -1.4050  0.2867
 8941SOL     OW27730   5.153   2.948   2.544  0.3519  0.5765 -0.4599
 8941SOL    HW127731   5.127   2.913   2.458 -1.8630  0.0137  0.3648
 8941SOL    HW227732   5.076   2.995   2.574  0.6852 -0.1556  1.6771
 8942SOL     OW27733   3.931   2.611   2.227 -0.3185  0.5504  0.1487
 8942SOL    HW127734   3.877   2.575   2.156  0.6032 -1.2334  0.2893
 8942SOL    HW227735   3.957   2.697   2.196  0.0297 -0.1587 -1.6973
 8943SOL     OW27736   6.926   2.190   0.829  0.2628  0.0585  0.0922
 8943SOL    HW127737   6.914   2.229   0.915 -0.1286  0.0444  0.0477
 8943SOL    HW227738   7.017   2.162   0.827  0.1780 -0.2673  0.6403
 8944SOL     OW27739   3.240   4.630   4.266 -0.1934 -0.1528  0.2269
 8944SOL    HW127740   3.269   4.720   4.256 -0.6590  0.0798  0.9513
 8944SOL    HW227741   3.157   4.625   4.218 -0.0041 -0.2836 -0.0901
 8945SOL     OW27742   1.101   7.621   1.854 -0.7786  0.0795  0.3103
 8945SOL    HW127743   1.126   7.657   1.939  0.6165  0.0680 -0.0834
 8945SOL    HW227744   1.052   7.692   1.812 -0.0321  0.6970  0.4654
 8946SOL     OW27745   7.263   3.873   3.793  0.1268 -0.0876  0.2678
 8946SOL    HW127746   7.169   3.866   3.776  0.0469  1.9460 -0.3668
 8946SOL    HW227747   7.303   3.870   3.707  0.7919 -2.1025  0.5960
 8947SOL     OW27748   3.984   1.779   6.950  0.2197  0.4069  0.0658
 8947SOL    HW127749   3.889   1.777   6.947  0.2436 -1.2596 -0.3577
 8947SOL    HW227750   4.012   1.780   6.859  0.6461  2.3519  0.1555
 8948SOL     OW27751   7.341   1.961   6.865  0.4065  0.4187  0.0106
 8948SOL    HW127752   7.369   2.050   6.845  3.1109 -0.1142  0.9484
 8948SOL    HW227753   7.414   1.906   6.838 -0.2530 -1.2897  1.4786
 8949SOL     OW27754   4.058   3.855   0.014 -0.7254 -0.0004  0.3109
 8949SOL    HW127755   4.135   3.886  -0.033  1.7704 -0.9033  3.3990
 8949SOL    HW227756   4.021   3.934   0.054 -0.2419  0.2117  0.3447
 8950SOL     OW27757   7.712   2.159   7.505  0.2355  0.0340 -0.1229
 8950SOL    HW127758   7.729   2.166   7.598  0.8932  1.9732 -0.3466
 8950SOL    HW227759   7.617   2.174   7.497  0.2245  0.1474  0.2095
 8951SOL     OW27760   3.682   7.723   2.294  0.1855 -0.1626 -0.9771
 8951SOL    HW127761   3.684   7.719   2.390  1.4367  0.3055 -0.9556
 8951SOL    HW227762   3.618   7.791   2.273 -0.0949 -0.2689 -0.4778
 8952SOL     OW27763   0.188   6.728   0.599  0.0365 -0.0125 -0.4762
 8952SOL    HW127764   0.256   6.709   0.534  0.1972 -0.5203 -0.1630
 8952SOL    HW227765   0.129   6.789   0.555  0.6834  0.4201 -0.7597
 8953SOL     OW27766   2.228   5.568   0.538 -0.8575 -0.1579 -0.1778
 8953SOL    HW127767   2.294   5.603   0.478 -1.3397 -2.4067 -2.1815
 8953SOL    HW227768   2.270   5.492   0.577 -1.5227 -0.3428  0.1882
 8954SOL     OW27769   3.726   6.419   2.025 -0.6299 -0.1496  0.3545
 8954SOL    HW127770   3.760   6.493   1.974 -2.5559  0.2012 -0.5205
 8954SOL    HW227771   3.776   6.421   2.107  0.4106  1.1845 -0.2828
 8955SOL     OW27772   0.180   2.930   1.925  0.0299 -0.1766 -0.0004
 8955SOL    HW127773   0.248   2.891   1.979  0.0885  0.5534  0.4682
 8955SOL    HW227774   0.100   2.882   1.948 -0.1421  0.7288  1.4589
 8956SOL     OW27775   4.345   5.801   2.680 -0.4348  0.1104  0.4569
 8956SOL    HW127776   4.282   5.788   2.750 -1.2764  0.1425 -0.2790
 8956SOL    HW227777   4.369   5.712   2.652  0.7384  0.0781  1.5009
 8957SOL     OW27778   4.783   6.643   7.421 -0.3310 -0.2303 -0.2369
 8957SOL    HW127779   4.736   6.560   7.421  1.3277 -1.2332 -1.4716
 8957SOL    HW227780   4.735   6.698   7.360 -1.1180 -0.4590  0.1588
 8958SOL     OW27781   5.193   6.595   0.154  0.5127  0.4060 -0.7273
 8958SOL    HW127782   5.236   6.681   0.158 -0.3390  0.7931  1.3218
 8958SOL    HW227783   5.112   6.612   0.106  0.8417  0.5148 -1.2495
 8959SOL     OW27784   3.510   6.052   3.076 -0.9904 -0.0584 -0.3655
 8959SOL    HW127785   3.467   5.971   3.050  0.1135 -0.4811 -0.9499
 8959SOL    HW227786   3.584   6.061   3.016 -0.3370  0.7041  0.5084
 8960SOL     OW27787   6.067   4.974   2.672  0.5567  0.0253  0.3732
 8960SOL    HW127788   6.092   4.912   2.740 -0.1301 -0.2473  0.3833
 8960SOL    HW227789   5.985   4.939   2.636 -0.2725  1.3136  0.9092
 8961SOL     OW27790   3.845   4.846   1.828  0.2491  0.2237 -0.1426
 8961SOL    HW127791   3.890   4.799   1.757  0.2777 -0.7595  0.5035
 8961SOL    HW227792   3.768   4.793   1.846  1.5858 -1.0214  2.3230
 8962SOL     OW27793   3.266   7.514   0.301 -0.7851  0.2954 -0.2480
 8962SOL    HW127794   3.179   7.550   0.283 -1.3634  0.4066  2.3849
 8962SOL    HW227795   3.301   7.570   0.370  0.7154 -0.7439 -0.1142
 8963SOL     OW27796   5.519   7.524   7.063  0.0595  0.2139 -0.1863
 8963SOL    HW127797   5.609   7.553   7.076 -0.6097  2.5457 -0.3580
 8963SOL    HW227798   5.479   7.592   7.009 -1.4248 -1.5441 -1.4241
 8964SOL     OW27799   3.976   3.943   0.459  0.2514 -0.3807  0.0732
 8964SOL    HW127800   3.897   3.889   0.462 -0.2341  0.3488  2.9090
 8964SOL    HW227801   4.048   3.881   0.471 -0.3021 -0.5681  3.3850
 8965SOL     OW27802   7.701   7.339   2.118 -0.0408 -0.2011 -0.0089
 8965SOL    HW127803   7.660   7.257   2.146 -0.7718 -0.4040 -1.5293
 8965SOL    HW227804   7.718   7.387   2.199  1.7378 -2.4493  1.0532
 8966SOL     OW27805   1.686   6.910   3.751 -0.9020  0.0245  0.1389
 8966SOL    HW127806   1.593   6.902   3.731 -1.4356  0.3495  2.3194
 8966SOL    HW227807   1.692   6.983   3.812  0.9795  0.9334 -1.0216
 8967SOL     OW27808   5.534   2.626   7.030 -0.4469  0.3488 -0.9500
 8967SOL    HW127809   5.511   2.690   7.098 -0.5170 -0.2709 -0.3855
 8967SOL    HW227810   5.620   2.653   6.999  0.0113  0.0717  0.0682
 8968SOL     OW27811   1.875   6.641   7.047  0.2635 -0.0596  0.1315
 8968SOL    HW127812   1.844   6.618   6.960  1.6238 -1.2641 -0.0747
 8968SOL    HW227813   1.812   6.601   7.107  0.6138 -1.3029 -0.2893
 8969SOL     OW27814   0.119   1.583   3.856  0.2467  0.4254 -0.7318
 8969SOL    HW127815   0.080   1.497   3.871 -0.4734  1.0700  1.4207
 8969SOL    HW227816   0.060   1.645   3.899  1.6681  1.8356 -0.6950
 8970SOL     OW27817   6.533   0.822   2.042 -0.1164  0.9217  0.2892
 8970SOL    HW127818   6.583   0.850   2.119  0.4746  1.1149 -0.1543
 8970SOL    HW227819   6.597   0.822   1.970 -0.4956  0.0502 -0.0620
 8971SOL     OW27820   6.778   7.395   0.938 -1.0855  0.0937 -0.0898
 8971SOL    HW127821   6.772   7.352   1.024  0.7577  0.3697  0.2111
 8971SOL    HW227822   6.717   7.346   0.883 -2.9219  0.3867  1.5409
 8972SOL     OW27823   5.661   2.916   3.927 -0.1384  0.4540  0.5105
 8972SOL    HW127824   5.733   2.948   3.981 -0.4769 -0.8689  1.8389
 8972SOL    HW227825   5.613   2.994   3.901  0.3065  1.1769  1.7757
 8973SOL     OW27826   3.215   7.497   3.506  0.4521  0.3224 -0.1658
 8973SOL    HW127827   3.133   7.546   3.506 -0.0065 -0.3046 -2.3900
 8973SOL    HW227828   3.231   7.477   3.598 -0.7315  2.2935  0.5494
 8974SOL     OW27829   0.719   0.499   6.643  0.0516 -0.3082  0.2615
 8974SOL    HW127830   0.676   0.440   6.581  0.2756  0.2258 -0.4160
 8974SOL    HW227831   0.682   0.476   6.728 -0.7053 -0.6434 -0.1502
 8975SOL     OW27832   3.308   6.111   5.799  0.0453 -0.2829 -0.4172
 8975SOL    HW127833   3.357   6.084   5.876 -0.5232 -0.6230 -0.1667
 8975SOL    HW227834   3.270   6.030   5.765 -0.5165 -0.0064 -0.4762
 8976SOL     OW27835   6.423   6.138   5.210  0.5428  0.4402  0.4482
 8976SOL    HW127836   6.404   6.048   5.184 -0.8373  1.4210 -2.2758
 8976SOL    HW227837   6.357   6.157   5.277 -0.6540  0.1315 -0.6108
 8977SOL     OW27838   4.878   4.016   0.305  0.4335  0.3253 -0.0047
 8977SOL    HW127839   4.959   4.049   0.265 -0.6781  3.8868  0.3528
 8977SOL    HW227840   4.810   4.038   0.241 -0.5301 -0.6767  0.6456
 8978SOL     OW27841   6.765   7.453   4.572  0.3038 -0.1902 -0.0311
 8978SOL    HW127842   6.752   7.533   4.621 -2.7675 -0.9327  0.5450
 8978SOL    HW227843   6.825   7.401   4.625  1.7180  1.3662 -0.0486
 8979SOL     OW27844   4.737   5.288   4.463  0.0191 -0.0555 -0.2636
 8979SOL    HW127845   4.766   5.298   4.372  0.3381  2.5055  0.0471
 8979SOL    HW227846   4.678   5.361   4.477 -0.5711 -0.8210  1.4039
 8980SOL     OW27847   4.918   1.444   4.899  0.7133  0.1913  0.2959
 8980SOL    HW127848   4.927   1.351   4.878 -0.7393  0.1949 -0.4139
 8980SOL    HW227849   4.867   1.445   4.980  1.0320  0.3723  0.4980
 8981SOL     OW27850   4.249   0.425   1.293  0.1530 -0.6301  0.1432
 8981SOL    HW127851   4.283   0.344   1.331  0.0363 -0.9323 -0.3835
 8981SOL    HW227852   4.156   0.426   1.317 -0.0881 -1.1851 -0.7352
 8982SOL     OW27853   3.759   4.895   6.629  0.5328 -0.0853 -0.1275
 8982SOL    HW127854   3.752   4.882   6.535 -0.1515 -1.0980  0.0509
 8982SOL    HW227855   3.682   4.947   6.652 -0.2080 -1.2602  0.1067
 8983SOL     OW27856   0.965   5.809   3.800  0.1026  0.0521  0.3093
 8983SOL    HW127857   1.007   5.806   3.885 -1.9213  0.8096  1.3975
 8983SOL    HW227858   1.037   5.817   3.737  1.7582 -2.4758  1.7461
 8984SOL     OW27859   2.536   3.706   3.485  0.0816 -0.4062  0.4365
 8984SOL    HW127860   2.490   3.675   3.563  0.8744  0.2155  1.1836
 8984SOL    HW227861   2.487   3.671   3.411 -0.3565 -1.4871  1.2277
 8985SOL     OW27862   0.008   0.983   2.496 -0.0834 -0.0966  0.0714
 8985SOL    HW127863   0.065   0.923   2.544  0.3334  0.2171 -0.0237
 8985SOL    HW227864  -0.036   0.929   2.432 -1.5015 -0.7483  1.5248
 8986SOL     OW27865   1.166   0.443   6.336 -0.4049  0.3368 -0.1413
 8986SOL    HW127866   1.110   0.505   6.382  1.1691  1.8405 -0.1250
 8986SOL    HW227867   1.116   0.418   6.258 -1.3555  1.0854  0.2106
 8987SOL     OW27868   1.213   4.426   3.055 -0.4191 -0.0625 -0.0378
 8987SOL    HW127869   1.302   4.462   3.048 -1.0272  1.6817  0.6889
 8987SOL    HW227870   1.157   4.493   3.016 -1.5793 -0.3835  1.0329
 8988SOL     OW27871   2.061   4.461   5.689  0.0080  0.0605  0.6601
 8988SOL    HW127872   2.023   4.402   5.624 -1.1999  2.2662 -0.7744
 8988SOL    HW227873   2.011   4.444   5.769  1.2595 -2.4164  1.0116
 8989SOL     OW27874   5.602   7.432   4.027  0.0459 -0.0903  0.1183
 8989SOL    HW127875   5.546   7.357   4.043 -0.1832 -0.3629 -1.7604
 8989SOL    HW227876   5.543   7.508   4.032 -0.4786 -0.3533 -1.5646
 8990SOL     OW27877   3.452   3.684   7.324  0.3267  0.1770  0.2083
 8990SOL    HW127878   3.513   3.624   7.282  1.4539  0.6250  1.1751
 8990SOL    HW227879   3.464   3.670   7.418 -0.2226  1.0860  0.4299
 8991SOL     OW27880   1.629   5.980   0.663 -0.3546  0.1438  0.2623
 8991SOL    HW127881   1.628   5.892   0.699  1.7253 -0.3022 -0.5942
 8991SOL    HW227882   1.720   6.009   0.672  0.1712  0.3142 -3.6668
 8992SOL     OW27883   4.787   3.565   0.423 -0.6519 -0.0441  0.2117
 8992SOL    HW127884   4.820   3.491   0.372 -1.0109 -1.0528  1.3905
 8992SOL    HW227885   4.862   3.624   0.431  0.3139 -1.3436  1.1238
 8993SOL     OW27886   7.471   6.651   6.233 -0.1468 -0.4531 -0.4749
 8993SOL    HW127887   7.475   6.604   6.317  0.3961 -0.4601 -0.5038
 8993SOL    HW227888   7.447   6.741   6.257  1.1054 -0.1798 -0.2018
 8994SOL     OW27889   1.388   0.103   6.084 -0.2845 -0.0857 -0.2852
 8994SOL    HW127890   1.435   0.186   6.083  0.0556 -0.2624 -1.9179
 8994SOL    HW227891   1.300   0.126   6.112  0.1949  0.5784  0.7462
 8995SOL     OW27892   6.210   7.403   3.790 -0.4780 -0.0610  0.1370
 8995SOL    HW127893   6.254   7.418   3.706 -1.9661 -0.1218 -0.6861
 8995SOL    HW227894   6.256   7.328   3.828 -0.0585 -0.3021 -0.8135
 8996SOL     OW27895   5.883   3.519   7.569 -0.6925  0.3787 -0.5481
 8996SOL    HW127896   5.872   3.447   7.507 -0.3121 -0.9888  0.8956
 8996SOL    HW227897   5.842   3.487   7.650  0.2016  1.4551  0.3630
 8997SOL     OW27898   1.446   0.743   7.397 -0.8401  0.1015 -0.3786
 8997SOL    HW127899   1.451   0.738   7.302 -0.5767 -0.6745 -0.3280
 8997SOL    HW227900   1.475   0.658   7.428  1.0405  0.9981  0.4758
 8998SOL     OW27901   3.915   6.846   1.910 -0.4497  0.6554 -0.0835
 8998SOL    HW127902   3.822   6.862   1.926 -1.0234 -1.5155 -0.9221
 8998SOL    HW227903   3.954   6.934   1.904 -2.5608  1.6231 -0.4381
 8999SOL     OW27904   3.581   5.137   5.706 -0.2581 -0.2135 -0.5432
 8999SOL    HW127905   3.499   5.094   5.680 -1.1507  0.1643  1.4878
 8999SOL    HW227906   3.553   5.216   5.753  1.3199  0.7256 -1.0948
 9000SOL     OW27907   1.987   0.866   3.413 -0.3451  0.8043  0.6830
 9000SOL    HW127908   1.938   0.868   3.330 -0.3292  0.6747  0.6710
 9000SOL    HW227909   2.070   0.825   3.391 -1.1638 -1.2274  1.2030
 9001SOL     OW27910   2.698   7.077   5.078  0.2580 -0.2499  0.0570
 9001SOL    HW127911   2.611   7.115   5.064 -0.0851 -0.8556  0.4824
 9001SOL    HW227912   2.719   7.098   5.169  1.2407  1.2223 -0.4736
 9002SOL     OW27913   7.091   1.549   2.698 -0.1397  0.3467  0.3107
 9002SOL    HW127914   7.088   1.624   2.638  1.0074  0.4065  0.3021
 9002SOL    HW227915   7.124   1.586   2.780  0.5714 -0.1736  0.2628
 9003SOL     OW27916   5.230   2.707   6.976  0.0062  0.0260 -0.2421
 9003SOL    HW127917   5.207   2.614   6.980  2.0216 -0.5178 -0.6401
 9003SOL    HW227918   5.282   2.722   7.055  0.8969  0.4615 -0.9109
 9004SOL     OW27919   0.386   3.063   7.631  0.2533  0.0438  0.1652
 9004SOL    HW127920   0.401   3.079   7.538 -0.6541 -0.5195 -0.0907
 9004SOL    HW227921   0.308   3.116   7.652  0.9025  0.7791  0.8016
 9005SOL     OW27922   2.587   1.578   7.255 -0.2957 -0.1840 -0.2274
 9005SOL    HW127923   2.658   1.581   7.190  0.3603  0.6708  0.5096
 9005SOL    HW227924   2.508   1.599   7.205  0.1661  0.2114 -0.8083
 9006SOL     OW27925   6.528   5.399   3.418  0.1145 -0.2611  0.7672
 9006SOL    HW127926   6.547   5.485   3.380  1.0578 -0.2346  1.2772
 9006SOL    HW227927   6.609   5.374   3.463  0.2376 -1.9080 -0.2849
 9007SOL     OW27928   6.251   2.654   2.880  0.0777  0.4227  0.0162
 9007SOL    HW127929   6.157   2.641   2.864  0.3449  1.2711 -2.8556
 9007SOL    HW227930   6.285   2.566   2.897 -0.6707 -0.6113 -3.0834
 9008SOL     OW27931   1.178   7.197   0.108 -0.4911 -0.7152 -0.3964
 9008SOL    HW127932   1.190   7.216   0.202 -1.4750  0.7399 -0.5329
 9008SOL    HW227933   1.200   7.105   0.100  1.0398 -0.5200  1.0095
 9009SOL     OW27934   1.358   7.449   7.431 -0.0066  0.6887 -0.2886
 9009SOL    HW127935   1.388   7.486   7.348 -0.7005  1.3327 -0.2596
 9009SOL    HW227936   1.340   7.357   7.411  0.9958  0.5370 -0.5495
 9010SOL     OW27937   3.977   5.220   5.047 -0.7702  0.5431  0.1247
 9010SOL    HW127938   3.919   5.147   5.026  0.6040 -0.2095 -1.3234
 9010SOL    HW227939   4.040   5.184   5.110  0.3274  0.2222 -1.1097
 9011SOL     OW27940   2.780   7.667   6.187 -0.4840  0.3881 -0.1587
 9011SOL    HW127941   2.791   7.758   6.160 -0.2157  1.1206  2.1931
 9011SOL    HW227942   2.738   7.624   6.112  0.7845  2.0457 -1.9210
 9012SOL     OW27943   3.626   4.567   2.926  0.5092 -0.3104  0.0135
 9012SOL    HW127944   3.681   4.645   2.914 -0.4150  0.4521  0.6064
 9012SOL    HW227945   3.664   4.523   3.002  0.2505  0.2663  0.4862
 9013SOL     OW27946   1.675   4.622   0.419  0.4280 -0.2062  0.3646
 9013SOL    HW127947   1.617   4.688   0.457 -1.2607 -0.6155 -1.3584
 9013SOL    HW227948   1.758   4.668   0.406  0.0009  0.8873  1.3444
 9014SOL     OW27949   3.396   5.828   4.975 -0.0057  0.5473  0.8233
 9014SOL    HW127950   3.401   5.777   4.894  0.8965  1.1915  0.4562
 9014SOL    HW227951   3.328   5.894   4.958 -0.1261  0.4079  0.7589
 9015SOL     OW27952   2.165   6.393   2.862  0.3637 -0.9417  0.1618
 9015SOL    HW127953   2.258   6.373   2.876  1.0722  1.7988 -0.0785
 9015SOL    HW227954   2.165   6.465   2.799 -1.9059 -0.4862  0.5971
 9016SOL     OW27955   1.683   0.325   7.189 -0.0474 -0.2461  0.3616
 9016SOL    HW127956   1.658   0.272   7.114 -1.5388  1.1662 -0.1956
 9016SOL    HW227957   1.763   0.284   7.222 -0.2855 -1.8736 -0.9698
 9017SOL     OW27958   7.012   4.515   1.661  0.1626 -0.2089  0.6784
 9017SOL    HW127959   7.105   4.494   1.670 -0.3015 -2.0968  1.6717
 9017SOL    HW227960   7.010   4.592   1.605  2.3516  0.2786  1.1813
 9018SOL     OW27961   5.038   1.899   4.348 -0.4256 -0.4298  0.1296
 9018SOL    HW127962   4.966   1.838   4.331 -0.2552 -0.5473 -0.1712
 9018SOL    HW227963   5.085   1.860   4.421  0.0723 -1.0061 -0.4841
 9019SOL     OW27964   0.880   4.719   2.391 -0.5401  0.7652 -0.3236
 9019SOL    HW127965   0.891   4.793   2.450  2.7266  1.1360 -1.1847
 9019SOL    HW227966   0.822   4.751   2.322  0.8230  2.6002 -0.6865
 9020SOL     OW27967   4.647   6.542   2.505 -0.1229 -0.3223  0.4671
 9020SOL    HW127968   4.711   6.533   2.576  0.9586  0.5880 -0.3615
 9020SOL    HW227969   4.622   6.452   2.484  0.3022 -0.6524  1.3179
 9021SOL     OW27970   5.251   4.912   3.917  0.4994  0.1291  0.1568
 9021SOL    HW127971   5.300   4.899   3.998 -0.5022  1.8280  1.0920
 9021SOL    HW227972   5.276   4.838   3.861  0.4757 -1.6570  2.3763
 9022SOL     OW27973   0.875   6.433   0.318 -0.9164  0.2775 -0.0385
 9022SOL    HW127974   0.864   6.488   0.240  0.5048  0.3865 -0.1935
 9022SOL    HW227975   0.848   6.346   0.289 -0.9368  0.4278 -0.4906
 9023SOL     OW27976   3.823   2.785   3.042  0.4344 -0.1733 -0.2187
 9023SOL    HW127977   3.842   2.871   3.079 -1.4362 -0.0494  0.5702
 9023SOL    HW227978   3.853   2.723   3.109  1.1780 -0.1238 -0.4986
 9024SOL     OW27979   3.367   5.448   4.250  0.6852 -0.1623 -0.1358
 9024SOL    HW127980   3.410   5.476   4.170  1.0464 -0.9136 -0.2051
 9024SOL    HW227981   3.423   5.380   4.286  0.5446  0.1914  0.7775
 9025SOL     OW27982   0.883   4.964   0.937 -0.0069 -0.4422 -0.3047
 9025SOL    HW127983   0.948   4.943   1.004  0.7887  0.4481 -0.7677
 9025SOL    HW227984   0.852   4.878   0.906  1.3939 -0.9194 -0.4874
 9026SOL     OW27985   3.560   1.426   5.090  0.0940  0.5158 -0.1539
 9026SOL    HW127986   3.529   1.394   5.174  1.5082 -0.7703 -0.0929
 9026SOL    HW227987   3.481   1.432   5.036 -0.6671  0.2600  0.9089
 9027SOL     OW27988   1.009   1.395   3.010 -0.4057 -0.1864 -0.1943
 9027SOL    HW127989   0.935   1.440   3.050 -1.2013  0.0154 -1.8009
 9027SOL    HW227990   1.082   1.409   3.070 -1.3653  0.7024  0.7929
 9028SOL     OW27991   4.419   6.547   0.547 -0.1037 -0.4045 -0.0587
 9028SOL    HW127992   4.327   6.529   0.529 -0.4121  0.2885  0.7376
 9028SOL    HW227993   4.463   6.463   0.534 -0.5754 -0.3693 -2.0798
 9029SOL     OW27994   2.873   3.495   3.329  0.2917  0.6179 -0.2240
 9029SOL    HW127995   2.959   3.455   3.330  0.3749  0.7754  0.7735
 9029SOL    HW227996   2.812   3.422   3.341  0.4638  0.7497  2.0187
 9030SOL     OW27997   0.900   1.624   6.081  0.0719  0.3581 -0.2776
 9030SOL    HW127998   0.929   1.541   6.118 -0.3556 -0.5085 -1.8034
 9030SOL    HW227999   0.981   1.671   6.061  0.3142  0.5020  0.9274
 9031SOL     OW28000   3.630   0.757   6.186  0.1088  0.1131  0.1099
 9031SOL    HW128001   3.546   0.794   6.160 -0.5905 -2.1954 -1.2272
 9031SOL    HW228002   3.613   0.712   6.269  0.2098  0.2594  0.2102
 9032SOL     OW28003   5.859   5.071   7.345  0.6553  0.4113  0.7123
 9032SOL    HW128004   5.877   5.164   7.331  0.0740  0.6752  1.6215
 9032SOL    HW228005   5.840   5.036   7.258  1.4891  1.0067  0.2883
 9033SOL     OW28006   6.903   2.424   5.466 -0.0659  0.5447  0.0916
 9033SOL    HW128007   6.953   2.502   5.444  1.4535  0.2352  2.1268
 9033SOL    HW228008   6.833   2.456   5.524 -0.1721  0.5335 -0.0291
 9034SOL     OW28009   5.428   4.518   0.912 -0.3075  0.2498  0.7422
 9034SOL    HW128010   5.424   4.492   0.820 -0.3498 -0.7884  1.0222
 9034SOL    HW228011   5.361   4.464   0.955  0.6869 -0.3499  1.6056
 9035SOL     OW28012   0.171   6.245   3.557  0.2113  0.3093 -0.6027
 9035SOL    HW128013   0.213   6.304   3.495  3.8376 -0.0150  1.2811
 9035SOL    HW228014   0.212   6.265   3.641 -0.3496 -3.0362  0.6298
 9036SOL     OW28015   7.340   5.097   1.974 -0.5813 -0.0151 -0.7285
 9036SOL    HW128016   7.248   5.112   1.992 -0.3635 -0.8371  1.3757
 9036SOL    HW228017   7.375   5.184   1.955 -0.7333  1.3822  4.1370
 9037SOL     OW28018   0.934   7.208   6.264 -0.0005 -0.0365  0.7336
 9037SOL    HW128019   0.872   7.267   6.222  2.1758  1.3641 -0.7109
 9037SOL    HW228020   0.986   7.264   6.321  1.1212 -0.8300  0.5191
 9038SOL     OW28021   5.512   0.571   6.546 -0.2092  0.2767 -0.1600
 9038SOL    HW128022   5.442   0.561   6.611 -0.7401 -0.5887 -0.8323
 9038SOL    HW228023   5.565   0.643   6.578 -1.8703  1.4986 -0.0280
 9039SOL     OW28024   5.480   2.741   4.075 -0.0732 -0.0198 -0.4767
 9039SOL    HW128025   5.454   2.805   4.141 -0.4870 -0.1252 -0.5366
 9039SOL    HW228026   5.563   2.774   4.040  0.6701 -0.4700  0.7863
 9040SOL     OW28027   2.256   2.064   0.678 -0.2751 -0.7971  0.2460
 9040SOL    HW128028   2.260   2.112   0.595  0.8907 -0.2631  0.5889
 9040SOL    HW228029   2.246   1.972   0.652 -1.7777 -0.4778 -0.4371
 9041SOL     OW28030   6.518   0.809   3.252  0.0267  0.0165 -0.5664
 9041SOL    HW128031   6.604   0.780   3.285  1.4094  2.2228 -1.9428
 9041SOL    HW228032   6.472   0.840   3.331  0.5804 -0.9701  0.1648
 9042SOL     OW28033   4.421   3.635   3.908  0.0391 -0.3101  0.2987
 9042SOL    HW128034   4.420   3.541   3.924 -2.1381 -0.1826  1.2451
 9042SOL    HW228035   4.406   3.675   3.993 -1.7174  0.7579 -0.4426
 9043SOL     OW28036   4.474   3.094   0.552  0.5246  0.1402  0.2853
 9043SOL    HW128037   4.480   3.184   0.520 -1.1472  0.2077  0.1205
 9043SOL    HW228038   4.566   3.065   0.557  0.9841  0.8341 -2.5272
 9044SOL     OW28039   5.364   0.750   5.857  0.3312 -0.0658 -0.3376
 9044SOL    HW128040   5.401   0.672   5.899  1.1130 -0.7245 -2.1552
 9044SOL    HW228041   5.438   0.809   5.845  0.2285 -0.0898 -1.1731
 9045SOL     OW28042   4.764   3.164   2.804 -0.2652 -0.3913  0.0640
 9045SOL    HW128043   4.711   3.243   2.793  0.7011  0.1521 -0.9600
 9045SOL    HW228044   4.761   3.146   2.898 -2.0261 -0.2371  0.0646
 9046SOL     OW28045   6.004   2.048   3.704  0.1866 -0.1289 -0.3719
 9046SOL    HW128046   5.950   1.982   3.661 -1.4750  1.3602 -0.6680
 9046SOL    HW228047   5.967   2.057   3.791  1.0145 -0.2483  0.0023
 9047SOL     OW28048   3.665   7.726   6.628  0.0027  0.0589 -0.4718
 9047SOL    HW128049   3.603   7.790   6.592 -1.4027  0.2948  2.1124
 9047SOL    HW228050   3.651   7.730   6.723  0.5115 -3.4195 -0.1101
 9048SOL     OW28051   3.600   3.598   6.697  0.3152  0.1745 -0.0182
 9048SOL    HW128052   3.680   3.566   6.655 -0.5382 -0.3848 -1.2676
 9048SOL    HW228053   3.631   3.648   6.773  1.8020 -0.9693  0.1783
 9049SOL     OW28054   5.269   3.143   5.704  0.0268 -0.1382 -0.1691
 9049SOL    HW128055   5.344   3.140   5.763  0.1470  1.5741 -0.1728
 9049SOL    HW228056   5.268   3.058   5.660  1.7943 -0.2738  0.0131
 9050SOL     OW28057   2.028   7.179   6.881  0.5600  0.1136  0.1322
 9050SOL    HW128058   1.953   7.220   6.837 -0.2550 -1.2402  0.1925
 9050SOL    HW228059   2.104   7.228   6.850 -0.1743  0.3608 -1.3613
 9051SOL     OW28060   4.061   1.639   2.528  0.4024  0.6926 -0.4157
 9051SOL    HW128061   4.011   1.581   2.586  1.9539 -1.6423 -1.2877
 9051SOL    HW228062   4.068   1.721   2.577 -1.5779  0.0865  1.0324
 9052SOL     OW28063   4.581   4.262   0.470  0.1830  0.0986 -0.0513
 9052SOL    HW128064   4.662   4.313   0.463 -0.2514  0.8953  0.5365
 9052SOL    HW228065   4.568   4.226   0.383 -0.3220  2.3119 -0.9577
 9053SOL     OW28066   2.505   4.069   6.978 -0.0774 -0.1092 -0.5694
 9053SOL    HW128067   2.491   4.039   7.068  0.0301  0.7222 -0.2751
 9053SOL    HW228068   2.552   3.996   6.936  0.5678 -0.1830  0.2615
 9054SOL     OW28069   1.569   5.099   2.080 -0.2906  0.1042  0.0402
 9054SOL    HW128070   1.590   5.177   2.131 -0.9344  1.8708 -2.2270
 9054SOL    HW228071   1.479   5.077   2.106 -0.6832  1.1018 -0.4064
 9055SOL     OW28072   2.173   7.572   1.129 -0.1476 -0.3491 -0.2930
 9055SOL    HW128073   2.197   7.651   1.177  0.5527 -0.5693 -0.2646
 9055SOL    HW228074   2.237   7.507   1.157 -0.5477 -0.8509 -0.5265
 9056SOL     OW28075   4.125   1.118   7.257  0.1748 -0.7183 -0.1614
 9056SOL    HW128076   4.063   1.046   7.267 -0.2639 -0.2327  0.7139
 9056SOL    HW228077   4.192   1.084   7.198 -1.2857 -1.0111 -1.7013
 9057SOL     OW28078   2.655   7.256   7.037  0.2906  0.2140  0.1788
 9057SOL    HW128079   2.713   7.304   6.978  0.3689  2.5330  2.0138
 9057SOL    HW228080   2.714   7.210   7.097  0.2103 -0.4479 -0.2436
 9058SOL     OW28081   5.293   7.383   0.835 -0.7589  0.0110 -0.1895
 9058SOL    HW128082   5.225   7.439   0.797 -0.4645  0.2126 -0.4298
 9058SOL    HW228083   5.263   7.293   0.818 -0.5085  0.0913 -1.1616
 9059SOL     OW28084   6.103   4.465   3.463 -0.0018 -0.2304  0.3024
 9059SOL    HW128085   6.103   4.561   3.465 -0.2767 -0.2285  0.2009
 9059SOL    HW228086   6.139   4.440   3.548  2.9912 -0.0326 -0.7884
 9060SOL     OW28087   3.181   5.601   5.822 -0.2542 -0.0941  0.6492
 9060SOL    HW128088   3.164   5.557   5.739 -0.7894  1.2565  0.0007
 9060SOL    HW228089   3.269   5.574   5.847 -0.2954 -0.9365 -0.0836
 9061SOL     OW28090   1.449   6.847   7.425 -0.3528 -0.0906  0.3421
 9061SOL    HW128091   1.462   6.828   7.518 -1.3619 -0.1347  0.4858
 9061SOL    HW228092   1.382   6.915   7.423  0.1627  0.4133 -0.3330
 9062SOL     OW28093   4.848   0.659   4.459 -0.3828 -0.0361  0.2702
 9062SOL    HW128094   4.847   0.651   4.363 -0.2951  0.6552  0.2025
 9062SOL    HW228095   4.940   0.676   4.480 -0.5720  0.9851  0.3557
 9063SOL     OW28096   3.931   1.612   3.687 -0.0074  0.1006  0.5163
 9063SOL    HW128097   4.025   1.597   3.685 -0.0976 -1.2402  2.6410
 9063SOL    HW228098   3.907   1.635   3.597  2.4556  1.3942  0.1117
 9064SOL     OW28099   5.174   1.161   4.079  0.4569 -0.4917  0.0778
 9064SOL    HW128100   5.151   1.103   4.007 -1.5627 -0.4050  0.5933
 9064SOL    HW228101   5.220   1.105   4.141 -1.3303 -1.5921  0.4990
 9065SOL     OW28102   5.509   0.623   7.336 -0.2542 -0.0989  0.0241
 9065SOL    HW128103   5.467   0.703   7.367  1.6465  1.4683 -1.2094
 9065SOL    HW228104   5.499   0.626   7.241  1.7686 -0.1207 -0.2277
 9066SOL     OW28105   3.320   2.591   1.404 -0.6295  0.0057  0.8716
 9066SOL    HW128106   3.405   2.630   1.423 -1.2443  1.6909  0.3535
 9066SOL    HW228107   3.327   2.562   1.313 -1.2207  2.0041  0.1420
 9067SOL     OW28108   0.760   1.978   2.155  0.3690 -0.0019  0.1343
 9067SOL    HW128109   0.697   2.010   2.090 -0.1758 -2.0411 -0.4480
 9067SOL    HW228110   0.727   1.890   2.177  1.8376 -0.2551  1.4466
 9068SOL     OW28111   0.205   2.332   6.541  0.7401 -0.0143 -0.0240
 9068SOL    HW128112   0.161   2.248   6.548  0.8169 -0.1996 -1.5005
 9068SOL    HW228113   0.247   2.344   6.626  0.8785 -1.5466  0.1474
 9069SOL     OW28114   7.574   2.354   5.270 -0.3066 -0.1112 -0.5942
 9069SOL    HW128115   7.652   2.372   5.322 -0.3515 -1.9229  0.1448
 9069SOL    HW228116   7.598   2.380   5.181  1.0350 -0.3622 -0.3147
 9070SOL     OW28117   2.065   0.871   1.595 -0.2112  0.1634 -0.1556
 9070SOL    HW128118   2.060   0.776   1.588  0.6615  0.0220  0.9573
 9070SOL    HW228119   2.028   0.903   1.512 -2.1789 -1.0823  0.1796
 9071SOL     OW28120   6.294   4.054   5.423  0.3537 -0.1166 -0.6435
 9071SOL    HW128121   6.309   4.002   5.502 -1.5249 -0.0418 -0.1916
 9071SOL    HW228122   6.351   4.015   5.357  2.0628 -0.0914  0.7630
 9072SOL     OW28123   3.030   4.664   5.513 -0.6080 -0.0461  0.6449
 9072SOL    HW128124   3.041   4.569   5.503  0.5026 -0.1886  2.7355
 9072SOL    HW228125   3.119   4.697   5.525 -0.9832  1.2852 -0.0853
 9073SOL     OW28126   5.958   1.209   2.510  0.1958  0.2124  0.1092
 9073SOL    HW128127   5.883   1.151   2.527  0.7395 -0.3613  0.6329
 9073SOL    HW228128   6.030   1.149   2.489  0.9383  0.6400  1.2763
 9074SOL     OW28129   0.632   2.723   3.444 -0.1914 -0.6950  0.3276
 9074SOL    HW128130   0.626   2.700   3.537 -1.1613  0.1168  0.4781
 9074SOL    HW228131   0.726   2.721   3.425 -0.0126 -1.2611  1.2219
 9075SOL     OW28132   4.068   4.158   6.644  0.0057 -0.2041 -0.0952
 9075SOL    HW128133   4.150   4.168   6.596  0.7571 -0.3472  1.1292
 9075SOL    HW228134   4.002   4.197   6.586  0.7548 -0.9984 -1.5481
 9076SOL     OW28135   1.354   7.191   4.452 -0.6204  0.1107 -0.5480
 9076SOL    HW128136   1.319   7.216   4.537  1.8376  1.9243  0.0371
 9076SOL    HW228137   1.304   7.244   4.389  0.2181  1.8221  0.1630
 9077SOL     OW28138   3.588   4.575   6.003 -0.1131 -0.2559 -0.1194
 9077SOL    HW128139   3.662   4.531   5.962  0.0473  0.8046 -1.0076
 9077SOL    HW228140   3.513   4.518   5.986  0.5320 -1.5108  1.0911
 9078SOL     OW28141   2.716   5.584   1.057  0.0818  0.0127  0.5482
 9078SOL    HW128142   2.695   5.512   1.117 -0.5621  0.7364  1.2230
 9078SOL    HW228143   2.811   5.590   1.060  0.2072 -1.3283 -0.1480
 9079SOL     OW28144   3.895   2.821   7.745 -0.0269  0.4668  0.1938
 9079SOL    HW128145   3.932   2.865   7.668  1.4935  0.2940  0.7804
 9079SOL    HW228146   3.946   2.740   7.752 -0.0031  0.5871  1.5074
 9080SOL     OW28147   4.982   5.998   4.943  0.0698 -0.1201  0.1096
 9080SOL    HW128148   4.897   6.037   4.920 -0.3819 -0.9972  0.2166
 9080SOL    HW228149   5.046   6.046   4.890 -0.2693  1.7138  1.2790
 9081SOL     OW28150   5.284   0.385   2.526  0.9544  0.2715  0.2882
 9081SOL    HW128151   5.280   0.393   2.621  0.2145  0.3274  0.2583
 9081SOL    HW228152   5.215   0.443   2.494  0.9668 -0.0106 -0.2666
 9082SOL     OW28153   0.956   5.334   5.488 -0.3404  0.2404  0.0149
 9082SOL    HW128154   0.926   5.284   5.565 -0.0184  0.4708  0.2919
 9082SOL    HW228155   0.990   5.416   5.525  1.6952 -0.4750 -0.1788
 9083SOL     OW28156   5.006   4.774   7.200  0.0320 -0.1320 -0.1969
 9083SOL    HW128157   5.037   4.849   7.251 -1.9864  1.5662 -1.3161
 9083SOL    HW228158   5.073   4.760   7.134  0.2271  1.0284 -0.2712
 9084SOL     OW28159   6.462   5.269   6.500 -0.3541 -0.1837  0.1874
 9084SOL    HW128160   6.468   5.229   6.587 -0.4751 -1.8037 -0.5076
 9084SOL    HW228161   6.531   5.335   6.500  0.3651 -0.8850  1.1576
 9085SOL     OW28162   6.120   4.861   3.188  0.2803  0.0525  0.3385
 9085SOL    HW128163   6.077   4.939   3.224 -1.8606 -0.6638 -0.4816
 9085SOL    HW228164   6.159   4.891   3.106  0.3042  0.4782  0.5042
 9086SOL     OW28165   1.614   4.123   5.721  0.2336  0.1641 -0.3668
 9086SOL    HW128166   1.566   4.202   5.747 -0.5849 -0.3055 -0.4237
 9086SOL    HW228167   1.579   4.100   5.635  1.5603  0.5975 -1.0539
 9087SOL     OW28168   5.944   0.887   6.455  1.1159 -0.0686  0.2801
 9087SOL    HW128169   5.872   0.841   6.412  0.8639 -0.2762  0.9237
 9087SOL    HW228170   6.015   0.886   6.390  0.5704  0.0749 -0.3276
 9088SOL     OW28171   4.324   6.930   2.439  0.6866 -0.2400 -0.2239
 9088SOL    HW128172   4.234   6.961   2.440  0.7628 -0.0216  0.6488
 9088SOL    HW228173   4.316   6.836   2.418  0.1881 -0.4021  0.6278
 9089SOL     OW28174   3.820   3.744   4.592 -0.9872  0.3556 -0.0567
 9089SOL    HW128175   3.899   3.755   4.645 -1.0212 -1.4935  0.4559
 9089SOL    HW228176   3.852   3.740   4.502 -0.4641 -0.3481  0.1474
 9090SOL     OW28177   3.913   5.864   2.020  0.0679 -0.2990  0.6509
 9090SOL    HW128178   3.859   5.874   1.942 -0.8003 -0.1740  1.2526
 9090SOL    HW228179   3.883   5.933   2.079  2.2220  1.0508  0.2894
 9091SOL     OW28180   1.383   3.735   2.409  0.5071  0.0224 -0.4699
 9091SOL    HW128181   1.311   3.744   2.473 -1.4463  0.1885 -2.5648
 9091SOL    HW228182   1.376   3.645   2.378  2.0350 -0.3413  0.1543
 9092SOL     OW28183   5.527   6.611   0.571  0.0089 -0.0458  0.4150
 9092SOL    HW128184   5.459   6.544   0.569  0.6923 -0.7397 -0.0804
 9092SOL    HW228185   5.592   6.578   0.634  1.1869 -0.7102 -1.0841
 9093SOL     OW28186   3.668   1.252   5.416 -0.3236 -0.4558 -0.4635
 9093SOL    HW128187   3.590   1.288   5.373 -0.3174 -0.7340 -0.7118
 9093SOL    HW228188   3.695   1.179   5.360  0.5970  0.1526 -0.8433
 9094SOL     OW28189   6.293   4.080   3.125 -0.6219 -0.0464  0.0790
 9094SOL    HW128190   6.282   4.163   3.171  3.4805  1.6011 -1.4233
 9094SOL    HW228191   6.327   4.020   3.191 -1.1755  0.2354  0.6266
 9095SOL     OW28192   2.435   2.189   7.127  0.0203  0.1280  0.2800
 9095SOL    HW128193   2.461   2.099   7.107  0.1779  0.0252  0.9297
 9095SOL    HW228194   2.507   2.224   7.181  0.4008  0.9435 -0.7083
 9096SOL     OW28195   3.224   5.315   0.424 -0.3420 -0.4764 -0.0732
 9096SOL    HW128196   3.243   5.225   0.396  1.7061  0.1773 -1.0216
 9096SOL    HW228197   3.199   5.307   0.516  1.0591 -1.9203  0.2285
 9097SOL     OW28198   7.389   4.969   5.707 -0.2689 -0.0790 -0.1244
 9097SOL    HW128199   7.329   4.922   5.648  0.3563 -0.7551 -0.2267
 9097SOL    HW228200   7.337   4.984   5.786 -0.5340 -0.7668 -0.1628
 9098SOL     OW28201   6.691   7.442   6.586 -0.3274  0.2021 -0.0183
 9098SOL    HW128202   6.634   7.426   6.511  1.2604  0.3538 -1.3052
 9098SOL    HW228203   6.642   7.505   6.640 -0.5116  1.9879 -2.1499
 9099SOL     OW28204   2.161   0.229   7.430 -0.3579  0.0083 -0.0293
 9099SOL    HW128205   2.193   0.265   7.512 -0.5165  1.3420 -0.5264
 9099SOL    HW228206   2.163   0.134   7.442  0.1910  0.1768  1.2838
 9100SOL     OW28207   1.808   5.878   5.670  0.3165 -0.3896  0.2325
 9100SOL    HW128208   1.815   5.793   5.627 -0.4246 -0.9937  1.2871
 9100SOL    HW228209   1.897   5.914   5.667  0.4442 -0.7761 -1.0488
 9101SOL     OW28210   5.353   6.123   0.661 -0.0888  0.4849  0.2790
 9101SOL    HW128211   5.420   6.112   0.593 -1.9991 -2.1166 -1.3648
 9101SOL    HW228212   5.380   6.202   0.708  2.7652  0.9381 -1.8196
 9102SOL     OW28213   5.155   4.078   3.730 -0.3783  0.5879 -0.1647
 9102SOL    HW128214   5.079   4.057   3.784 -0.3763 -0.4791 -0.5525
 9102SOL    HW228215   5.119   4.086   3.641 -0.0546  0.1571 -0.3366
 9103SOL     OW28216   1.963   7.566   6.565 -0.0127  0.1278  0.1286
 9103SOL    HW128217   2.014   7.601   6.638  0.7800  0.6107 -0.6373
 9103SOL    HW228218   1.939   7.643   6.514  0.3256 -0.2834 -0.6774
 9104SOL     OW28219   6.433   1.848   4.304 -0.3250  0.0199 -0.1478
 9104SOL    HW128220   6.379   1.773   4.281 -0.0995  0.0792 -0.9310
 9104SOL    HW228221   6.513   1.836   4.252 -0.8912  1.5569 -1.4556
 9105SOL     OW28222   2.241   6.408   0.772  0.0166 -0.1832  0.7527
 9105SOL    HW128223   2.258   6.502   0.775  0.6340 -0.2676  0.0413
 9105SOL    HW228224   2.266   6.377   0.859 -2.0028  0.5850  1.6882
 9106SOL     OW28225   6.344   5.913   7.187  0.1311 -0.2487  0.8933
 9106SOL    HW128226   6.438   5.903   7.202  0.1822 -0.7522  0.2943
 9106SOL    HW228227   6.316   5.976   7.253  1.1149  0.8587  0.3021
 9107SOL     OW28228   4.270   7.194   1.431  0.4055  0.1318  0.0447
 9107SOL    HW128229   4.318   7.123   1.388  1.5930  0.6457  0.4608
 9107SOL    HW228230   4.210   7.226   1.365  1.6347  0.3869 -0.9883
 9108SOL     OW28231   7.346   0.327   1.892  0.0156  0.1561 -0.2507
 9108SOL    HW128232   7.348   0.395   1.825 -1.8642 -0.1067 -0.6474
 9108SOL    HW228233   7.275   0.268   1.864  0.8306 -1.3445  0.6746
 9109SOL     OW28234   4.018   1.893   2.272  0.1845  0.0496 -0.0110
 9109SOL    HW128235   3.997   1.813   2.320 -1.4347 -0.2678 -1.1792
 9109SOL    HW228236   4.076   1.863   2.202  2.2535  0.4596  1.4131
 9110SOL     OW28237   6.774   5.755   1.296  0.2676 -0.8377 -0.2015
 9110SOL    HW128238   6.845   5.736   1.357 -0.3227 -1.1420  0.3937
 9110SOL    HW228239   6.741   5.669   1.269  1.0622 -0.7405 -1.6059
 9111SOL     OW28240   4.396   4.176   5.192  0.5156  0.1543  0.6721
 9111SOL    HW128241   4.380   4.262   5.231 -4.9547 -0.7227  1.1928
 9111SOL    HW228242   4.416   4.119   5.266 -0.6852  0.1728  1.0321
 9112SOL     OW28243   5.384   2.660   0.634  0.4439  1.0422 -0.4402
 9112SOL    HW128244   5.449   2.695   0.695  3.1734 -2.5804 -0.8776
 9112SOL    HW228245   5.422   2.674   0.548 -1.4144  2.4669 -1.0866
 9113SOL     OW28246   1.550   3.184   3.783 -0.0689 -0.2859  0.9129
 9113SOL    HW128247   1.622   3.121   3.790 -0.5265 -0.9338 -0.0708
 9113SOL    HW228248   1.586   3.255   3.731 -0.0026 -0.3948  0.8099
 9114SOL     OW28249   5.323   3.395   1.446  0.1051  0.2369  0.1053
 9114SOL    HW128250   5.341   3.485   1.471  1.9124  0.0809 -0.4192
 9114SOL    HW228251   5.345   3.344   1.524  1.2721  0.1116 -0.2765
 9115SOL     OW28252   7.598   4.998   5.142 -0.4438  0.1258 -0.2135
 9115SOL    HW128253   7.627   4.987   5.052 -1.3501 -0.8160 -0.4177
 9115SOL    HW228254   7.658   4.944   5.193  2.1354  3.1570  0.2248
 9116SOL     OW28255   7.062   7.513   4.222  0.0763  0.5531  0.4576
 9116SOL    HW128256   7.069   7.417   4.220  1.9511  0.6482  0.0996
 9116SOL    HW228257   7.055   7.533   4.316  0.2276  0.0835  0.5771
 9117SOL     OW28258   4.217   1.497   5.641  0.1889 -0.4938 -0.0418
 9117SOL    HW128259   4.174   1.556   5.580  0.2313 -0.9693 -0.5315
 9117SOL    HW228260   4.309   1.498   5.614  0.2484 -0.5237  0.1579
 9118SOL     OW28261   4.563   0.533   0.040 -0.2978 -0.0225  0.1623
 9118SOL    HW128262   4.507   0.609   0.054  2.9949  2.5462  0.4988
 9118SOL    HW228263   4.551   0.511  -0.053  0.1547  2.2618 -0.4884
 9119SOL     OW28264   3.118   6.410   6.978 -0.0897 -1.1957  0.3413
 9119SOL    HW128265   3.195   6.354   6.981 -0.2495 -1.4288  0.1134
 9119SOL    HW228266   3.090   6.418   7.069  0.8374 -0.2245  0.5546
 9120SOL     OW28267   1.559   6.206   1.040  0.2393 -0.2603 -0.1809
 9120SOL    HW128268   1.585   6.289   1.082  0.1994 -0.2205 -0.2339
 9120SOL    HW228269   1.612   6.203   0.960 -1.4773  0.9000 -1.4339
 9121SOL     OW28270   5.535   2.437   4.314  0.1176 -0.6290  0.0692
 9121SOL    HW128271   5.623   2.468   4.335 -0.0121 -0.1835 -0.0359
 9121SOL    HW228272   5.491   2.431   4.399  0.5935 -1.9640  0.2532
 9122SOL     OW28273   4.666   3.910   2.164  0.3859 -0.5310 -0.3037
 9122SOL    HW128274   4.753   3.875   2.146  0.8791  0.2236  0.4992
 9122SOL    HW228275   4.639   3.864   2.244  1.3223  1.2908  1.1506
 9123SOL     OW28276   5.032   0.594   6.713 -0.2497  0.2875 -0.4509
 9123SOL    HW128277   5.031   0.657   6.641 -1.8805 -0.3908 -1.0789
 9123SOL    HW228278   5.020   0.648   6.791  0.5886  0.9430 -0.7545
 9124SOL     OW28279   2.983   5.410   7.475  0.4356 -0.1052  0.8375
 9124SOL    HW128280   3.051   5.348   7.498  1.6508  1.3379  1.3126
 9124SOL    HW228281   2.973   5.402   7.380  0.7146 -0.8478  0.8656
 9125SOL     OW28282   2.219   4.973   1.914  0.2351  0.0779  0.0046
 9125SOL    HW128283   2.285   5.022   1.964  0.2951  0.3113 -0.2971
 9125SOL    HW228284   2.166   4.930   1.981 -0.2985  1.1684  0.3152
 9126SOL     OW28285   1.980   3.563   6.608 -0.0503 -0.0063  0.2757
 9126SOL    HW128286   1.946   3.641   6.564 -0.4745  1.8868  3.6372
 9126SOL    HW228287   1.909   3.499   6.604 -0.9648  1.0016  0.3019
 9127SOL     OW28288   2.144   0.515   7.444 -0.0548  0.2495  0.6064
 9127SOL    HW128289   2.098   0.566   7.377 -0.1114  1.8402  1.8177
 9127SOL    HW228290   2.082   0.445   7.466 -0.2025 -0.0526 -0.6798
 9128SOL     OW28291   1.063   0.423   4.243 -0.5791  0.4656 -0.2850
 9128SOL    HW128292   1.144   0.407   4.194 -1.5148 -0.9885 -1.4086
 9128SOL    HW228293   1.061   0.355   4.310 -1.3676 -0.1804 -0.9395
 9129SOL     OW28294   5.046   6.389   3.770 -0.0571 -0.4093 -0.0106
 9129SOL    HW128295   5.003   6.474   3.764  1.9791  0.5883 -1.6906
 9129SOL    HW228296   4.997   6.333   3.710 -1.7999 -0.6865  1.5684
 9130SOL     OW28297   5.166   6.887   7.407  0.2696 -0.0094 -0.3268
 9130SOL    HW128298   5.126   6.811   7.450  0.3189 -1.2000 -2.2219
 9130SOL    HW228299   5.096   6.952   7.405 -0.4000 -0.7054 -0.3138
 9131SOL     OW28300   6.163   2.254   3.919 -0.0236 -0.5940 -0.8365
 9131SOL    HW128301   6.229   2.289   3.979 -0.5395 -0.9233 -0.0544
 9131SOL    HW228302   6.165   2.313   3.843  2.3405 -1.5715 -1.6044
 9132SOL     OW28303   4.774   6.237   5.940  0.1963  0.2500  0.4948
 9132SOL    HW128304   4.740   6.178   5.873 -0.0477 -0.4972  1.2605
 9132SOL    HW228305   4.805   6.179   6.009 -1.0998  1.0123  1.7673
 9133SOL     OW28306   7.388   5.892   2.104  0.4498  0.0096 -0.4667
 9133SOL    HW128307   7.423   5.846   2.028  2.4136 -0.5985  0.7218
 9133SOL    HW228308   7.323   5.831   2.141  0.0434 -0.0167 -1.2196
 9134SOL     OW28309   7.121   6.176   6.917 -0.7046  0.4917 -0.8895
 9134SOL    HW128310   7.157   6.135   6.838  0.2750 -1.0641  0.3063
 9134SOL    HW228311   7.068   6.107   6.957 -1.0387  1.1988 -0.0801
 9135SOL     OW28312   2.006   7.722   0.511 -0.0875 -0.3107 -0.5494
 9135SOL    HW128313   2.048   7.661   0.572  0.6213  0.4753 -0.2280
 9135SOL    HW228314   2.059   7.801   0.517 -0.9422  0.3084 -1.0210
 9136SOL     OW28315   5.817   1.771   6.180  0.3116 -0.2981  0.4326
 9136SOL    HW128316   5.739   1.778   6.125 -0.4156  0.9695  1.5631
 9136SOL    HW228317   5.829   1.858   6.217  1.5937 -0.7604  1.1997
 9137SOL     OW28318   3.886   3.771   4.978 -0.0116 -0.1553  0.3326
 9137SOL    HW128319   3.935   3.806   5.052 -0.9173  1.9520 -0.0029
 9137SOL    HW228320   3.944   3.784   4.903  0.2478 -0.7784  0.4207
 9138SOL     OW28321   6.739   3.382   2.142  0.3409 -0.1289  0.5837
 9138SOL    HW128322   6.730   3.304   2.197 -1.7104  0.0792  0.6193
 9138SOL    HW228323   6.728   3.349   2.053 -0.7263  0.1262  0.6113
 9139SOL     OW28324   0.067   4.980   6.336 -0.1753 -0.7364 -0.3492
 9139SOL    HW128325   0.156   4.967   6.370  0.1543  0.9213 -0.4502
 9139SOL    HW228326   0.076   4.967   6.242 -0.1228 -0.9745 -0.3112
 9140SOL     OW28327   5.071   2.432   3.815  0.1113  0.6168  0.0198
 9140SOL    HW128328   5.160   2.458   3.790  1.1527 -3.3351 -1.1491
 9140SOL    HW228329   5.034   2.395   3.734 -1.5008 -0.3750  1.1635
 9141SOL     OW28330   2.201   7.315   5.453 -0.0609  0.6041  0.1310
 9141SOL    HW128331   2.114   7.281   5.430  0.1012  0.1157  0.2265
 9141SOL    HW228332   2.252   7.237   5.477 -0.1657  1.0705  1.9997
 9142SOL     OW28333   6.661   3.267   7.303 -0.0273 -0.0045 -0.1639
 9142SOL    HW128334   6.583   3.245   7.252  1.0854 -0.2892 -1.8023
 9142SOL    HW228335   6.629   3.273   7.393 -2.1394  0.8913 -0.8968
 9143SOL     OW28336   6.392   6.266   6.815  0.0999  0.0942 -0.1023
 9143SOL    HW128337   6.403   6.270   6.910  0.1602  0.0787 -0.1088
 9143SOL    HW228338   6.477   6.235   6.782  0.3385  0.8600 -0.2200
 9144SOL     OW28339   6.827   6.826   3.115 -0.0479 -0.0630  0.0827
 9144SOL    HW128340   6.781   6.888   3.172  1.8993  1.7716 -0.2056
 9144SOL    HW228341   6.852   6.878   3.039 -0.0121 -1.7346 -1.0892
 9145SOL     OW28342   7.464   6.542   5.715 -0.2981  0.1797  0.6935
 9145SOL    HW128343   7.502   6.459   5.745  1.8747  1.0509  0.5327
 9145SOL    HW228344   7.464   6.598   5.792  1.4716  1.1040  0.0676
 9146SOL     OW28345   2.651   7.125   6.432  0.0104 -0.3981  0.3196
 9146SOL    HW128346   2.584   7.073   6.387  1.0130 -1.3445 -0.1233
 9146SOL    HW228347   2.712   7.149   6.363  0.3693  0.0870  0.7979
 9147SOL     OW28348   3.391   2.419   2.725 -0.1927  0.2178  0.1472
 9147SOL    HW128349   3.469   2.438   2.777 -0.5887  0.4983  0.6535
 9147SOL    HW228350   3.406   2.331   2.691  0.8795  0.7272 -0.7653
 9148SOL     OW28351   6.282   3.866   7.474 -0.4675 -0.5357 -0.0407
 9148SOL    HW128352   6.270   3.771   7.473 -1.2880 -0.6881  4.1291
 9148SOL    HW228353   6.195   3.901   7.494  0.4913  0.6540  2.5102
 9149SOL     OW28354   6.357   3.371   4.095  0.0264  1.5591  0.2262
 9149SOL    HW128355   6.320   3.454   4.066 -1.0752  0.9701 -0.0961
 9149SOL    HW228356   6.448   3.392   4.117 -0.1525  2.7817 -0.1243
 9150SOL     OW28357   3.048   1.119   6.601 -0.1103 -0.3640 -0.2444
 9150SOL    HW128358   3.023   1.027   6.608  0.5226 -0.5967 -0.8506
 9150SOL    HW228359   3.097   1.137   6.681  0.8296 -0.9169 -0.6792
 9151SOL     OW28360   4.485   4.262   4.209 -0.2550 -0.0618 -0.1617
 9151SOL    HW128361   4.406   4.257   4.263 -0.7440 -0.3016 -0.8957
 9151SOL    HW228362   4.557   4.256   4.272 -0.8133 -1.4703  0.3810
 9152SOL     OW28363   7.690   1.658   0.706 -0.4943  0.6618  0.3117
 9152SOL    HW128364   7.665   1.700   0.624  0.2155 -1.1515 -0.9106
 9152SOL    HW228365   7.621   1.593   0.722 -0.5507  0.8981  1.1010
 9153SOL     OW28366   7.656   3.968   7.423 -0.2160  0.5108  0.1300
 9153SOL    HW128367   7.630   4.059   7.408 -1.4814  0.2921  0.8673
 9153SOL    HW228368   7.723   3.973   7.491 -1.0171  0.8374  0.9138
 9154SOL     OW28369   7.535   2.851   1.407  0.0036  0.2242  0.1518
 9154SOL    HW128370   7.553   2.933   1.362 -0.8485  0.5951  0.4695
 9154SOL    HW228371   7.528   2.786   1.337  2.9344 -0.0727 -0.0034
 9155SOL     OW28372   0.623   5.788   6.113  0.4659  0.3918 -0.0147
 9155SOL    HW128373   0.602   5.845   6.187 -2.0438 -2.4897  1.7069
 9155SOL    HW228374   0.556   5.808   6.048 -1.3805 -1.4567  1.2014
 9156SOL     OW28375   1.499   0.609   3.313 -0.0827 -0.1963  0.3083
 9156SOL    HW128376   1.471   0.696   3.343 -0.5529 -0.2876  0.1546
 9156SOL    HW228377   1.594   0.614   3.307 -0.0078 -0.0532  1.4354
 9157SOL     OW28378   6.726   5.341   3.575  0.2763  0.2172 -0.2867
 9157SOL    HW128379   6.682   5.402   3.634  1.4260  1.8411 -1.0208
 9157SOL    HW228380   6.802   5.310   3.624 -0.3803 -0.7814  0.1360
 9158SOL     OW28381   0.040   5.844   0.812  0.6494  0.5395  0.5788
 9158SOL    HW128382   0.064   5.756   0.781  1.4265  0.4981  1.2581
 9158SOL    HW228383   0.114   5.899   0.786 -0.8065  1.5047 -1.8643
 9159SOL     OW28384   0.818   3.406   6.813 -0.0391  0.2754  0.0194
 9159SOL    HW128385   0.727   3.429   6.795 -0.2628 -0.5991 -0.0087
 9159SOL    HW228386   0.823   3.312   6.796  0.4806  0.0029  1.5192
 9160SOL     OW28387   3.385   3.388   0.398  0.0775  0.8543 -0.3779
 9160SOL    HW128388   3.443   3.459   0.426 -0.4274  1.0512  0.1831
 9160SOL    HW228389   3.298   3.428   0.392 -0.3525  0.1232  0.6574
 9161SOL     OW28390   7.467   1.243   3.444 -0.0681  0.4630 -0.9040
 9161SOL    HW128391   7.382   1.221   3.406 -0.5211  0.5688  0.0036
 9161SOL    HW228392   7.453   1.328   3.485  0.2345  0.1049 -0.0323
 9162SOL     OW28393   2.203   7.232   5.929 -0.2489 -0.5803  0.5043
 9162SOL    HW128394   2.148   7.298   5.972 -0.4044  0.4716 -1.2282
 9162SOL    HW228395   2.291   7.250   5.961 -0.3737  0.1213  0.4792
 9163SOL     OW28396   7.584   5.479   5.708  0.5229 -0.1375  0.1958
 9163SOL    HW128397   7.557   5.389   5.726  2.1827 -0.4943  1.0464
 9163SOL    HW228398   7.520   5.533   5.755 -0.6105 -0.8384 -0.4955
 9164SOL     OW28399   3.096   3.241   5.709  0.5191  0.1900 -0.1537
 9164SOL    HW128400   3.034   3.224   5.781  2.4638 -1.6943  1.2103
 9164SOL    HW228401   3.173   3.276   5.752  1.6732 -0.8280 -1.3250
 9165SOL     OW28402   1.636   4.449   3.849  0.6082  0.0163  0.0414
 9165SOL    HW128403   1.608   4.490   3.930 -0.8036 -0.0587 -0.3782
 9165SOL    HW228404   1.607   4.509   3.780  4.2353  1.5165 -0.3932
 9166SOL     OW28405   1.543   1.206   1.986  0.4863 -0.0149  0.7597
 9166SOL    HW128406   1.620   1.182   1.934 -0.2928  0.3657 -0.6206
 9166SOL    HW228407   1.574   1.273   2.046  1.1111  0.5750 -0.2024
 9167SOL     OW28408   0.593   1.989   7.096 -0.3295 -0.3311 -0.3417
 9167SOL    HW128409   0.572   1.961   7.007 -3.4156 -0.3935  0.2675
 9167SOL    HW228410   0.522   2.048   7.119  0.3270 -0.3951  2.1214
 9168SOL     OW28411   7.539   6.295   5.759  0.0421 -0.1069  0.2536
 9168SOL    HW128412   7.493   6.214   5.737 -0.0547 -0.0676  0.3113
 9168SOL    HW228413   7.594   6.272   5.834 -0.0953 -0.0813  0.3619
 9169SOL     OW28414   4.369   2.197   4.201 -0.1169  0.0743 -0.0439
 9169SOL    HW128415   4.348   2.202   4.294  1.1435 -1.7096  0.3952
 9169SOL    HW228416   4.441   2.134   4.196 -0.4965 -0.2754 -2.2825
 9170SOL     OW28417   6.687   6.642   5.667  0.2734  0.4234 -0.8503
 9170SOL    HW128418   6.742   6.671   5.739  0.2877 -0.1762 -0.6115
 9170SOL    HW228419   6.747   6.596   5.608  0.1633  0.4185 -0.9594
 9171SOL     OW28420   1.104   1.889   5.587  0.0417  0.3990  0.9620
 9171SOL    HW128421   1.080   1.954   5.653 -0.7073 -0.8833  1.9940
 9171SOL    HW228422   1.200   1.888   5.589  0.0532 -0.3188  2.8073
 9172SOL     OW28423   3.116   4.002   5.776 -0.5911 -0.2114 -0.7594
 9172SOL    HW128424   3.095   4.005   5.682 -0.7694 -0.5467 -0.7345
 9172SOL    HW228425   3.048   4.056   5.817 -0.5980 -0.1804 -0.8112
 9173SOL     OW28426   4.907   2.290   4.582  0.1088 -0.1358 -0.4209
 9173SOL    HW128427   4.955   2.250   4.654  0.1718 -0.5644 -0.6911
 9173SOL    HW228428   4.860   2.363   4.621  0.2499 -0.2815  0.0263
 9174SOL     OW28429   4.163   5.016   1.079 -0.1012  0.0052 -0.2376
 9174SOL    HW128430   4.081   5.059   1.056  0.8440  0.2497 -3.6934
 9174SOL    HW228431   4.201   5.072   1.147 -1.0910  2.0393 -1.2577
 9175SOL     OW28432   2.436   4.593   1.744  0.2276 -0.4087 -0.2696
 9175SOL    HW128433   2.485   4.674   1.728  0.4675 -0.7851 -1.5840
 9175SOL    HW228434   2.395   4.606   1.830  1.3058  0.5721  0.1214
 9176SOL     OW28435   2.754   0.790   3.390  0.6373  0.0065  0.6666
 9176SOL    HW128436   2.840   0.832   3.383  1.4159 -1.2985  1.8551
 9176SOL    HW228437   2.730   0.769   3.300  1.6973  0.1127  0.3435
 9177SOL     OW28438   3.974   5.562   0.007  0.2260  0.6460 -0.2199
 9177SOL    HW128439   3.972   5.562   0.103 -0.9398 -0.3962 -0.2147
 9177SOL    HW228440   3.949   5.651  -0.017 -4.0120 -0.1251  0.4857
 9178SOL     OW28441   5.703   2.014   3.436 -0.7309 -0.1102  0.0764
 9178SOL    HW128442   5.745   1.972   3.511  1.0231 -0.0523 -0.8170
 9178SOL    HW228443   5.729   1.961   3.361 -1.6965  0.3560 -0.6118
 9179SOL     OW28444   6.740   4.148   4.451 -0.1210 -0.2761 -0.0026
 9179SOL    HW128445   6.820   4.197   4.472 -1.3292  0.6779  2.8254
 9179SOL    HW228446   6.702   4.125   4.536 -3.7577  0.8540 -1.1110
 9180SOL     OW28447   6.257   1.611   5.003  0.2844 -0.1220 -0.3597
 9180SOL    HW128448   6.273   1.607   5.098  1.2137  0.1295 -0.5011
 9180SOL    HW228449   6.338   1.646   4.966  0.9400 -2.6534 -1.5213
 9181SOL     OW28450   5.330   5.835   1.335 -0.3308  0.5093 -0.1653
 9181SOL    HW128451   5.334   5.919   1.381 -0.0308  1.0012 -1.0511
 9181SOL    HW228452   5.256   5.789   1.374 -0.2967  1.0552  0.5530
 9182SOL     OW28453   4.561   3.890   2.655  0.0098  0.5667 -0.0382
 9182SOL    HW128454   4.472   3.924   2.642 -0.9438 -1.0658  1.6694
 9182SOL    HW228455   4.599   3.948   2.721  0.1837  1.1715 -0.6554
 9183SOL     OW28456   1.243   5.574   5.941  0.0335  0.1350 -0.2046
 9183SOL    HW128457   1.258   5.664   5.967  0.5297 -0.0619  0.2179
 9183SOL    HW228458   1.320   5.526   5.974  0.1207 -0.3180 -1.0305
 9184SOL     OW28459   6.542   6.945   5.221 -0.2048  0.4766 -0.0526
 9184SOL    HW128460   6.624   6.972   5.262  0.5289  1.4657 -2.0362
 9184SOL    HW228461   6.487   6.916   5.294  0.3754  3.6797  1.8363
 9185SOL     OW28462   1.173   3.474   3.423  1.3504  0.1370  0.1114
 9185SOL    HW128463   1.253   3.442   3.381  1.2796  0.0883  0.0133
 9185SOL    HW228464   1.139   3.539   3.362  2.2507  1.4607  0.9487
 9186SOL     OW28465   5.343   2.539   1.169 -0.1559 -0.0248 -0.1431
 9186SOL    HW128466   5.434   2.557   1.195  0.5165 -0.6904 -1.8858
 9186SOL    HW228467   5.296   2.527   1.252  1.0810  1.4804  0.8271
 9187SOL     OW28468   1.868   5.682   5.862 -0.4113 -0.0317 -0.3460
 9187SOL    HW128469   1.909   5.732   5.932 -0.4104 -0.8197  0.2356
 9187SOL    HW228470   1.794   5.735   5.834 -1.6902 -0.6055  1.7075
 9188SOL     OW28471   3.934   2.135   2.610 -0.5147 -0.1131 -0.0609
 9188SOL    HW128472   3.981   2.056   2.584  0.7462  0.8385 -0.7849
 9188SOL    HW228473   3.998   2.205   2.600 -1.5289  0.9738  0.8207
 9189SOL     OW28474   4.754   4.293   4.962 -0.5790  0.4273 -0.1434
 9189SOL    HW128475   4.794   4.245   5.035  1.9540  0.5189 -1.3290
 9189SOL    HW228476   4.802   4.376   4.959 -0.6380  0.4350 -1.8616
 9190SOL     OW28477   0.089   5.605   3.920 -0.7109  0.4318 -0.0816
 9190SOL    HW128478   0.018   5.650   3.966 -1.4293 -0.9519  0.2496
 9190SOL    HW228479   0.166   5.620   3.973 -1.3233 -0.2704  1.0487
 9191SOL     OW28480   1.923   5.505   7.315  0.4777 -0.1830  0.8108
 9191SOL    HW128481   1.836   5.530   7.345 -0.2180 -1.1097 -0.3667
 9191SOL    HW228482   1.983   5.551   7.374 -0.8006 -0.2792  2.2444
 9192SOL     OW28483   5.689   7.183   2.498  0.3642 -0.2595  0.1133
 9192SOL    HW128484   5.668   7.255   2.558  0.4598  0.4664 -0.7024
 9192SOL    HW228485   5.607   7.137   2.485  0.2799 -0.2388  0.5596
 9193SOL     OW28486   1.299   3.053   3.243  0.1607 -0.4037 -0.1934
 9193SOL    HW128487   1.360   3.109   3.290 -0.4397 -0.5084  0.7325
 9193SOL    HW228488   1.213   3.090   3.261 -0.2646 -1.6904  0.5792
 9194SOL     OW28489   1.895   0.521   6.839  0.0729 -0.0426 -0.4941
 9194SOL    HW128490   1.869   0.475   6.759  0.2972  1.3494 -1.4039
 9194SOL    HW228491   1.991   0.524   6.835  0.0968 -0.1475 -0.0590
 9195SOL     OW28492   2.193   0.162   7.704  0.5290 -0.1359  0.3958
 9195SOL    HW128493   2.121   0.106   7.674 -0.2847  1.2721 -0.3789
 9195SOL    HW228494   2.180   0.167   7.799 -1.2220  1.1220  0.1456
 9196SOL     OW28495   3.437   3.987   4.179  0.2708  0.2293 -0.4244
 9196SOL    HW128496   3.353   3.942   4.189  0.6374 -0.2122  0.7893
 9196SOL    HW228497   3.414   4.079   4.165 -0.3974  0.3501  1.2808
 9197SOL     OW28498   3.998   4.300   7.564  0.2381  0.5363  0.0711
 9197SOL    HW128499   4.029   4.389   7.582 -2.1236  1.3700  0.4213
 9197SOL    HW228500   3.933   4.311   7.495  1.1923 -1.2060 -1.1648
 9198SOL     OW28501   1.423   3.415   7.212 -0.1500  0.0302  0.0234
 9198SOL    HW128502   1.517   3.433   7.199 -0.0355 -1.6201 -1.9072
 9198SOL    HW228503   1.420   3.341   7.272 -0.1776 -0.3166 -0.4006
 9199SOL     OW28504   2.487   5.155   1.554 -0.5572 -0.0464 -0.1998
 9199SOL    HW128505   2.581   5.170   1.558 -0.7547  1.7595 -1.0085
 9199SOL    HW228506   2.464   5.117   1.638  0.8111 -0.0042  0.2073
 9200SOL     OW28507   7.185   3.508   2.845  0.0749  1.4938 -0.7000
 9200SOL    HW128508   7.183   3.603   2.855 -1.3565  1.4837 -0.6644
 9200SOL    HW228509   7.255   3.479   2.903 -0.9688  2.3384  1.0534
 9201SOL     OW28510   0.813   7.702   3.245  0.1493 -0.4551 -0.7110
 9201SOL    HW128511   0.740   7.764   3.252  0.0108 -0.5704 -1.1317
 9201SOL    HW228512   0.835   7.700   3.152  2.1351  1.2357 -0.3676
 9202SOL     OW28513   5.633   7.509   5.430 -0.4026 -0.0670 -0.1561
 9202SOL    HW128514   5.557   7.557   5.465 -0.1226 -0.3308  0.8380
 9202SOL    HW228515   5.602   7.419   5.419 -0.9105  0.2880 -1.9697
 9203SOL     OW28516   1.125   6.820   2.977 -0.2247  0.1692  0.4058
 9203SOL    HW128517   1.077   6.744   3.010  0.7599 -0.5543  0.2413
 9203SOL    HW228518   1.062   6.868   2.924 -1.0201 -0.2210  0.9791
 9204SOL     OW28519   5.833   0.787   1.612  0.5373  0.7626  0.3786
 9204SOL    HW128520   5.869   0.875   1.617  3.4472 -0.3629  1.1720
 9204SOL    HW228521   5.857   0.746   1.695 -1.8006 -0.4555  0.5206
 9205SOL     OW28522   1.569   1.148   5.390 -0.4718 -0.5197 -0.1942
 9205SOL    HW128523   1.642   1.163   5.450  1.5801  1.0772 -2.8452
 9205SOL    HW228524   1.498   1.202   5.425  0.3102 -0.3999  1.2945
 9206SOL     OW28525   1.960   6.073   2.324 -0.7577 -0.1229  0.2782
 9206SOL    HW128526   1.954   5.980   2.300 -1.5571 -0.2641  0.9666
 9206SOL    HW228527   1.984   6.071   2.416  0.6249  0.3834 -0.0594
 9207SOL     OW28528   3.081   5.155   6.826  0.1640  0.2084 -0.0131
 9207SOL    HW128529   3.122   5.071   6.847  0.1771 -0.3561 -2.1164
 9207SOL    HW228530   3.147   5.202   6.775  0.0896  1.4656  0.9812
 9208SOL     OW28531   0.249   3.761   7.636 -0.1211  0.0920 -0.1986
 9208SOL    HW128532   0.298   3.738   7.715  2.0139 -3.6243 -2.3280
 9208SOL    HW228533   0.304   3.824   7.590 -0.4336  0.7500  0.3078
 9209SOL     OW28534   3.878   5.433   5.232 -0.6213 -0.1263  0.2283
 9209SOL    HW128535   3.859   5.360   5.173 -0.0663 -1.3852  1.5344
 9209SOL    HW228536   3.950   5.401   5.287  1.5598  2.4039 -0.9115
 9210SOL     OW28537   3.980   4.078   3.041  0.7016 -0.4140  0.4319
 9210SOL    HW128538   3.953   4.170   3.033  2.2562  0.1606  1.4053
 9210SOL    HW228539   4.063   4.082   3.087  0.0888 -2.4156  1.8059
 9211SOL     OW28540   5.662   6.627   1.597  0.7069  0.2525  0.2777
 9211SOL    HW128541   5.606   6.606   1.672  1.2324  1.2244  0.9618
 9211SOL    HW228542   5.749   6.594   1.621  1.2751  2.0621  0.8709
 9212SOL     OW28543   0.447   5.834   7.464 -0.1682 -0.3210 -0.2310
 9212SOL    HW128544   0.371   5.877   7.504 -0.4215 -0.5881 -0.4243
 9212SOL    HW228545   0.418   5.745   7.446 -0.1492 -0.1324 -1.2562
 9213SOL     OW28546   3.185   3.929   0.239 -0.4835  0.4631 -0.1496
 9213SOL    HW128547   3.191   3.862   0.172 -1.1031  0.8093 -0.5694
 9213SOL    HW228548   3.210   3.885   0.320  0.3909  0.0743 -0.6246
 9214SOL     OW28549   2.330   5.397   3.527 -0.1528 -0.1414 -0.4630
 9214SOL    HW128550   2.296   5.359   3.446  0.1532  1.7212 -1.4879
 9214SOL    HW228551   2.406   5.448   3.501  2.1042 -2.2349  1.4835
 9215SOL     OW28552   5.655   7.268   1.240  0.2160  0.3735  0.3511
 9215SOL    HW128553   5.584   7.205   1.251 -0.5353  1.2902  0.8470
 9215SOL    HW228554   5.691   7.249   1.153 -0.4207 -0.3057  0.2289
 9216SOL     OW28555   4.253   0.621   3.097 -0.3480  0.4908 -0.3273
 9216SOL    HW128556   4.327   0.674   3.067  0.0877  0.0312 -0.0893
 9216SOL    HW228557   4.178   0.653   3.047 -0.1861  1.6135  0.1160
 9217SOL     OW28558   5.901   1.822   0.706 -0.3199  0.2435  1.2769
 9217SOL    HW128559   5.823   1.766   0.702 -0.2068  0.0364  1.7687
 9217SOL    HW228560   5.947   1.792   0.785  0.5816 -0.0634  0.6540
 9218SOL     OW28561   3.111   4.584   7.192  0.6605 -0.1792  0.0408
 9218SOL    HW128562   3.032   4.634   7.210  1.0294  0.2679  0.4441
 9218SOL    HW228563   3.097   4.546   7.105 -0.8621 -1.7622  0.8964
 9219SOL     OW28564   7.203   1.614   1.713 -0.2057  0.2847 -0.6891
 9219SOL    HW128565   7.117   1.606   1.755 -0.7610  1.0564 -1.6322
 9219SOL    HW228566   7.200   1.700   1.670  1.1220  0.4166 -0.5592
 9220SOL     OW28567   2.021   1.189   0.752 -0.0605  0.2777  0.1606
 9220SOL    HW128568   2.075   1.117   0.785  0.5266  0.6653  0.0488
 9220SOL    HW228569   1.991   1.158   0.666  0.7995  0.4598 -0.2173
 9221SOL     OW28570   0.236   1.394   7.045  0.2663  0.3247  0.9427
 9221SOL    HW128571   0.155   1.398   6.994 -0.4042 -1.6394  1.7624
 9221SOL    HW228572   0.303   1.371   6.981 -0.0666  0.5890  0.4937
 9222SOL     OW28573   2.556   0.547   6.117  0.2211 -0.1544  0.0146
 9222SOL    HW128574   2.580   0.638   6.102  1.4472 -0.1243  1.8075
 9222SOL    HW228575   2.557   0.537   6.212 -0.6383 -1.8545 -0.1023
 9223SOL     OW28576   3.804   0.112   0.553 -0.1183  0.0885  0.7866
 9223SOL    HW128577   3.766   0.102   0.466 -1.0087  1.5670  0.9723
 9223SOL    HW228578   3.809   0.023   0.587 -1.2805 -0.3645 -0.1520
 9224SOL     OW28579   5.998   0.312   1.191 -0.1239  0.2129 -0.1672
 9224SOL    HW128580   5.942   0.371   1.141  0.8279  0.1910 -1.3135
 9224SOL    HW228581   6.073   0.366   1.217  0.8777 -0.4805 -1.4417
 9225SOL     OW28582   2.672   3.679   1.960  0.0626 -0.4832  1.0049
 9225SOL    HW128583   2.678   3.773   1.941 -0.8140 -0.4590  0.8372
 9225SOL    HW228584   2.628   3.673   2.044 -0.2325 -0.7592  0.8334
 9226SOL     OW28585   2.420   5.076   4.282  0.2530 -0.2297  0.7620
 9226SOL    HW128586   2.466   5.114   4.357 -0.2834 -0.7676  1.3767
 9226SOL    HW228587   2.332   5.114   4.285 -0.2505 -1.3881  1.3180
 9227SOL     OW28588   5.239   5.308   5.655  0.7467  0.5917 -0.0396
 9227SOL    HW128589   5.145   5.288   5.658  0.8459  0.1130 -0.1540
 9227SOL    HW228590   5.281   5.224   5.637  1.3008  0.5175  1.4365
 9228SOL     OW28591   0.322   5.102   7.288 -0.2963  0.1200  0.2512
 9228SOL    HW128592   0.237   5.139   7.312  0.0093  0.5300  0.7190
 9228SOL    HW228593   0.377   5.116   7.365  1.0380  2.4865 -1.0074
 9229SOL     OW28594   0.005   5.425   2.193  0.2062 -0.1037 -0.3546
 9229SOL    HW128595   0.014   5.346   2.247 -0.5764  0.3383  0.4308
 9229SOL    HW228596  -0.046   5.397   2.117  1.2621 -0.7130 -0.8705
 9230SOL     OW28597   4.617   4.262   1.060  0.2138 -0.0105 -0.9673
 9230SOL    HW128598   4.647   4.330   1.121 -2.1439 -0.4449  0.7877
 9230SOL    HW228599   4.662   4.183   1.088 -1.1443 -0.2896  0.5177
 9231SOL     OW28600   0.662   4.103   0.717 -0.0479  0.1741  0.1340
 9231SOL    HW128601   0.694   4.098   0.627 -0.3082 -0.7882  0.0902
 9231SOL    HW228602   0.734   4.068   0.770  0.1123  0.7542  0.3093
 9232SOL     OW28603   6.437   6.978   2.464 -0.4375  0.3911 -0.5571
 9232SOL    HW128604   6.450   6.887   2.438  1.5740  0.7893 -1.1663
 9232SOL    HW228605   6.382   6.974   2.542  2.1166 -1.5966  1.2945
 9233SOL     OW28606   5.999   7.378   2.496 -0.0986  0.2919 -0.1108
 9233SOL    HW128607   5.974   7.318   2.427 -1.1488  0.5081  0.0693
 9233SOL    HW228608   6.018   7.322   2.572  0.0783  0.1209 -0.2819
 9234SOL     OW28609   7.134   0.185   6.977  0.1867  0.2509  0.5754
 9234SOL    HW128610   7.198   0.180   7.048 -0.0249  0.1538  0.7578
 9234SOL    HW228611   7.060   0.132   7.007  0.8288 -1.3243 -0.4629
 9235SOL     OW28612   0.510   0.638   1.221 -0.6359 -0.1608 -0.2615
 9235SOL    HW128613   0.460   0.568   1.263 -0.0054 -1.1778 -1.1617
 9235SOL    HW228614   0.580   0.658   1.284 -0.4790 -0.7437 -0.2423
 9236SOL     OW28615   2.370   1.226   6.879 -0.8305 -0.3848 -0.4359
 9236SOL    HW128616   2.340   1.159   6.817  0.1025 -1.8202  0.5920
 9236SOL    HW228617   2.435   1.276   6.830 -0.6928 -0.9795 -0.8677
 9237SOL     OW28618   7.015   1.202   7.154 -0.4284 -0.5084 -0.6689
 9237SOL    HW128619   6.986   1.283   7.112  0.4781  0.7697  1.0226
 9237SOL    HW228620   7.103   1.221   7.185 -1.0945 -1.2148  1.9860
 9238SOL     OW28621   0.649   0.334   5.237  0.1928 -0.0731 -0.0533
 9238SOL    HW128622   0.732   0.382   5.233  0.7064 -0.9568 -0.2782
 9238SOL    HW228623   0.634   0.320   5.331 -0.3350  1.1338  0.0593
 9239SOL     OW28624   6.003   6.681   5.766  0.2865  0.4699  0.2146
 9239SOL    HW128625   6.093   6.654   5.745  0.5858  0.4705  1.4608
 9239SOL    HW228626   5.949   6.612   5.726  0.6877  1.4329 -2.1890
 9240SOL     OW28627   0.104   7.422   1.116  0.0342 -0.0917 -0.3035
 9240SOL    HW128628   0.171   7.444   1.181  0.8849 -0.6339 -0.9809
 9240SOL    HW228629   0.021   7.448   1.158  0.6031  0.0317  0.7867
 9241SOL     OW28630   2.498   1.843   4.373 -0.2772 -0.2833 -0.1357
 9241SOL    HW128631   2.501   1.924   4.423 -0.7804  1.4505 -2.7040
 9241SOL    HW228632   2.514   1.870   4.282 -1.4174 -2.9182 -1.2331
 9242SOL     OW28633   3.257   4.977   2.256 -0.2435 -0.5747  0.1843
 9242SOL    HW128634   3.292   5.031   2.327  0.3535  0.5443 -0.9294
 9242SOL    HW228635   3.163   4.969   2.277  0.2661 -2.0804  2.2161
 9243SOL     OW28636   4.659   3.461   6.637 -0.3429  0.4599  0.1414
 9243SOL    HW128637   4.627   3.395   6.699 -0.6730 -0.0529 -0.5613
 9243SOL    HW228638   4.579   3.498   6.599 -0.1622  1.3275  0.5765
 9244SOL     OW28639   1.099   7.113   5.243  0.1762  0.3416  0.1542
 9244SOL    HW128640   1.035   7.084   5.178 -0.4163  1.1121  0.3782
 9244SOL    HW228641   1.099   7.044   5.309 -0.6087  0.4392  0.2675
 9245SOL     OW28642   2.298   7.293   6.254 -0.2442 -0.4590 -0.5865
 9245SOL    HW128643   2.384   7.268   6.220 -0.2451  1.2411 -1.9733
 9245SOL    HW228644   2.300   7.389   6.257 -1.2014 -0.4259  1.8531
 9246SOL     OW28645   1.844   4.648   2.794 -0.0651 -0.0648 -0.0676
 9246SOL    HW128646   1.863   4.726   2.741 -0.9890  0.9027  0.9770
 9246SOL    HW228647   1.815   4.683   2.879 -2.2592 -1.4861 -0.1448
 9247SOL     OW28648   4.681   5.276   5.762 -0.3688  0.0422  0.5375
 9247SOL    HW128649   4.586   5.280   5.749 -0.2657 -0.2154 -0.3438
 9247SOL    HW228650   4.696   5.191   5.803 -0.6106  0.5197  1.6696
 9248SOL     OW28651   1.791   1.848   6.905 -0.1508 -0.0784  0.6047
 9248SOL    HW128652   1.845   1.887   6.835 -1.7439 -0.0649 -0.6730
 9248SOL    HW228653   1.817   1.756   6.907  0.3310  0.0494  0.4158
 9249SOL     OW28654   3.048   7.122   5.564 -0.0119  0.2713  0.3577
 9249SOL    HW128655   3.101   7.186   5.612 -1.0086  0.1217  1.7168
 9249SOL    HW228656   2.991   7.175   5.509  0.4055  0.4863  0.1267
 9250SOL     OW28657   4.174   3.725   4.495 -0.2550 -0.3344 -0.2138
 9250SOL    HW128658   4.125   3.712   4.414 -0.3354 -1.2638 -0.0334
 9250SOL    HW228659   4.263   3.747   4.466 -0.4793  0.1618 -0.5428
 9251SOL     OW28660   5.676   2.740   5.815 -0.1762 -0.1422 -0.4014
 9251SOL    HW128661   5.616   2.702   5.879 -2.1562 -0.5619 -2.3737
 9251SOL    HW228662   5.647   2.703   5.731  1.6419  1.1685 -1.6689
 9252SOL     OW28663   0.055   1.672   4.705 -0.6504 -0.4270  0.3169
 9252SOL    HW128664   0.055   1.658   4.799  0.1257  0.1427  0.4129
 9252SOL    HW228665   0.132   1.625   4.673 -0.9337 -0.6542 -0.0450
 9253SOL     OW28666   7.640   3.800   0.776 -0.3348  0.3601  0.2001
 9253SOL    HW128667   7.690   3.861   0.722  1.7903 -0.6964  0.8523
 9253SOL    HW228668   7.602   3.738   0.713  1.4764 -0.4077 -0.2191
 9254SOL     OW28669   2.736   5.596   7.204 -0.0985  0.6677  0.3750
 9254SOL    HW128670   2.645   5.564   7.205  0.3590 -0.6904  0.3678
 9254SOL    HW228671   2.743   5.644   7.121 -0.4479 -0.3425 -0.2604
 9255SOL     OW28672   5.100   4.655   5.508  0.3883 -0.2433 -0.0394
 9255SOL    HW128673   5.040   4.598   5.555  1.2221 -1.9940 -0.9985
 9255SOL    HW228674   5.123   4.723   5.571 -1.9672  0.0641  0.5892
 9256SOL     OW28675   5.087   3.300   1.706 -0.6091 -0.0354  0.0177
 9256SOL    HW128676   5.183   3.291   1.700 -0.5642  0.4507 -0.0704
 9256SOL    HW228677   5.053   3.217   1.674 -0.2094 -0.3425  0.3792
 9257SOL     OW28678   2.728   4.939   7.451 -0.3371  0.4898  0.1865
 9257SOL    HW128679   2.655   4.901   7.500 -0.7964  0.8891 -0.1785
 9257SOL    HW228680   2.722   4.899   7.364  1.9158 -2.0979  1.0734
 9258SOL     OW28681   3.462   5.792   5.657  0.2554  0.0596 -0.4913
 9258SOL    HW128682   3.447   5.725   5.591 -0.0753  0.6552 -1.0358
 9258SOL    HW228683   3.375   5.829   5.674  0.0068 -1.4387  1.7780
 9259SOL     OW28684   3.091   1.613   0.871 -0.1635  0.1958 -0.0405
 9259SOL    HW128685   3.117   1.670   0.798 -3.5077  2.3858  0.2289
 9259SOL    HW228686   3.169   1.609   0.927  2.2449 -0.8586 -3.1587
 9260SOL     OW28687   3.529   6.925   7.315  0.0975  0.2229 -0.1625
 9260SOL    HW128688   3.554   6.838   7.348 -0.2207  0.2306  0.0990
 9260SOL    HW228689   3.587   6.939   7.240 -1.5029 -1.2796 -1.7644
 9261SOL     OW28690   3.520   7.695   7.340  0.3063 -0.2108 -0.0025
 9261SOL    HW128691   3.462   7.658   7.407 -0.2316  2.1859  0.9560
 9261SOL    HW228692   3.559   7.619   7.297 -1.6196 -1.8615  1.0246
 9262SOL     OW28693   7.503   6.804   3.794 -0.0851  0.7009  0.1571
 9262SOL    HW128694   7.467   6.728   3.747 -2.3852  0.3653  2.2681
 9262SOL    HW228695   7.557   6.849   3.729 -1.7503 -0.6327 -2.2949
 9263SOL     OW28696   3.751   2.170   7.294 -0.3967 -0.2259  0.3815
 9263SOL    HW128697   3.691   2.096   7.306 -0.1815 -0.0789  2.9758
 9263SOL    HW228698   3.786   2.187   7.382  1.6155  1.2474 -0.6257
 9264SOL     OW28699   5.661   1.890   2.367  0.0174  0.1782  0.1684
 9264SOL    HW128700   5.655   1.828   2.294 -0.4512 -0.8788  1.0639
 9264SOL    HW228701   5.722   1.849   2.428  1.5713  1.7556 -0.2601
 9265SOL     OW28702   6.609   6.235   7.248  0.4538  0.4377  0.0444
 9265SOL    HW128703   6.674   6.302   7.231  1.1401 -0.3978 -0.7336
 9265SOL    HW228704   6.611   6.223   7.343  0.6245  1.2049  0.1385
 9266SOL     OW28705   4.349   1.991   1.893 -0.5378 -0.6413 -0.1367
 9266SOL    HW128706   4.431   1.982   1.941 -0.5657 -0.0856  0.0257
 9266SOL    HW228707   4.375   2.008   1.803 -0.4579  0.1930  0.0331
 9267SOL     OW28708   1.490   7.571   0.096  0.2054 -0.2186 -0.3767
 9267SOL    HW128709   1.459   7.633   0.029  2.1208  0.0798 -1.0761
 9267SOL    HW228710   1.467   7.485   0.061 -1.3917  0.0258  0.0114
 9268SOL     OW28711   5.203   0.747   1.443  0.2691 -0.4722 -0.1978
 9268SOL    HW128712   5.177   0.697   1.521 -2.5232  2.7397  1.1857
 9268SOL    HW228713   5.265   0.812   1.475 -1.3476  1.2551 -0.4202
 9269SOL     OW28714   3.275   2.261   4.179 -0.3876  0.8116 -0.1040
 9269SOL    HW128715   3.222   2.262   4.100 -1.9324  1.3565  0.9013
 9269SOL    HW228716   3.302   2.170   4.189  0.1516  0.7928 -1.4233
 9270SOL     OW28717   1.399   6.138   3.205  0.0056 -0.0655  0.0844
 9270SOL    HW128718   1.358   6.051   3.202 -0.8632  0.3557 -1.0833
 9270SOL    HW228719   1.437   6.143   3.292  0.1856 -1.6688  0.1335
 9271SOL     OW28720   1.520   7.646   2.149  0.7256 -0.1191 -0.0981
 9271SOL    HW128721   1.579   7.718   2.127  0.0793 -0.2449 -2.5945
 9271SOL    HW228722   1.565   7.568   2.119 -0.0830 -0.3667 -0.6940
 9272SOL     OW28723   1.141   3.822   6.418  0.3351  0.0133  0.1069
 9272SOL    HW128724   1.174   3.773   6.494 -0.2445 -2.1828 -0.9858
 9272SOL    HW228725   1.050   3.796   6.410 -0.1534  1.7036 -0.2486
 9273SOL     OW28726   4.362   2.813   5.513 -0.2368 -0.2604 -0.5338
 9273SOL    HW128727   4.385   2.779   5.426 -1.8605 -0.4426 -0.9295
 9273SOL    HW228728   4.278   2.859   5.499 -0.2381  0.1870  0.8306
 9274SOL     OW28729   2.830   6.941   4.904 -0.1315 -0.2745  0.0069
 9274SOL    HW128730   2.783   6.999   4.964 -1.2450 -2.0567  0.9404
 9274SOL    HW228731   2.904   6.994   4.873 -0.7142  1.4064  1.2938
 9275SOL     OW28732   4.670   2.752   4.395  0.1178 -0.3724 -0.3874
 9275SOL    HW128733   4.688   2.782   4.485 -0.3023 -0.1525 -0.3779
 9275SOL    HW228734   4.632   2.828   4.351 -0.1745 -0.6386 -0.5987
 9276SOL     OW28735   0.630   0.159   1.593 -0.7592 -0.6584 -0.1922
 9276SOL    HW128736   0.716   0.130   1.562 -0.8571 -1.4200  0.2236
 9276SOL    HW228737   0.568   0.116   1.535 -0.8753 -0.5229 -0.1677
 9277SOL     OW28738   4.223   3.372   3.107  0.0499 -0.8985  0.3742
 9277SOL    HW128739   4.150   3.431   3.095  2.3246  2.1057  0.1821
 9277SOL    HW228740   4.247   3.344   3.018  0.1652 -0.5339  0.2908
 9278SOL     OW28741   2.275   1.105   0.267 -0.0386  0.1040 -0.0529
 9278SOL    HW128742   2.269   1.010   0.278  0.9309 -0.2548 -2.2019
 9278SOL    HW228743   2.369   1.122   0.259 -0.0979  1.4448  1.5572
 9279SOL     OW28744   2.553   1.622   0.029 -0.1882  0.3018  0.1831
 9279SOL    HW128745   2.595   1.570  -0.040  0.5047 -1.3852  1.8113
 9279SOL    HW228746   2.485   1.671  -0.017  0.7007 -0.2147 -1.8169
 9280SOL     OW28747   2.371   0.410   5.314 -0.2525  0.3525 -0.1286
 9280SOL    HW128748   2.431   0.456   5.256 -0.5486 -0.1297 -0.8379
 9280SOL    HW228749   2.415   0.327   5.334 -0.1201  0.5475  0.3969
 9281SOL     OW28750   2.500   5.293   6.578  0.0631  0.0563 -0.3201
 9281SOL    HW128751   2.451   5.374   6.588 -1.4753 -0.9953  1.0465
 9281SOL    HW228752   2.556   5.308   6.501 -2.6592  1.1777 -2.2522
 9282SOL     OW28753   0.374   2.228   4.721 -0.1872 -0.1874  0.4297
 9282SOL    HW128754   0.415   2.200   4.803 -0.9543 -1.8930  0.2562
 9282SOL    HW228755   0.392   2.157   4.660 -0.5259  0.5931 -0.5928
 9283SOL     OW28756   4.797   7.632   5.890 -0.2305 -0.2638  0.4532
 9283SOL    HW128757   4.863   7.567   5.867  1.4989  1.1951  1.0277
 9283SOL    HW228758   4.780   7.679   5.808 -0.1476 -0.3024  0.4130
 9284SOL     OW28759   4.130   1.710   0.521  0.2065 -0.1716  0.0597
 9284SOL    HW128760   4.193   1.670   0.462 -0.3400 -1.1356  0.1118
 9284SOL    HW228761   4.165   1.798   0.538  1.3178 -0.5455 -0.2214
 9285SOL     OW28762   3.507   0.493   7.046 -0.2252 -0.1965  0.4522
 9285SOL    HW128763   3.464   0.418   7.087 -0.8788 -0.0930 -0.0335
 9285SOL    HW228764   3.577   0.516   7.107  0.0237 -1.2310  0.5843
 9286SOL     OW28765   1.713   7.346   7.098  0.2337  0.2295  0.0229
 9286SOL    HW128766   1.774   7.322   7.168 -0.3552  0.9338  0.7881
 9286SOL    HW228767   1.685   7.262   7.061 -0.1476 -0.1982  1.2417
 9287SOL     OW28768   3.546   2.856   4.728 -0.1041  0.1302  0.2864
 9287SOL    HW128769   3.504   2.942   4.731 -2.2113 -0.8774  1.4332
 9287SOL    HW228770   3.564   2.835   4.820  2.5855  0.2950 -0.1199
 9288SOL     OW28771   3.236   6.436   6.345 -0.1715 -0.3466 -0.2255
 9288SOL    HW128772   3.170   6.461   6.280  0.5322  0.7952 -0.5481
 9288SOL    HW228773   3.307   6.397   6.293 -1.1280 -2.9173  0.2484
 9289SOL     OW28774   5.174   1.159   0.394 -0.1492 -0.8386  0.2821
 9289SOL    HW128775   5.257   1.181   0.351  0.1665 -1.8148  0.3617
 9289SOL    HW228776   5.108   1.165   0.325  0.2220 -1.5249 -0.1443
 9290SOL     OW28777   4.324   0.940   6.432  0.1028 -0.3012  0.0255
 9290SOL    HW128778   4.270   0.924   6.354 -0.3391  0.9880  0.0358
 9290SOL    HW228779   4.352   1.031   6.423 -0.7369  0.1878  1.8144
 9291SOL     OW28780   4.587   5.133   5.481 -0.5971  0.0374  0.5649
 9291SOL    HW128781   4.512   5.085   5.517 -1.2598 -1.2722 -2.2613
 9291SOL    HW228782   4.574   5.130   5.386  0.9697  3.2817  0.0971
 9292SOL     OW28783   3.503   4.478   3.328  0.0285  0.4502  0.2045
 9292SOL    HW128784   3.578   4.434   3.286 -1.6082 -2.1048 -0.3247
 9292SOL    HW228785   3.538   4.517   3.407  1.9150 -0.7246 -0.0045
 9293SOL     OW28786   0.159   4.364   4.798  0.3974 -0.0681 -0.4583
 9293SOL    HW128787   0.176   4.440   4.743  0.2694 -0.0542 -0.4789
 9293SOL    HW228788   0.185   4.393   4.886 -2.0306  0.9066  0.0399
 9294SOL     OW28789   4.694   3.176   6.272 -0.0851 -0.4157 -0.0926
 9294SOL    HW128790   4.732   3.238   6.334 -0.1782  0.3911 -0.8135
 9294SOL    HW228791   4.667   3.102   6.325  0.5810 -0.0939  0.7120
 9295SOL     OW28792   4.264   0.824   1.870 -0.4911 -0.1048  0.4121
 9295SOL    HW128793   4.321   0.895   1.840 -0.1415 -0.5029  0.1398
 9295SOL    HW228794   4.185   0.833   1.817 -0.4857  0.1337  0.4401
 9296SOL     OW28795   1.317   2.064   6.295 -0.1521 -0.1808  0.3785
 9296SOL    HW128796   1.411   2.060   6.312  0.9891  2.4324 -3.7932
 9296SOL    HW228797   1.305   2.011   6.216 -1.9243  0.6091  0.0663
 9297SOL     OW28798   0.512   2.149   4.961  0.1148  0.0115  0.0101
 9297SOL    HW128799   0.424   2.164   4.995 -0.7497 -0.3449 -1.9243
 9297SOL    HW228800   0.566   2.217   5.003 -1.2643  0.8264  0.5154
 9298SOL     OW28801   1.230   0.978   5.709 -0.7209  0.4109 -0.1515
 9298SOL    HW128802   1.240   0.891   5.670  0.2407  1.7158 -3.1210
 9298SOL    HW228803   1.137   0.998   5.699 -1.0076 -0.3666  0.8336
 9299SOL     OW28804   7.256   3.422   4.795 -0.2465 -0.6292 -0.4391
 9299SOL    HW128805   7.338   3.471   4.792 -0.7337  0.1674 -1.5425
 9299SOL    HW228806   7.214   3.450   4.876  0.4547 -0.8483  0.0009
 9300SOL     OW28807   1.847   3.157   0.038 -0.1864 -0.3267 -0.0695
 9300SOL    HW128808   1.882   3.099   0.105 -1.0451 -1.0290 -0.2137
 9300SOL    HW228809   1.821   3.099  -0.034  0.2179  0.3640 -0.7860
 9301SOL     OW28810   0.233   4.454   6.764 -0.1116 -0.4656 -0.0417
 9301SOL    HW128811   0.225   4.418   6.852  4.5724 -3.5278 -0.5267
 9301SOL    HW228812   0.158   4.418   6.716 -2.5486  0.9695  2.4097
 9302SOL     OW28813   5.341   2.667   4.373  0.4331  0.0512 -0.0498
 9302SOL    HW128814   5.331   2.759   4.351 -0.0791 -0.1295 -0.5853
 9302SOL    HW228815   5.425   2.663   4.419  0.8763  0.6540 -0.7804
 9303SOL     OW28816   2.378   7.248   0.373  0.2454  0.0709 -0.1130
 9303SOL    HW128817   2.427   7.218   0.450  0.0656  1.1819  0.4491
 9303SOL    HW228818   2.445   7.274   0.310  0.4082  1.2544  0.5199
 9304SOL     OW28819   3.947   5.259   0.169  0.7605 -0.3596 -0.0871
 9304SOL    HW128820   4.014   5.249   0.102 -1.3771 -0.8816 -2.3086
 9304SOL    HW228821   3.880   5.314   0.128 -1.3774 -2.0043  0.9869
 9305SOL     OW28822   7.198   5.268   0.929 -0.1671  0.2667  0.3947
 9305SOL    HW128823   7.282   5.312   0.944 -0.3182  0.5802  0.3390
 9305SOL    HW228824   7.219   5.195   0.871  0.0032  0.5891  0.0450
 9306SOL     OW28825   0.280   6.539   7.459 -0.3407 -0.3328 -0.0511
 9306SOL    HW128826   0.343   6.516   7.527  1.3104  1.3187 -0.9381
 9306SOL    HW228827   0.322   6.609   7.409 -2.6197  0.4040 -1.1032
 9307SOL     OW28828   5.019   6.030   3.729 -0.2786 -0.1252 -0.2568
 9307SOL    HW128829   5.063   6.046   3.813 -0.3512  2.2325 -0.6061
 9307SOL    HW228830   5.004   6.117   3.692 -0.9647 -1.0641 -2.3739
 9308SOL     OW28831   1.800   3.699   6.431  0.3182  0.1971 -0.1883
 9308SOL    HW128832   1.757   3.660   6.507 -0.3622 -0.3978 -0.8615
 9308SOL    HW228833   1.728   3.725   6.374  0.8296 -0.9052 -1.3946
 9309SOL     OW28834   1.439   2.058   3.748  0.6464  0.0625 -0.2242
 9309SOL    HW128835   1.470   2.116   3.818 -0.6326 -0.2257  0.6033
 9309SOL    HW228836   1.465   1.970   3.777 -0.9101 -0.1875  0.4987
 9310SOL     OW28837   1.205   4.364   7.157  0.2579  0.3160 -0.0521
 9310SOL    HW128838   1.193   4.270   7.144  1.2020  0.3321 -1.1878
 9310SOL    HW228839   1.268   4.371   7.229 -0.6062  0.1193  0.7442
 9311SOL     OW28840   6.544   2.922   7.454  0.0255  0.2422  0.2118
 9311SOL    HW128841   6.560   2.944   7.362 -0.6288  2.8948  0.6478
 9311SOL    HW228842   6.630   2.903   7.489  0.5918  1.4124 -0.4691
 9312SOL     OW28843   7.311   3.041   6.342 -0.0150  0.3291 -1.0287
 9312SOL    HW128844   7.313   3.128   6.380  1.3407  0.4606 -1.3689
 9312SOL    HW228845   7.223   3.034   6.304 -1.2417  0.3784  1.5747
 9313SOL     OW28846   2.054   2.920   2.374 -0.3185  0.2173  0.0538
 9313SOL    HW128847   2.116   2.974   2.324  0.4910 -1.5222 -0.9424
 9313SOL    HW228848   2.064   2.949   2.464  1.2376  0.6700 -0.2339
 9314SOL     OW28849   4.941   4.899   5.425 -0.4784  0.1618 -0.1890
 9314SOL    HW128850   4.987   4.817   5.441  1.3352  0.8420 -1.5847
 9314SOL    HW228851   4.913   4.928   5.512 -0.2857 -1.4143  0.4408
 9315SOL     OW28852   3.582   3.590   3.593 -0.3408  0.0928 -0.2904
 9315SOL    HW128853   3.608   3.655   3.658  1.0354 -0.0426 -0.6950
 9315SOL    HW228854   3.592   3.506   3.639  0.6824 -0.0062 -0.6763
 9316SOL     OW28855   4.240   3.843   0.773  0.3739 -0.0731 -0.3214
 9316SOL    HW128856   4.332   3.856   0.796  0.6198 -1.4630 -0.4023
 9316SOL    HW228857   4.193   3.851   0.856  0.4818  1.2100 -0.3679
 9317SOL     OW28858   1.526   7.314   3.215  0.6389 -0.3643  0.4875
 9317SOL    HW128859   1.471   7.255   3.163  0.3145 -0.4894  0.9663
 9317SOL    HW228860   1.560   7.258   3.285 -1.9361  0.6030  2.6415
 9318SOL     OW28861   0.552   7.128   3.193  0.6662  0.0827  0.5601
 9318SOL    HW128862   0.594   7.116   3.278  0.6219 -4.2067  0.2167
 9318SOL    HW228863   0.620   7.109   3.129  0.0689  0.7682 -0.3113
 9319SOL     OW28864   7.096   5.254   4.551  0.2538  0.2729  0.1855
 9319SOL    HW128865   7.084   5.347   4.530  1.7955  0.2235 -1.0813
 9319SOL    HW228866   7.070   5.246   4.643 -4.4217  1.0288 -0.8161
 9320SOL     OW28867   2.852   5.752   1.570 -0.3502  0.1708  0.4293
 9320SOL    HW128868   2.790   5.817   1.535 -1.4787 -0.4850  1.1660
 9320SOL    HW228869   2.849   5.681   1.506 -1.4094 -0.4476  1.1336
 9321SOL     OW28870   5.768   5.998   1.658  0.7520  0.1529  0.0273
 9321SOL    HW128871   5.681   5.961   1.675  0.5539 -0.6556 -2.3602
 9321SOL    HW228872   5.826   5.949   1.716 -0.2188 -0.1759  0.7525
 9322SOL     OW28873   3.164   7.197   0.640  0.5846 -0.1373 -0.5672
 9322SOL    HW128874   3.137   7.175   0.551  2.7954  0.7146 -1.5114
 9322SOL    HW228875   3.175   7.292   0.639 -1.9959  0.2971  1.4598
 9323SOL     OW28876   4.510   6.645   5.762 -0.2109 -0.6432  0.2486
 9323SOL    HW128877   4.422   6.614   5.741  0.0206 -1.8116  0.8985
 9323SOL    HW228878   4.544   6.581   5.825  1.1866 -0.3286 -0.1462
 9324SOL     OW28879   1.848   4.939   1.088 -0.3174  0.2177 -0.3875
 9324SOL    HW128880   1.846   4.922   0.994 -2.9254  0.4918 -0.4714
 9324SOL    HW228881   1.920   4.886   1.121 -0.6072 -1.4768 -2.2790
 9325SOL     OW28882   2.183   5.674   4.171  0.0196 -0.1773  0.9722
 9325SOL    HW128883   2.223   5.637   4.093  0.4070 -0.1935  1.1785
 9325SOL    HW228884   2.165   5.598   4.227 -0.3497 -0.1759  0.8575
 9326SOL     OW28885   1.562   6.388   1.942 -0.4399 -0.4084  0.2082
 9326SOL    HW128886   1.555   6.483   1.946  2.5703 -0.0510 -0.2853
 9326SOL    HW228887   1.634   6.372   1.880  0.3998 -2.9065  1.6570
 9327SOL     OW28888   5.802   6.458   5.746 -0.6005  0.0357 -0.3098
 9327SOL    HW128889   5.809   6.491   5.656 -0.3374  0.5495 -0.1092
 9327SOL    HW228890   5.789   6.364   5.737 -0.3629  0.0553 -0.8846
 9328SOL     OW28891   5.071   6.639   7.478  0.1492 -0.0876 -0.4323
 9328SOL    HW128892   5.084   6.547   7.458 -1.6298 -0.9405  1.8671
 9328SOL    HW228893   4.976   6.648   7.490  0.4930  1.3518  2.0716
 9329SOL     OW28894   4.151   7.562   5.969 -0.0243 -0.0145 -0.2797
 9329SOL    HW128895   4.233   7.512   5.970 -0.2223 -0.3919 -1.4515
 9329SOL    HW228896   4.115   7.550   6.057  0.8564 -0.3649  0.0513
 9330SOL     OW28897   7.445   7.720   6.507 -0.0768 -0.0366  1.2982
 9330SOL    HW128898   7.438   7.681   6.594  0.4436 -1.4321  0.7311
 9330SOL    HW228899   7.526   7.770   6.510  1.4263 -2.3293  0.7903
 9331SOL     OW28900   2.455   5.709   3.009 -0.3488 -0.3489 -0.1080
 9331SOL    HW128901   2.446   5.730   2.916  3.3566 -2.0276 -1.0266
 9331SOL    HW228902   2.376   5.658   3.029 -1.7055  0.8536 -2.0302
 9332SOL     OW28903   6.967   1.671   6.953  0.4214 -0.5633  0.0331
 9332SOL    HW128904   6.970   1.675   6.857 -1.9061  1.7388 -0.0452
 9332SOL    HW228905   6.912   1.745   6.979  0.5047 -1.4423  3.1446
 9333SOL     OW28906   4.976   7.089   7.404  0.5740  0.2857 -0.2827
 9333SOL    HW128907   4.983   7.124   7.493  0.4237 -1.2248  0.3627
 9333SOL    HW228908   4.949   7.163   7.351  1.6610  1.4613  0.7464
 9334SOL     OW28909   6.686   7.286   0.047  0.4372  0.0809 -0.6490
 9334SOL    HW128910   6.771   7.270   0.086 -0.7162  1.3618  2.8370
 9334SOL    HW228911   6.689   7.378   0.019 -0.6078  1.2242  2.4801
 9335SOL     OW28912   0.555   7.246   5.722 -0.3615  0.0602 -0.2382
 9335SOL    HW128913   0.511   7.277   5.801  0.2065  0.9995 -0.2625
 9335SOL    HW228914   0.593   7.326   5.683 -1.3511 -0.2427 -1.9187
 9336SOL     OW28915   0.720   6.600   0.043  0.0959  0.0999  0.1068
 9336SOL    HW128916   0.713   6.687   0.082  0.7352 -0.2250  0.9761
 9336SOL    HW228917   0.786   6.610  -0.027 -1.4546  0.8102 -1.3266
 9337SOL     OW28918   5.063   2.760   5.899  0.5199  0.3282  0.6146
 9337SOL    HW128919   4.994   2.713   5.851  1.1343 -0.0094  0.0440
 9337SOL    HW228920   5.142   2.744   5.849  1.1110  0.3174  1.5262
 9338SOL     OW28921   5.982   2.077   0.433 -0.1607  0.0934  0.2033
 9338SOL    HW128922   5.971   2.073   0.528 -3.1375 -0.2004 -0.0648
 9338SOL    HW228923   5.935   2.156   0.407  0.2127 -0.0866 -1.0691
 9339SOL     OW28924   7.564   1.406   0.506  0.2515 -0.5039 -0.1661
 9339SOL    HW128925   7.495   1.448   0.456  1.5026  1.3328 -0.4430
 9339SOL    HW228926   7.540   1.420   0.597  1.2691  2.0697 -0.2156
 9340SOL     OW28927   4.834   5.574   1.878 -0.1039 -0.7355 -0.3494
 9340SOL    HW128928   4.781   5.513   1.929  1.1776 -0.3503  1.5771
 9340SOL    HW228929   4.771   5.629   1.832 -1.2915 -2.7951 -1.3160
 9341SOL     OW28930   6.542   0.889   5.083  0.2775  0.9928 -0.6257
 9341SOL    HW128931   6.621   0.835   5.084 -0.7039 -0.4950 -0.7871
 9341SOL    HW228932   6.537   0.923   4.994  0.6341  0.9423 -0.6664
 9342SOL     OW28933   1.801   6.521   4.341  0.4344 -0.1300  0.0314
 9342SOL    HW128934   1.858   6.577   4.394 -0.1160  0.1949  0.2930
 9342SOL    HW228935   1.852   6.441   4.327  0.0805 -0.8419  2.2759
 9343SOL     OW28936   6.898   6.398   6.273 -0.2660  0.0237 -0.2121
 9343SOL    HW128937   6.988   6.421   6.248 -0.2724  1.0630  0.6561
 9343SOL    HW228938   6.905   6.375   6.366 -0.8836 -0.0126 -0.1753
 9344SOL     OW28939   1.743   2.976   6.720 -0.5733  0.3369 -0.2446
 9344SOL    HW128940   1.808   3.040   6.689  0.7068 -0.8281 -0.0832
 9344SOL    HW228941   1.738   2.991   6.815 -2.4153  2.0451 -0.5460
 9345SOL     OW28942   5.879   3.698   3.102  0.3204  0.2566 -0.1437
 9345SOL    HW128943   5.838   3.633   3.158  1.3644 -1.8069 -1.6421
 9345SOL    HW228944   5.808   3.729   3.045  0.4583 -2.4108 -1.9261
 9346SOL     OW28945   5.216   5.043   4.717 -0.1562 -0.3612  0.0029
 9346SOL    HW128946   5.125   5.058   4.693 -1.1034 -2.3112  2.0284
 9346SOL    HW228947   5.217   5.048   4.813  1.4473 -2.2268  0.1501
 9347SOL     OW28948   0.772   3.785   2.538 -0.2239 -0.3820  0.3371
 9347SOL    HW128949   0.760   3.850   2.468  0.6248 -0.0893  0.4537
 9347SOL    HW228950   0.743   3.829   2.617 -1.5940 -0.8585  0.1311
 9348SOL     OW28951   5.198   1.980   2.680  0.3692 -0.5109  0.4353
 9348SOL    HW128952   5.274   1.951   2.631  1.0057 -0.8726  1.5901
 9348SOL    HW228953   5.230   1.990   2.770 -0.0346  2.8672  0.3296
 9349SOL     OW28954   4.037   5.399   0.958 -0.4335 -0.1968 -0.3198
 9349SOL    HW128955   4.016   5.489   0.982 -1.1457 -0.7570  1.3697
 9349SOL    HW228956   3.990   5.384   0.876 -1.2147  0.6355 -0.0409
 9350SOL     OW28957   1.181   1.107   4.286 -0.0573 -0.1866  0.1493
 9350SOL    HW128958   1.132   1.038   4.330 -0.1528 -0.5883 -0.5728
 9350SOL    HW228959   1.270   1.100   4.322  0.5505 -2.2088 -1.5213
 9351SOL     OW28960   6.646   7.353   6.978 -0.2579  0.2088 -0.1754
 9351SOL    HW128961   6.648   7.396   6.893 -2.7856 -0.9132 -0.8846
 9351SOL    HW228962   6.638   7.260   6.959 -0.9188 -0.0697  1.2716
 9352SOL     OW28963   5.705   7.074   2.124 -0.2549 -0.0394 -0.0559
 9352SOL    HW128964   5.753   7.010   2.072  0.6931  0.6529 -0.0530
 9352SOL    HW228965   5.730   7.159   2.087  0.4444  0.4760  1.5270
 9353SOL     OW28966   1.482   3.202   1.746  0.8403 -0.3620  0.6464
 9353SOL    HW128967   1.513   3.112   1.756  0.2658 -0.4684  1.7134
 9353SOL    HW228968   1.431   3.218   1.826 -0.1562  0.4606 -0.1237
 9354SOL     OW28969   2.217   6.109   0.362 -0.5503 -0.3075 -0.3143
 9354SOL    HW128970   2.211   6.156   0.445 -1.3768 -0.1175 -0.4647
 9354SOL    HW228971   2.294   6.054   0.370  0.1537  0.7093  0.0690
 9355SOL     OW28972   7.580   0.441   4.349 -0.1110  0.0225  0.0662
 9355SOL    HW128973   7.493   0.403   4.349 -0.5379  0.9760 -0.0789
 9355SOL    HW228974   7.614   0.424   4.262 -0.3758  0.1375 -0.0607
 9356SOL     OW28975   0.590   4.571   0.214  0.6702  0.3702 -0.0783
 9356SOL    HW128976   0.586   4.557   0.308  1.3481  1.2760  0.1077
 9356SOL    HW228977   0.536   4.648   0.199  0.2307 -0.0133 -0.4936
 9357SOL     OW28978   6.810   7.693   5.734 -0.3614  0.1390  0.1852
 9357SOL    HW128979   6.727   7.694   5.782 -0.0883 -2.4649  0.8670
 9357SOL    HW228980   6.785   7.696   5.642 -1.2920 -1.3261  0.3626
 9358SOL     OW28981   7.172   6.695   1.965  0.3080  0.1413 -0.5151
 9358SOL    HW128982   7.201   6.786   1.971  1.5711 -0.2730  0.0664
 9358SOL    HW228983   7.143   6.673   2.053 -0.1069  0.0233 -0.6817
 9359SOL     OW28984   0.751   3.208   4.661  0.3839 -0.0769 -0.0237
 9359SOL    HW128985   0.682   3.175   4.604  0.4572 -1.5423  0.7013
 9359SOL    HW228986   0.713   3.286   4.702 -0.8335 -0.8124  0.3021
 9360SOL     OW28987   5.215   3.443   6.044 -0.1382 -0.5130 -0.3513
 9360SOL    HW128988   5.250   3.428   5.957  0.3330 -1.0700 -0.0759
 9360SOL    HW228989   5.292   3.464   6.097 -0.4796  0.3236 -0.1727
 9361SOL     OW28990   6.199   7.648   2.016  0.7705 -0.7929 -0.9623
 9361SOL    HW128991   6.135   7.679   2.080 -0.5073 -0.0632 -2.5333
 9361SOL    HW228992   6.283   7.679   2.050  0.1215 -0.3518  0.3116
 9362SOL     OW28993   6.070   5.406   3.205  0.2220 -0.2210  0.3635
 9362SOL    HW128994   6.057   5.488   3.253  0.6425 -0.4217  0.8342
 9362SOL    HW228995   6.012   5.413   3.130 -0.3609  0.1578  0.8343
 9363SOL     OW28996   7.409   3.472   1.614  0.0090 -0.5204  0.3707
 9363SOL    HW128997   7.440   3.549   1.660  0.7829  0.3105 -1.4497
 9363SOL    HW228998   7.342   3.505   1.554 -0.5234 -1.4593  0.4296
 9364SOL     OW28999   2.857   4.171   1.428 -0.0334  0.2263 -0.1451
 9364SOL    HW129000   2.886   4.239   1.368 -0.3357  0.9300  0.4911
 9364SOL    HW229001   2.769   4.197   1.454  0.2815  0.2280  1.0041
 9365SOL     OW29002   2.670   6.025   3.966 -0.8293  0.0587 -0.1978
 9365SOL    HW129003   2.742   5.963   3.954 -0.8057 -0.0596  0.5141
 9365SOL    HW229004   2.591   5.970   3.970 -0.9654  0.1879 -0.9762
 9366SOL     OW29005   6.318   4.643   4.597  0.0008 -0.2532 -0.7097
 9366SOL    HW129006   6.394   4.648   4.654 -0.1129  0.6015 -0.6209
 9366SOL    HW229007   6.342   4.695   4.520 -1.1717  1.6492  0.1378
 9367SOL     OW29008   3.386   7.585   2.673  0.3905 -1.0624  0.2596
 9367SOL    HW129009   3.401   7.592   2.578 -1.6583  0.6699 -0.0012
 9367SOL    HW229010   3.406   7.493   2.693  0.6757 -1.5252 -1.8682
 9368SOL     OW29011   1.081   6.449   5.282  0.0170  0.3455 -0.5692
 9368SOL    HW129012   1.074   6.454   5.187  0.0757 -1.2114 -0.6817
 9368SOL    HW229013   1.157   6.503   5.304  1.0207 -0.6062 -1.5888
 9369SOL     OW29014   7.721   0.228   0.099  0.0041 -0.1176 -0.4437
 9369SOL    HW129015   7.672   0.261   0.024  0.3032 -1.0264 -1.0530
 9369SOL    HW229016   7.685   0.140   0.114  0.1607 -0.0604  0.2753
 9370SOL     OW29017   3.354   5.526   2.841  0.0924 -0.3713  0.6440
 9370SOL    HW129018   3.370   5.437   2.811 -2.1781 -0.6881  0.2096
 9370SOL    HW229019   3.260   5.537   2.834  0.2214  1.7757  1.5529
 9371SOL     OW29020   2.486   2.057   6.284  0.3637 -0.2509  0.1289
 9371SOL    HW129021   2.502   2.072   6.191  0.5149  0.3583  0.2498
 9371SOL    HW229022   2.531   2.129   6.329 -1.0962  0.4317  0.5892
 9372SOL     OW29023   4.608   0.837   6.476  0.0430 -0.2555 -0.3115
 9372SOL    HW129024   4.604   0.875   6.564  0.0477 -1.6875  0.3354
 9372SOL    HW229025   4.531   0.872   6.431  0.5629  1.2645 -0.0865
 9373SOL     OW29026   3.718   4.975   7.452  0.0774  0.0172  0.4480
 9373SOL    HW129027   3.700   4.946   7.541 -1.9400 -1.3243 -0.3177
 9373SOL    HW229028   3.633   4.970   7.407  1.1587 -0.0429 -1.7337
 9374SOL     OW29029   7.583   6.214   6.650  0.3561  0.3639 -0.2118
 9374SOL    HW129030   7.671   6.248   6.669  0.0364  0.9031  0.3460
 9374SOL    HW229031   7.589   6.120   6.670  1.0237  0.2313 -0.9763
 9375SOL     OW29032   0.756   7.180   7.561 -0.1844 -0.1923 -0.6699
 9375SOL    HW129033   0.759   7.131   7.643  1.7745  2.1646  0.7932
 9375SOL    HW229034   0.835   7.154   7.514 -0.7160 -0.6697 -1.3315
 9376SOL     OW29035   5.372   5.300   4.978 -0.1559  0.7618 -0.6539
 9376SOL    HW129036   5.409   5.353   5.049 -0.3775  0.1574 -0.0830
 9376SOL    HW229037   5.296   5.351   4.948 -0.1138  0.9750 -0.4046
 9377SOL     OW29038   5.619   2.154   1.806 -0.1334  0.4084 -0.3747
 9377SOL    HW129039   5.693   2.166   1.747 -1.0145  0.1016 -1.5834
 9377SOL    HW229040   5.644   2.081   1.862 -0.0744 -0.6266 -1.7136
 9378SOL     OW29041   0.478   7.176   6.348 -0.1702  0.8060 -0.3992
 9378SOL    HW129042   0.413   7.107   6.359  1.3213 -0.5939  0.1166
 9378SOL    HW229043   0.556   7.143   6.394  1.4536  1.5897 -2.4059
 9379SOL     OW29044   6.017   6.447   2.517  0.0595  0.9099 -0.3215
 9379SOL    HW129045   6.088   6.397   2.477  0.2975  1.2422 -0.3282
 9379SOL    HW229046   5.977   6.387   2.580  1.0854  1.0701  0.5210
 9380SOL     OW29047   0.430   7.105   3.498 -0.3082 -0.1988  0.3725
 9380SOL    HW129048   0.437   7.163   3.574  0.7224 -0.7814  0.7352
 9380SOL    HW229049   0.514   7.114   3.452 -1.2942  0.9642 -1.3200
 9381SOL     OW29050   5.334   4.201   6.649 -0.0171  0.0266  0.4947
 9381SOL    HW129051   5.315   4.112   6.677  3.6700 -0.9516  0.4617
 9381SOL    HW229052   5.359   4.192   6.557 -0.2714  1.2189  0.2960
 9382SOL     OW29053   3.801   6.543   0.116 -0.0570  0.0398 -0.0544
 9382SOL    HW129054   3.729   6.495   0.076 -0.7395  1.1550 -0.1989
 9382SOL    HW229055   3.783   6.540   0.210 -0.5326  0.6554 -0.1153
 9383SOL     OW29056   6.795   5.298   0.514  0.2942 -0.1233 -0.5671
 9383SOL    HW129057   6.734   5.230   0.543 -0.9778  1.1488 -0.1866
 9383SOL    HW229058   6.745   5.351   0.453  1.0843  0.8432 -0.3906
 9384SOL     OW29059   1.325   3.181   1.966 -0.2419 -0.0414 -0.2739
 9384SOL    HW129060   1.237   3.219   1.956  0.1249  1.5218  1.8480
 9384SOL    HW229061   1.309   3.091   1.993 -1.1741 -0.0877 -0.9090
 9385SOL     OW29062   3.978   0.275   3.512  0.1161  0.0920  0.0440
 9385SOL    HW129063   4.053   0.326   3.483 -0.5523  0.5758 -0.8940
 9385SOL    HW229064   4.012   0.186   3.524  1.2419  0.6888  1.5042
 9386SOL     OW29065   7.513   5.535   1.782  0.4424  0.2603  0.4856
 9386SOL    HW129066   7.499   5.546   1.688  0.0098 -0.8625  0.4017
 9386SOL    HW229067   7.582   5.598   1.803  1.3763 -0.2799 -0.8054
 9387SOL     OW29068   1.623   6.559   0.001 -0.0865 -0.5650 -0.5191
 9387SOL    HW129069   1.652   6.571  -0.089 -1.1193  2.1202 -0.5839
 9387SOL    HW229070   1.684   6.612   0.053 -1.0574  0.0353  0.0344
 9388SOL     OW29071   0.293   6.709   4.412  0.1856 -0.3661  0.0985
 9388SOL    HW129072   0.198   6.700   4.402  0.3168 -0.1141 -1.7380
 9388SOL    HW229073   0.305   6.745   4.500 -1.4743  0.5307 -0.0004
 9389SOL     OW29074   3.200   0.874   5.628 -0.6523  0.0084  0.4574
 9389SOL    HW129075   3.170   0.910   5.544 -0.7973 -2.6380 -0.7157
 9389SOL    HW229076   3.121   0.870   5.682 -0.8399  0.4197  0.2204
 9390SOL     OW29077   2.302   3.697   1.967  0.3524  0.2309 -0.1914
 9390SOL    HW129078   2.268   3.609   1.950 -1.2780  0.9397 -0.8676
 9390SOL    HW229079   2.365   3.685   2.038 -0.5760 -1.3558  0.4233
 9391SOL     OW29080   7.137   6.504   6.250 -0.4230 -0.2485  0.2470
 9391SOL    HW129081   7.196   6.530   6.321 -1.2882  1.8106  0.2708
 9391SOL    HW229082   7.139   6.577   6.189 -2.3397 -0.4524 -0.1267
 9392SOL     OW29083   3.130   3.813   3.164  0.1745  0.2895 -0.1196
 9392SOL    HW129084   3.078   3.762   3.102  0.3696  0.4126 -0.3858
 9392SOL    HW229085   3.216   3.770   3.163  0.2970  0.5351 -0.2366
 9393SOL     OW29086   0.129   4.228   5.310  0.2953 -0.4872  0.4645
 9393SOL    HW129087   0.114   4.157   5.247  0.0788  0.3893 -0.4901
 9393SOL    HW229088   0.224   4.239   5.313  0.2276  1.0574 -1.5484
 9394SOL     OW29089   7.386   1.511   3.173  0.8208 -0.1360 -0.1696
 9394SOL    HW129090   7.324   1.583   3.163 -1.9569 -2.3916 -0.4404
 9394SOL    HW229091   7.403   1.506   3.267 -0.0815  0.0232  0.0114
 9395SOL     OW29092   2.516   4.973   2.817 -0.4346  0.0761 -0.4482
 9395SOL    HW129093   2.440   4.980   2.760 -1.0698 -0.2434  0.3449
 9395SOL    HW229094   2.480   4.951   2.903  0.6645 -1.8102 -0.4254
 9396SOL     OW29095   7.341   2.392   3.922  0.7652 -0.4659 -0.3060
 9396SOL    HW129096   7.347   2.477   3.879 -0.1799  0.2708  0.9479
 9396SOL    HW229097   7.378   2.407   4.010  1.4956 -1.6058 -0.4002
 9397SOL     OW29098   2.149   2.491   4.137  0.2622 -0.0137 -0.2032
 9397SOL    HW129099   2.148   2.408   4.185  2.2036 -1.3775 -2.3366
 9397SOL    HW229100   2.121   2.556   4.201 -0.5198 -2.1810  1.7828
 9398SOL     OW29101   2.107   3.709   3.303  1.1499 -0.0703 -0.6711
 9398SOL    HW129102   2.035   3.718   3.365  2.2023  0.2947  0.5389
 9398SOL    HW229103   2.098   3.619   3.269 -0.8469  0.4983 -1.8727
 9399SOL     OW29104   2.700   2.077   1.409 -0.1766 -0.2005  0.1639
 9399SOL    HW129105   2.791   2.058   1.386 -0.0112 -0.0387  0.6852
 9399SOL    HW229106   2.693   2.172   1.404  0.0588 -0.0953  1.4831
 9400SOL     OW29107   2.854   2.504   6.752  0.6099  0.2445 -1.0507
 9400SOL    HW129108   2.804   2.504   6.834 -0.7502  2.6834 -1.7651
 9400SOL    HW229109   2.940   2.536   6.776  0.6377 -0.3097 -0.3834
 9401SOL     OW29110   5.262   7.234   5.351 -0.1628  0.3579 -0.4607
 9401SOL    HW129111   5.177   7.265   5.381 -0.9563 -1.1973 -0.9762
 9401SOL    HW229112   5.243   7.151   5.307  1.4845  0.5303 -1.5841
 9402SOL     OW29113   2.795   1.327   2.205  0.0053 -0.0688 -0.1054
 9402SOL    HW129114   2.844   1.302   2.284  1.1065  2.8013  0.2445
 9402SOL    HW229115   2.703   1.323   2.232  0.3770  1.8649  1.7863
 9403SOL     OW29116   7.650   7.155   3.366 -0.5468 -0.1667 -0.1817
 9403SOL    HW129117   7.745   7.144   3.356 -0.5539  0.1035 -0.5520
 9403SOL    HW229118   7.615   7.145   3.277 -0.9037 -0.6547  0.0145
 9404SOL     OW29119   2.700   1.178   5.412 -0.4363 -0.1829  0.0814
 9404SOL    HW129120   2.733   1.108   5.467  0.2949 -0.0124 -0.1285
 9404SOL    HW229121   2.775   1.237   5.399 -1.2701  1.1384  1.0182
 9405SOL     OW29122   5.349   0.737   2.948  0.4314  0.7161 -0.3712
 9405SOL    HW129123   5.355   0.807   3.013  1.8175 -1.7015  2.3408
 9405SOL    HW229124   5.437   0.728   2.914  0.4310 -0.1556 -0.1595
 9406SOL     OW29125   5.015   7.220   6.452  0.2695 -0.2165 -0.4060
 9406SOL    HW129126   4.965   7.209   6.532  0.2693  1.3509 -0.1477
 9406SOL    HW229127   4.979   7.299   6.412  2.6359  1.1345 -0.0916
 9407SOL     OW29128   2.958   4.245   6.072  0.5725 -0.7028  0.0947
 9407SOL    HW129129   2.872   4.286   6.075  0.1982 -1.3777 -0.9333
 9407SOL    HW229130   2.945   4.165   6.021  2.0156 -0.2892 -0.9971
 9408SOL     OW29131   3.444   1.594   6.829  0.0398  0.4328  0.3274
 9408SOL    HW129132   3.499   1.525   6.791 -1.9315 -0.6632 -0.7037
 9408SOL    HW229133   3.439   1.572   6.922 -0.5929 -0.8661  0.0069
 9409SOL     OW29134   4.015   6.188   6.268  0.6864 -0.5588  0.3469
 9409SOL    HW129135   4.065   6.116   6.305  3.1443  1.1715  0.6429
 9409SOL    HW229136   4.066   6.266   6.290 -0.1624  1.0090 -2.6762
 9410SOL     OW29137   4.491   6.334   3.010  0.1826  0.2024 -0.4263
 9410SOL    HW129138   4.474   6.335   3.104  0.2438  0.8033 -0.4163
 9410SOL    HW229139   4.586   6.327   3.003  0.0646 -2.3698 -0.4767
 9411SOL     OW29140   4.300   2.420   6.660  0.1605 -0.4742  0.1483
 9411SOL    HW129141   4.283   2.386   6.748  0.8676 -0.6321  0.2292
 9411SOL    HW229142   4.220   2.467   6.637  0.7921  1.5497  1.8044
 9412SOL     OW29143   6.115   4.445   4.647  0.4124  0.5135  0.4719
 9412SOL    HW129144   6.194   4.495   4.630 -1.0329  2.7546 -0.0345
 9412SOL    HW229145   6.058   4.463   4.572 -1.0845  0.0427  1.4424
 9413SOL     OW29146   1.370   6.561   3.078  0.4748 -0.1584  0.1635
 9413SOL    HW129147   1.389   6.627   3.145  1.1355 -0.4304  0.2440
 9413SOL    HW229148   1.405   6.597   2.997 -1.6734  0.8784 -0.3798
 9414SOL     OW29149   1.071   7.745   6.928  0.0284 -0.2845  0.7196
 9414SOL    HW129150   1.031   7.668   6.968 -0.4552 -0.5728 -0.2909
 9414SOL    HW229151   1.144   7.768   6.987  0.9590 -2.2400  0.3954
 9415SOL     OW29152   4.268   0.284   4.979  0.0352  0.1982 -0.0295
 9415SOL    HW129153   4.279   0.189   4.986  0.1472  0.0117 -2.1148
 9415SOL    HW229154   4.356   0.318   4.962 -0.1981  0.5143 -0.6318
 9416SOL     OW29155   4.020   6.290   4.711 -0.2698  0.0750 -0.0029
 9416SOL    HW129156   4.042   6.209   4.666 -1.9085 -0.3208 -0.1356
 9416SOL    HW229157   3.941   6.322   4.667 -1.9317 -0.3095  2.4929
 9417SOL     OW29158   6.495   5.847   2.670 -0.0058  0.7454 -0.3308
 9417SOL    HW129159   6.464   5.913   2.608  1.0469  1.5939  0.0136
 9417SOL    HW229160   6.469   5.881   2.756 -0.0961  0.3549 -0.2035
 9418SOL     OW29161   7.587   5.811   5.626 -0.1311  0.0728 -0.6335
 9418SOL    HW129162   7.530   5.768   5.690  1.7281  0.0028  1.0787
 9418SOL    HW229163   7.547   5.897   5.611 -1.0148 -0.2120  0.0074
 9419SOL     OW29164   4.165   4.092   2.541 -0.7814 -0.2384  0.3896
 9419SOL    HW129165   4.247   4.139   2.557 -0.2273 -0.8101 -0.6363
 9419SOL    HW229166   4.097   4.152   2.570 -0.0270  0.5940  0.4910
 9420SOL     OW29167   0.204   4.588   5.854  0.1751  0.2042  0.6754
 9420SOL    HW129168   0.281   4.592   5.797 -0.4511  1.7481 -0.1131
 9420SOL    HW229169   0.237   4.552   5.937  1.7045  0.6735  0.2966
 9421SOL     OW29170   3.204   6.167   1.381 -0.3535  0.5498  0.1395
 9421SOL    HW129171   3.119   6.210   1.389 -1.2289 -1.1862  0.7307
 9421SOL    HW229172   3.231   6.151   1.471  1.1872  2.0702  0.0031
 9422SOL     OW29173   5.490   2.101   4.616 -0.2147  0.2335  0.0884
 9422SOL    HW129174   5.505   2.110   4.710  1.6689  0.4023 -0.2049
 9422SOL    HW229175   5.571   2.131   4.575 -0.8375 -0.2491 -1.5828
 9423SOL     OW29176   1.341   0.434   4.226 -0.1635 -0.7680  0.2232
 9423SOL    HW129177   1.324   0.524   4.198  0.0249 -0.5319  0.8594
 9423SOL    HW229178   1.420   0.409   4.178 -0.8149 -0.9798 -0.7744
 9424SOL     OW29179   0.040   6.011   6.283  0.0561 -0.4553 -0.5890
 9424SOL    HW129180   0.103   6.064   6.235  0.0724  0.0751  0.0094
 9424SOL    HW229181   0.065   5.920   6.265  1.8605 -0.2734  0.7341
 9425SOL     OW29182   2.755   2.151   5.033 -0.5949 -0.1819 -0.5381
 9425SOL    HW129183   2.748   2.059   5.060 -1.3948  0.3064  1.0490
 9425SOL    HW229184   2.668   2.187   5.050 -0.4489  0.7477 -1.6828
 9426SOL     OW29185   7.653   6.245   6.944  0.1981  0.0148  0.1151
 9426SOL    HW129186   7.622   6.157   6.923  0.1316  0.4860 -2.0061
 9426SOL    HW229187   7.734   6.254   6.893  0.9507  0.6997  1.4024
 9427SOL     OW29188   6.229   3.318   2.059 -0.2761  0.0883 -0.2516
 9427SOL    HW129189   6.282   3.239   2.055 -0.3543 -0.0381  0.7722
 9427SOL    HW229190   6.287   3.384   2.098 -0.9202 -0.1144  1.1041
 9428SOL     OW29191   2.942   5.840   0.426 -0.6004  0.6673 -0.6051
 9428SOL    HW129192   2.900   5.878   0.349 -1.5518 -0.0650 -0.4569
 9428SOL    HW229193   3.009   5.782   0.390  0.3921  1.9073 -0.8404
 9429SOL     OW29194   1.378   5.358   7.674  0.6235  0.4819  0.3576
 9429SOL    HW129195   1.465   5.330   7.643  0.4852  0.9300 -0.4669
 9429SOL    HW229196   1.380   5.343   7.769  0.7434 -1.7976  0.0457
 9430SOL     OW29197   6.401   1.114   3.466 -0.3770  0.8642  0.3494
 9430SOL    HW129198   6.432   1.143   3.380 -0.3347  2.2686  0.8123
 9430SOL    HW229199   6.307   1.101   3.455  0.0439 -1.9491 -0.6711
 9431SOL     OW29200   5.089   2.913   3.042  0.0382 -0.4217 -0.2515
 9431SOL    HW129201   5.041   2.992   3.067 -0.8521 -0.7032 -0.9849
 9431SOL    HW229202   5.075   2.905   2.947 -0.0970 -1.5844 -0.1543
 9432SOL     OW29203   2.380   3.471   6.890  0.1368 -0.1835  0.2660
 9432SOL    HW129204   2.394   3.541   6.826 -1.4782  0.3264  0.4372
 9432SOL    HW229205   2.288   3.448   6.882 -0.3369  0.4222  2.9093
 9433SOL     OW29206   3.132   7.190   3.777 -0.1767  0.1696 -0.0871
 9433SOL    HW129207   3.092   7.186   3.690  1.0163 -1.0073 -0.6177
 9433SOL    HW229208   3.175   7.275   3.780  1.6289 -0.6100 -1.5517
 9434SOL     OW29209   4.777   3.332   2.426 -0.2029 -0.3151  0.0697
 9434SOL    HW129210   4.842   3.397   2.455  1.3575 -1.8167  0.0831
 9434SOL    HW229211   4.694   3.365   2.461  0.6791  1.1583  0.9193
 9435SOL     OW29212   5.948   6.477   3.949  0.2321  0.5212  0.6917
 9435SOL    HW129213   5.913   6.483   4.038  0.1761  0.5115  0.6699
 9435SOL    HW229214   6.042   6.494   3.959  0.2081  0.6220  0.7387
 9436SOL     OW29215   7.364   7.383   7.132  1.0019  0.1303  0.4332
 9436SOL    HW129216   7.360   7.381   7.227 -1.1714 -0.3489  0.3956
 9436SOL    HW229217   7.389   7.472   7.110  2.8245 -0.0979  1.4280
 9437SOL     OW29218   4.768   1.276   3.484  0.3679  0.0714  0.1873
 9437SOL    HW129219   4.766   1.238   3.572  0.5151  0.7028  0.4690
 9437SOL    HW229220   4.855   1.315   3.477  1.2873 -2.0353 -1.1361
 9438SOL     OW29221   0.503   0.718   6.802  0.5032 -0.2346  0.2781
 9438SOL    HW129222   0.418   0.678   6.785 -0.8550  1.5373  2.4118
 9438SOL    HW229223   0.550   0.652   6.854 -0.2902 -0.5048  0.6746
 9439SOL     OW29224   0.199   6.023   6.654 -0.5581  0.5576 -0.1660
 9439SOL    HW129225   0.244   5.956   6.706 -1.0375  1.4637  1.5037
 9439SOL    HW229226   0.211   5.995   6.563  1.2113 -0.5555  0.3528
 9440SOL     OW29227   0.319   3.497   5.462  0.0987 -0.8658 -0.7773
 9440SOL    HW129228   0.289   3.413   5.427 -1.5145 -0.9015  0.5545
 9440SOL    HW229229   0.280   3.501   5.549 -0.6717  1.7009 -1.1780
 9441SOL     OW29230   4.037   2.956   6.669  0.0613 -0.4516 -0.3275
 9441SOL    HW129231   4.001   2.910   6.593  0.6164 -0.4590 -0.5853
 9441SOL    HW229232   3.985   2.923   6.743 -0.3697 -0.5649 -0.6778
 9442SOL     OW29233   3.527   3.314   2.706  0.1979  0.4787 -0.5238
 9442SOL    HW129234   3.450   3.371   2.709  0.6639  1.3031 -2.5927
 9442SOL    HW229235   3.531   3.284   2.616  2.2655  0.4310 -0.4575
 9443SOL     OW29236   5.062   0.858   1.816  0.3966 -0.3012  0.3959
 9443SOL    HW129237   5.144   0.870   1.865 -0.4386  1.2903  1.5318
 9443SOL    HW229238   4.994   0.885   1.878 -0.8766 -0.2285 -0.9879
 9444SOL     OW29239   6.365   6.992   1.812  0.3700  0.5627 -0.3652
 9444SOL    HW129240   6.369   6.937   1.890 -0.2063  0.8231 -0.1436
 9444SOL    HW229241   6.423   7.066   1.832  1.0661  0.0976 -0.6241
 9445SOL     OW29242   4.357   3.622   5.202 -0.4815  0.0587  0.0045
 9445SOL    HW129243   4.383   3.532   5.223  1.9657  0.9262  1.0941
 9445SOL    HW229244   4.325   3.658   5.285  2.5692  1.3746  0.7603
 9446SOL     OW29245   0.743   6.446   4.753 -0.2465 -0.0916  0.4531
 9446SOL    HW129246   0.729   6.418   4.843 -0.1129  0.3037  0.6004
 9446SOL    HW229247   0.657   6.476   4.724 -1.0629 -3.0849 -0.6040
 9447SOL     OW29248   2.222   5.076   6.182 -0.6306  0.2842  0.1640
 9447SOL    HW129249   2.129   5.059   6.197 -0.8901  1.0281 -0.5600
 9447SOL    HW229250   2.234   5.166   6.211 -0.1702  0.2585  0.0508
 9448SOL     OW29251   5.097   5.345   4.084 -0.6258  0.6955  0.4645
 9448SOL    HW129252   5.173   5.398   4.060  0.3916 -1.7302 -2.1100
 9448SOL    HW229253   5.125   5.296   4.161  0.8926 -0.9047 -1.0309
 9449SOL     OW29254   1.165   6.179   2.659  0.2342  0.1464 -0.1418
 9449SOL    HW129255   1.258   6.177   2.682  0.1274 -1.0379  0.2332
 9449SOL    HW229256   1.144   6.088   2.637 -1.7841 -0.4593  3.6377
 9450SOL     OW29257   3.843   5.881   3.733 -0.1334  0.2799  0.0923
 9450SOL    HW129258   3.934   5.879   3.760  0.4114  3.9506 -0.8713
 9450SOL    HW229259   3.839   5.828   3.653  1.2500  0.3983 -0.0691
 9451SOL     OW29260   6.324   6.136   0.007 -0.6594 -0.1409  0.6843
 9451SOL    HW129261   6.329   6.044  -0.018 -1.1498 -0.1301  0.5263
 9451SOL    HW229262   6.301   6.135   0.100 -0.5300 -0.1794  0.7154
 9452SOL     OW29263   2.655   7.247   5.645  0.2409  0.3437  0.0334
 9452SOL    HW129264   2.725   7.183   5.636 -0.8958 -0.9215 -0.2717
 9452SOL    HW229265   2.699   7.330   5.660  1.7696 -0.9863  4.2983
 9453SOL     OW29266   0.191   5.530   1.995  0.2105 -0.0348  0.1350
 9453SOL    HW129267   0.117   5.481   2.030  0.4823 -0.8772 -0.4458
 9453SOL    HW229268   0.181   5.618   2.033 -0.2884 -0.5197  1.1777
 9454SOL     OW29269   3.609   6.902   4.261 -0.9589  0.3988 -0.0800
 9454SOL    HW129270   3.551   6.853   4.319  0.6271  0.5711  1.7352
 9454SOL    HW229271   3.682   6.842   4.244 -1.6387  0.1415 -2.4111
 9455SOL     OW29272   0.816   3.792   3.591  0.1500  0.2805 -0.2767
 9455SOL    HW129273   0.831   3.808   3.497  1.3295 -0.4951 -0.2447
 9455SOL    HW229274   0.886   3.842   3.634  0.3073 -0.2670  0.1168
 9456SOL     OW29275   0.609   3.560   1.914  0.0577  0.6007 -0.1705
 9456SOL    HW129276   0.635   3.579   2.004  0.4496  2.5138 -0.6462
 9456SOL    HW229277   0.611   3.645   1.869 -5.0046  0.6755 -0.8248
 9457SOL     OW29278   1.944   0.086   6.178  0.4138  0.6352  0.5237
 9457SOL    HW129279   1.902   0.154   6.125  0.2544 -0.2379 -0.5030
 9457SOL    HW229280   2.037   0.107   6.175  0.3266  1.0353  0.5523
 9458SOL     OW29281   6.171   1.430   0.092 -0.4039 -0.2442  0.4048
 9458SOL    HW129282   6.149   1.482   0.015 -0.2878 -1.2207 -0.2975
 9458SOL    HW229283   6.106   1.359   0.093  1.0609 -1.6576 -0.2108
 9459SOL     OW29284   1.231   5.581   4.029 -0.1831  0.3575 -0.0968
 9459SOL    HW129285   1.191   5.527   3.960  0.0750 -0.4068  0.3376
 9459SOL    HW229286   1.159   5.636   4.060 -0.8730 -0.8397  0.5163
 9460SOL     OW29287   2.234   1.988   4.572  0.4765  0.3302  0.5704
 9460SOL    HW129288   2.155   1.974   4.519  0.2041 -3.2346  1.6998
 9460SOL    HW229289   2.202   2.031   4.651 -0.8068 -2.6221  1.8021
 9461SOL     OW29290   4.547   4.715   4.105  0.1459 -0.0726  0.3358
 9461SOL    HW129291   4.615   4.652   4.127  0.0668 -0.5213 -0.6782
 9461SOL    HW229292   4.519   4.750   4.190  1.3850 -0.1331  0.7874
 9462SOL     OW29293   1.590   4.035   4.057  0.1275  0.4611  0.5687
 9462SOL    HW129294   1.541   4.001   4.132 -0.2647 -0.6221 -0.1467
 9462SOL    HW229295   1.674   3.989   4.061  0.1981  0.5810  0.4702
 9463SOL     OW29296   6.178   1.851   6.860 -0.4534  0.0317 -0.0611
 9463SOL    HW129297   6.100   1.901   6.836  0.1626  0.0978 -2.1089
 9463SOL    HW229298   6.167   1.766   6.816  0.2358 -0.2745  0.3378
 9464SOL     OW29299   3.530   6.619   5.175 -0.2541 -0.6209  0.0863
 9464SOL    HW129300   3.435   6.629   5.186 -0.2135 -0.6649  0.4560
 9464SOL    HW229301   3.543   6.525   5.166 -0.2257 -0.6269  0.1943
 9465SOL     OW29302   3.879   6.542   1.620 -0.3715  0.6698 -0.7451
 9465SOL    HW129303   3.891   6.546   1.715 -1.0681 -0.0124 -0.6205
 9465SOL    HW229304   3.909   6.628   1.589  2.3494 -0.0097 -0.2148
 9466SOL     OW29305   2.093   0.212   6.766  0.3359 -0.2574 -0.2670
 9466SOL    HW129306   2.109   0.306   6.764  2.6997 -0.6222 -2.2086
 9466SOL    HW229307   2.053   0.196   6.852 -1.9480  2.7099 -0.6096
 9467SOL     OW29308   6.523   0.088   6.943 -0.2224  0.8569 -0.4070
 9467SOL    HW129309   6.587   0.067   7.011  0.4291  0.4767 -1.1216
 9467SOL    HW229310   6.442   0.106   6.991  0.2119  0.5581  0.4605
 9468SOL     OW29311   3.806   2.524   1.133  0.5734 -0.1763  0.3208
 9468SOL    HW129312   3.808   2.601   1.076  0.8043  0.3535  1.0316
 9468SOL    HW229313   3.749   2.462   1.087  1.3205 -0.0426 -0.8287
 9469SOL     OW29314   1.336   4.962   3.071  0.1827  0.4108  0.0118
 9469SOL    HW129315   1.383   5.007   3.142  0.4409  1.1760 -0.6175
 9469SOL    HW229316   1.404   4.912   3.025  0.2695  0.9558 -0.4717
 9470SOL     OW29317   1.493   3.568   2.752  0.3610 -0.1363 -0.3715
 9470SOL    HW129318   1.541   3.491   2.784  0.2143  0.5320  1.6055
 9470SOL    HW229319   1.550   3.606   2.685  2.0231 -0.0987  0.9916
 9471SOL     OW29320   7.131   7.219   2.794  0.2551 -0.1069  0.4420
 9471SOL    HW129321   7.064   7.170   2.747 -0.6031  0.6403  0.8658
 9471SOL    HW229322   7.199   7.155   2.813 -0.7648 -1.0883  0.8487
 9472SOL     OW29323   0.986   5.826   0.611 -1.0518 -0.2476  0.0763
 9472SOL    HW129324   0.905   5.833   0.663 -0.8335 -0.1849  0.4081
 9472SOL    HW229325   0.988   5.735   0.582 -1.3942 -0.1768 -0.1820
 9473SOL     OW29326   7.101   4.788   6.772 -0.1011 -0.0344  0.2221
 9473SOL    HW129327   7.151   4.706   6.778  0.9203  0.6084  0.9450
 9473SOL    HW229328   7.055   4.782   6.689 -2.4250 -2.6213  1.5533
 9474SOL     OW29329   6.762   3.630   0.380 -0.4719  0.1940  0.4290
 9474SOL    HW129330   6.766   3.607   0.473 -2.2896  2.5719  1.1998
 9474SOL    HW229331   6.670   3.648   0.363  0.0661  1.6208 -1.3360
 9475SOL     OW29332   4.021   5.713   1.144 -0.5650 -0.4395  0.0522
 9475SOL    HW129333   4.106   5.684   1.176 -0.6793 -0.6244  0.1891
 9475SOL    HW229334   4.014   5.804   1.172  0.6001  0.3373 -1.9505
 9476SOL     OW29335   1.614   1.110   3.101 -0.0610 -0.3379 -0.4165
 9476SOL    HW129336   1.598   1.016   3.091 -1.7723 -0.1509  0.1931
 9476SOL    HW229337   1.661   1.118   3.183 -0.7990 -0.6099  0.0477
 9477SOL     OW29338   7.250   5.992   5.901 -0.0861 -0.3373  0.8614
 9477SOL    HW129339   7.216   6.080   5.881  2.6118  0.3807 -1.0897
 9477SOL    HW229340   7.232   5.941   5.823  2.5890 -0.0748 -0.0294
 9478SOL     OW29341   6.666   4.521   2.625 -0.4925  0.1461 -0.2217
 9478SOL    HW129342   6.717   4.596   2.594 -0.5555  0.4696  0.4497
 9478SOL    HW229343   6.683   4.453   2.560 -1.2089  1.0343 -1.3811
 9479SOL     OW29344   7.728   5.350   2.917  0.4853  0.6974 -0.0561
 9479SOL    HW129345   7.763   5.265   2.944 -0.9832  0.5492  1.5198
 9479SOL    HW229346   7.646   5.329   2.873 -0.4738  1.3252  1.3653
 9480SOL     OW29347   2.394   0.958   0.688  0.1686 -0.4084 -0.5440
 9480SOL    HW129348   2.447   1.038   0.681 -1.2514  1.1160  3.1296
 9480SOL    HW229349   2.449   0.897   0.736 -0.6039  0.5194  1.6523
 9481SOL     OW29350   4.688   4.562   7.703  0.6900  0.2040 -0.8334
 9481SOL    HW129351   4.776   4.598   7.698  0.4949  0.7450 -0.4879
 9481SOL    HW229352   4.700   4.467   7.691  1.2289  0.3494 -1.5652
 9482SOL     OW29353   4.016   2.675   7.033 -0.3931 -0.3219 -0.1643
 9482SOL    HW129354   4.078   2.626   6.979  0.1165  0.1879 -0.0578
 9482SOL    HW229355   4.046   2.661   7.123 -0.2808  0.1358 -0.1301
 9483SOL     OW29356   3.030   6.810   5.803 -0.7706  0.0828  0.4677
 9483SOL    HW129357   3.065   6.726   5.832 -1.5814 -0.5549 -0.3547
 9483SOL    HW229358   3.029   6.805   5.707  1.3532  1.9417  0.2576
 9484SOL     OW29359   6.698   6.320   3.122 -0.5083  0.7105 -0.8204
 9484SOL    HW129360   6.694   6.409   3.086  1.4134  1.5637  0.8183
 9484SOL    HW229361   6.791   6.297   3.117 -0.8140 -0.7659 -0.1998
 9485SOL     OW29362   5.539   2.900   6.429 -0.1073  0.5868  0.2009
 9485SOL    HW129363   5.498   2.986   6.436  1.5070  1.4847 -0.6582
 9485SOL    HW229364   5.468   2.841   6.402 -1.4321  1.4370  1.7215
 9486SOL     OW29365   4.378   5.899   4.407  0.0058 -0.0856 -0.3648
 9486SOL    HW129366   4.306   5.935   4.458  1.0397  1.8363 -0.1509
 9486SOL    HW229367   4.337   5.867   4.327 -1.2622 -0.4121  0.3943
 9487SOL     OW29368   4.861   4.541   4.931  0.5121 -0.1960 -0.6272
 9487SOL    HW129369   4.795   4.601   4.965 -0.4100 -0.8796 -1.1646
 9487SOL    HW229370   4.881   4.575   4.844  0.8610 -0.0044 -0.4749
 9488SOL     OW29371   2.534   4.223   5.220  0.0580 -0.2196 -0.4879
 9488SOL    HW129372   2.591   4.231   5.143 -1.0821  1.9165 -1.1780
 9488SOL    HW229373   2.454   4.182   5.187 -1.1701  2.3609 -0.9522
 9489SOL     OW29374   2.781   2.211   0.103 -0.0478 -0.1305 -0.5695
 9489SOL    HW129375   2.776   2.116   0.092  0.8529 -0.3219  0.5415
 9489SOL    HW229376   2.697   2.243   0.070 -1.0007 -1.4508  0.4532
 9490SOL     OW29377   6.827   6.186   7.440  0.1153  0.8207 -0.1529
 9490SOL    HW129378   6.868   6.132   7.374  0.1152  1.0122 -0.3106
 9490SOL    HW229379   6.826   6.274   7.402 -2.1697  0.5018 -0.9861
 9491SOL     OW29380   3.460   4.969   2.752  0.0755  0.0652  0.3634
 9491SOL    HW129381   3.439   4.907   2.822  1.7659  0.1501  0.9716
 9491SOL    HW229382   3.493   4.914   2.680  0.3410  0.1468  0.4215
 9492SOL     OW29383   7.400   6.715   2.178 -0.4751 -0.6328  0.0073
 9492SOL    HW129384   7.440   6.725   2.091 -0.5483 -0.3258  0.0096
 9492SOL    HW229385   7.428   6.628   2.206 -0.2156 -0.6207 -0.2032
 9493SOL     OW29386   5.050   6.753   1.374 -1.0897 -0.0603  0.2667
 9493SOL    HW129387   5.034   6.767   1.468 -0.7242  1.0706  0.1684
 9493SOL    HW229388   5.146   6.747   1.367 -1.1616 -1.2139  0.0978
 9494SOL     OW29389   3.938   7.077   3.053 -0.0853  0.2753  0.2995
 9494SOL    HW129390   3.988   7.158   3.048  1.9000 -0.8173  0.9608
 9494SOL    HW229391   3.969   7.035   3.134 -1.7537 -0.7124  0.4819
 9495SOL     OW29392   7.074   4.261   6.519 -0.7044  0.4252 -0.7446
 9495SOL    HW129393   7.004   4.301   6.467 -1.9869 -0.8994 -0.1232
 9495SOL    HW229394   7.079   4.171   6.486  0.0654  0.2342 -0.1315
 9496SOL     OW29395   3.052   7.611   2.431 -0.4782 -0.1835 -0.1492
 9496SOL    HW129396   3.138   7.637   2.465 -0.0096 -1.5584 -0.1985
 9496SOL    HW229397   3.013   7.692   2.398  0.8231  0.4588 -0.1728
 9497SOL     OW29398   5.423   1.088   4.242  0.4948  0.0794 -0.3220
 9497SOL    HW129399   5.465   1.167   4.276  0.5508 -0.0196 -0.1646
 9497SOL    HW229400   5.476   1.063   4.167  0.6592  0.0079 -0.1799
 9498SOL     OW29401   3.711   6.339   5.357  0.2010  0.4842  0.4197
 9498SOL    HW129402   3.729   6.433   5.364 -1.2467  0.6912  1.9441
 9498SOL    HW229403   3.624   6.334   5.316  0.8303 -0.2776 -0.9236
 9499SOL     OW29404   5.808   5.948   2.557  0.4627  0.1042 -0.0511
 9499SOL    HW129405   5.772   5.961   2.645  2.3629  0.1922  0.7441
 9499SOL    HW229406   5.752   6.002   2.501 -0.9662 -0.1752  1.0302
 9500SOL     OW29407   0.380   7.222   1.683  0.2316 -0.1156 -0.0237
 9500SOL    HW129408   0.383   7.138   1.637  1.4670 -0.3493  0.4243
 9500SOL    HW229409   0.424   7.204   1.767 -2.8285  0.0087  1.7490
 9501SOL     OW29410   2.264   1.331   5.227  0.1064 -0.0371 -0.0479
 9501SOL    HW129411   2.218   1.269   5.283 -0.6384  0.4517 -0.1143
 9501SOL    HW229412   2.244   1.303   5.138 -0.1978  0.2673 -0.0781
 9502SOL     OW29413   6.462   3.979   1.221  0.4397  0.1493  0.1175
 9502SOL    HW129414   6.541   3.946   1.263 -0.1527 -2.5850 -0.7584
 9502SOL    HW229415   6.492   4.014   1.137  0.9464  0.9679  0.6263
 9503SOL     OW29416   3.280   5.038   0.972 -0.0764 -0.2084  0.0106
 9503SOL    HW129417   3.199   5.001   1.006 -1.0154  0.1009 -1.8014
 9503SOL    HW229418   3.268   5.041   0.878  1.1455  1.9682 -0.1467
 9504SOL     OW29419   1.320   6.271   6.337 -0.0234 -0.1161  0.0733
 9504SOL    HW129420   1.364   6.190   6.360  0.3169 -0.2382 -0.9574
 9504SOL    HW229421   1.372   6.339   6.380  1.3527 -0.2389 -1.3041
 9505SOL     OW29422   4.682   6.109   3.187 -0.2711  0.0281 -0.0986
 9505SOL    HW129423   4.762   6.095   3.237  0.2627 -0.2944 -1.0130
 9505SOL    HW229424   4.621   6.150   3.249  0.6953  0.5562  0.5181
 9506SOL     OW29425   2.430   3.301   2.713  0.0744  0.2179 -0.1137
 9506SOL    HW129426   2.502   3.264   2.764  0.3674 -0.6898 -1.1313
 9506SOL    HW229427   2.465   3.384   2.679 -0.4868  1.3609  1.9514
 9507SOL     OW29428   2.417   7.589   2.235  0.1575 -0.2684 -0.3438
 9507SOL    HW129429   2.345   7.651   2.234 -0.5551 -1.0748 -0.2716
 9507SOL    HW229430   2.442   7.579   2.143  0.9038  0.8137 -0.2798
 9508SOL     OW29431   5.195   1.466   0.087 -0.8140 -0.2974  0.3031
 9508SOL    HW129432   5.260   1.496   0.023  0.9717 -0.6321  1.8754
 9508SOL    HW229433   5.163   1.383   0.051 -0.2143 -0.2373 -0.4067
 9509SOL     OW29434   4.408   0.585   4.154  0.0626  0.1060 -0.3903
 9509SOL    HW129435   4.456   0.663   4.182 -1.6366  0.7626  0.8258
 9509SOL    HW229436   4.323   0.591   4.198 -0.2451 -2.2818 -0.5139
 9510SOL     OW29437   0.073   3.436   1.645 -0.2767 -0.3212  0.4885
 9510SOL    HW129438   0.048   3.369   1.582 -0.1192  0.1482 -0.0822
 9510SOL    HW229439   0.001   3.439   1.708 -1.5310  0.7676 -0.9261
 9511SOL     OW29440   3.426   5.024   7.730 -0.2083 -0.1104  0.6902
 9511SOL    HW129441   3.495   4.975   7.684  1.1589  0.2938  2.2067
 9511SOL    HW229442   3.438   5.001   7.822 -0.7256  1.6438  1.2304
 9512SOL     OW29443   4.509   6.922   1.008 -0.4104  0.3837 -0.3918
 9512SOL    HW129444   4.485   6.829   1.011  1.5076 -0.1316  1.4314
 9512SOL    HW229445   4.581   6.926   0.946 -0.2852  0.5934 -0.2358
 9513SOL     OW29446   5.404   3.042   2.596  0.1578 -0.2834  0.3242
 9513SOL    HW129447   5.388   3.134   2.578 -0.4684 -0.8092 -2.1557
 9513SOL    HW229448   5.321   2.999   2.578  1.1359 -1.6406 -1.2768
 9514SOL     OW29449   7.286   0.833   4.743  0.5127  0.1423 -0.1109
 9514SOL    HW129450   7.245   0.792   4.667  0.6734 -0.2160 -0.0056
 9514SOL    HW229451   7.370   0.788   4.752 -0.0891 -0.7582  1.0974
 9515SOL     OW29452   5.214   1.954   4.683  0.0963 -0.2088 -0.2894
 9515SOL    HW129453   5.191   1.869   4.645  1.1656 -1.1122  1.0066
 9515SOL    HW229454   5.293   1.981   4.635  0.5909 -0.6474  0.2647
 9516SOL     OW29455   6.310   7.064   6.774  0.1657 -0.0276  0.1499
 9516SOL    HW129456   6.257   7.042   6.850 -1.2230  1.9008 -0.1729
 9516SOL    HW229457   6.276   7.009   6.704 -3.5732  3.0049 -0.7771
 9517SOL     OW29458   6.765   1.034   0.797 -0.2630  0.1526 -0.5201
 9517SOL    HW129459   6.846   1.085   0.788 -0.9162  1.1914 -0.7821
 9517SOL    HW229460   6.698   1.090   0.757 -1.4496  0.1591  1.3827
 9518SOL     OW29461   0.820   5.830   7.418 -0.0078  0.9832  0.1739
 9518SOL    HW129462   0.868   5.845   7.500  0.4018  0.4082  0.0504
 9518SOL    HW229463   0.836   5.738   7.398 -0.3710  1.0378 -0.3884
 9519SOL     OW29464   3.662   1.921   5.226 -0.9740  0.0503 -0.0123
 9519SOL    HW129465   3.651   1.970   5.308 -0.0865  2.3004 -1.1586
 9519SOL    HW229466   3.619   1.838   5.243 -1.6973  0.8138  2.4058
 9520SOL     OW29467   2.538   4.689   3.325 -0.1701  0.0992  0.2253
 9520SOL    HW129468   2.567   4.601   3.299  1.9302  0.2069  1.9777
 9520SOL    HW229469   2.488   4.675   3.405  0.8942  0.5639  0.9831
 9521SOL     OW29470   5.588   0.330   1.672  0.1315  0.1448  0.1321
 9521SOL    HW129471   5.546   0.415   1.669 -0.0612  0.0750  0.6899
 9521SOL    HW229472   5.652   0.337   1.743  0.6588  0.0682 -0.3260
 9522SOL     OW29473   0.723   0.310   4.220  0.1766  0.0490 -0.5385
 9522SOL    HW129474   0.811   0.339   4.244 -0.1992  1.8298 -1.1618
 9522SOL    HW229475   0.711   0.344   4.131 -0.6907 -1.2628 -0.9494
 9523SOL     OW29476   7.595   3.700   2.919  0.3811 -0.7999  0.1316
 9523SOL    HW129477   7.570   3.763   2.851 -0.1746 -1.3688 -0.1976
 9523SOL    HW229478   7.549   3.729   2.997  0.2264 -0.7273  0.0141
 9524SOL     OW29479   7.154   6.563   1.595 -0.5879  0.3151 -0.0465
 9524SOL    HW129480   7.177   6.478   1.633  0.5282  0.2301 -0.8383
 9524SOL    HW229481   7.087   6.543   1.530  0.1893 -0.0728 -0.7373
 9525SOL     OW29482   5.742   6.652   6.302  0.5420  0.3609 -0.0023
 9525SOL    HW129483   5.778   6.586   6.361  0.0686  0.3043  0.2290
 9525SOL    HW229484   5.776   6.735   6.335 -2.2218  0.7117  2.3732
 9526SOL     OW29485   2.763   6.313   5.760  0.2165 -0.1733 -0.0913
 9526SOL    HW129486   2.783   6.405   5.775 -0.7964  0.3798 -1.8606
 9526SOL    HW229487   2.723   6.311   5.673 -2.7647 -1.8170  1.1759
 9527SOL     OW29488   0.261   5.846   1.487 -0.0875  0.3088 -0.5994
 9527SOL    HW129489   0.225   5.922   1.534 -0.0534  0.2495 -0.4761
 9527SOL    HW229490   0.355   5.863   1.483  0.0621 -0.1944  0.3082
 9528SOL     OW29491   6.835   2.127   3.382 -0.2039 -0.1294 -0.9674
 9528SOL    HW129492   6.877   2.212   3.372  0.9169 -0.5097  0.1751
 9528SOL    HW229493   6.823   2.117   3.477 -1.3770 -0.7542 -1.1695
 9529SOL     OW29494   6.136   0.586   3.471 -0.4607  0.2893 -0.3094
 9529SOL    HW129495   6.068   0.553   3.530 -0.1781 -0.5618 -0.4356
 9529SOL    HW229496   6.212   0.601   3.527 -0.6348  0.8675 -0.2292
 9530SOL     OW29497   5.400   5.035   4.486 -0.2955 -0.2882  0.5584
 9530SOL    HW129498   5.344   5.019   4.562 -1.9983  1.2327 -0.2810
 9530SOL    HW229499   5.411   4.949   4.446 -1.3816 -0.7543  1.1946
 9531SOL     OW29500   1.244   7.204   2.815  0.1693  1.0594 -0.1472
 9531SOL    HW129501   1.253   7.298   2.829  3.0819  0.8402  0.0569
 9531SOL    HW229502   1.281   7.189   2.728 -0.1365  0.0619 -0.1161
 9532SOL     OW29503   6.411   4.399   4.129 -0.2510 -0.0921 -0.6977
 9532SOL    HW129504   6.498   4.403   4.089  0.2264  1.7517  0.4156
 9532SOL    HW229505   6.408   4.312   4.170  0.5154 -0.7091 -1.8647
 9533SOL     OW29506   5.081   6.246   0.951  0.0469 -0.0860 -0.1165
 9533SOL    HW129507   5.138   6.319   0.975  0.6277 -0.1898 -1.0813
 9533SOL    HW229508   5.018   6.284   0.890  0.3290 -0.3719 -0.5953
 9534SOL     OW29509   1.781   4.458   4.978  0.0263 -0.1521 -0.0830
 9534SOL    HW129510   1.814   4.432   4.892 -1.2605  1.1732 -1.0263
 9534SOL    HW229511   1.860   4.478   5.029  0.7910 -0.6020 -1.0699
 9535SOL     OW29512   4.164   0.840   2.625  0.1726  0.1225  0.0073
 9535SOL    HW129513   4.149   0.856   2.532 -2.1417  0.6222  0.3892
 9535SOL    HW229514   4.196   0.924   2.659 -1.4612  0.7606  0.0699
 9536SOL     OW29515   3.440   0.014   1.261 -1.0562 -0.0028 -0.0099
 9536SOL    HW129516   3.385  -0.000   1.338  0.6981  0.6345  1.4374
 9536SOL    HW229517   3.406   0.095   1.222 -2.1068 -0.4556 -0.0510
 9537SOL     OW29518   5.493   1.199   2.003  0.1865 -0.6568  0.0445
 9537SOL    HW129519   5.562   1.203   1.937 -0.5235  0.9489 -0.6569
 9537SOL    HW229520   5.531   1.150   2.075  1.7934 -0.4406 -0.6186
 9538SOL     OW29521   1.940   7.281   2.474 -0.4406  0.3719 -0.2045
 9538SOL    HW129522   1.997   7.333   2.531 -0.7265 -1.5079  1.9058
 9538SOL    HW229523   2.000   7.228   2.422 -0.1592  2.4342 -2.1342
 9539SOL     OW29524   6.399   4.029   4.848  0.5877 -0.5107  0.1900
 9539SOL    HW129525   6.307   4.054   4.859  0.2864 -1.9282  1.1715
 9539SOL    HW229526   6.397   3.964   4.778  0.9407 -0.0979 -0.2095
 9540SOL     OW29527   0.976   1.931   7.454  0.1174  0.2662 -0.4361
 9540SOL    HW129528   1.025   1.978   7.387 -0.8228 -0.9187 -2.0115
 9540SOL    HW229529   0.888   1.921   7.418  0.0079 -1.7800  0.2605
 9541SOL     OW29530   5.966   3.513   2.631 -0.1355  0.0783 -0.1863
 9541SOL    HW129531   5.872   3.530   2.639 -0.1178  0.2663 -0.3695
 9541SOL    HW229532   5.998   3.510   2.721 -0.7988 -2.8253  0.0773
 9542SOL     OW29533   1.332   3.961   5.666 -0.3396  0.4292  0.2158
 9542SOL    HW129534   1.362   3.927   5.750  1.2799 -0.5272 -0.6948
 9542SOL    HW229535   1.302   4.050   5.685  1.8641  0.9688  1.4895
 9543SOL     OW29536   0.689   4.498   5.041  0.3486  0.1259 -0.2899
 9543SOL    HW129537   0.688   4.591   5.016  0.1190 -0.2128 -1.6187
 9543SOL    HW229538   0.720   4.498   5.131 -0.9790  1.6170  0.2183
 9544SOL     OW29539   3.465   3.732   2.195 -0.3107  0.4256 -0.0489
 9544SOL    HW129540   3.406   3.658   2.179 -0.8978  1.0304 -0.7805
 9544SOL    HW229541   3.482   3.768   2.108 -0.8450  1.7512  0.3634
 9545SOL     OW29542   3.859   3.566   0.165  0.0460  0.1861  0.0117
 9545SOL    HW129543   3.902   3.482   0.151 -0.6611 -0.3277  0.8520
 9545SOL    HW229544   3.896   3.598   0.247  0.4873  0.8202 -0.4226
 9546SOL     OW29545   0.397   5.109   4.069  0.0448 -0.6575  0.3468
 9546SOL    HW129546   0.317   5.099   4.121  0.5774 -2.1549  0.9343
 9546SOL    HW229547   0.378   5.182   4.010 -1.3422 -0.2639  1.2243
 9547SOL     OW29548   1.707   3.932   0.433  0.4929  0.1884 -0.2077
 9547SOL    HW129549   1.726   3.843   0.402  0.8858  0.8571 -1.9832
 9547SOL    HW229550   1.657   3.972   0.362  0.4915  1.4666  0.4925
 9548SOL     OW29551   1.876   4.856   7.619 -0.4611 -0.5729 -0.3934
 9548SOL    HW129552   1.893   4.790   7.687 -5.1852 -1.7283  0.0140
 9548SOL    HW229553   1.847   4.933   7.668 -0.5155 -0.2084 -0.9993
 9549SOL     OW29554   2.765   2.572   4.425  0.0782  0.4247  0.0846
 9549SOL    HW129555   2.706   2.543   4.495  0.3952  3.9511  2.0436
 9549SOL    HW229556   2.709   2.621   4.365  0.1378 -1.0864 -1.2955
 9550SOL     OW29557   5.074   6.399   6.220  0.2287 -0.0365 -0.0311
 9550SOL    HW129558   5.153   6.351   6.247  0.8701  1.4544  0.8472
 9550SOL    HW229559   5.032   6.341   6.156  2.1996 -0.7425 -0.7720
 9551SOL     OW29560   1.460   1.091   7.215 -0.1984  0.0345  0.0557
 9551SOL    HW129561   1.381   1.070   7.265  0.9521 -1.4488  1.3435
 9551SOL    HW229562   1.427   1.124   7.131 -2.1898 -0.9953  0.3708
 9552SOL     OW29563   6.492   2.029   1.898 -0.1646  0.0722  0.0029
 9552SOL    HW129564   6.561   2.094   1.912 -0.3629  0.1903  0.4467
 9552SOL    HW229565   6.538   1.945   1.904  0.2931  0.1590 -1.6330
 9553SOL     OW29566   1.945   6.448   1.089 -1.0520  0.2615 -0.3207
 9553SOL    HW129567   1.908   6.360   1.096 -1.6497  0.5727  0.6985
 9553SOL    HW229568   1.980   6.453   1.000 -0.5822 -1.1671 -0.2349
 9554SOL     OW29569   1.498   4.726   4.609  0.1167  0.2599 -0.4500
 9554SOL    HW129570   1.557   4.783   4.560 -1.6047  1.7047 -0.9027
 9554SOL    HW229571   1.432   4.698   4.546  1.5432 -3.3722 -0.6082
 9555SOL     OW29572   2.032   6.704   1.103 -0.2368 -0.0921 -0.3686
 9555SOL    HW129573   2.103   6.675   1.160 -1.4179  0.6060  1.5430
 9555SOL    HW229574   1.978   6.625   1.091  1.1405 -0.7955 -2.3691
 9556SOL     OW29575   4.875   1.401   1.300  0.6087  0.0419 -0.0177
 9556SOL    HW129576   4.957   1.433   1.336  1.5316 -2.8212  0.7076
 9556SOL    HW229577   4.836   1.349   1.371 -0.7034 -0.5082 -1.0938
 9557SOL     OW29578   4.583   2.524   6.449  0.0872  0.2902  0.8270
 9557SOL    HW129579   4.521   2.462   6.411  0.1963  0.3702  0.5161
 9557SOL    HW229580   4.662   2.472   6.465  0.0158  0.2386  1.0229
 9558SOL     OW29581   2.675   4.918   4.256  0.1041 -0.0737 -0.3950
 9558SOL    HW129582   2.645   4.831   4.281  0.7706 -1.0533 -2.7459
 9558SOL    HW229583   2.599   4.975   4.272 -0.7839 -1.3128 -0.0630
 9559SOL     OW29584   6.815   6.645   2.739 -0.3266 -1.0658 -0.3143
 9559SOL    HW129585   6.819   6.657   2.644 -0.0660 -0.7939 -0.2697
 9559SOL    HW229586   6.731   6.682   2.765  0.2528  0.2263 -0.2417
 9560SOL     OW29587   0.729   3.954   2.129  0.1235 -0.0388  0.3310
 9560SOL    HW129588   0.785   3.975   2.203 -1.1561 -1.2790  1.6946
 9560SOL    HW229589   0.783   3.973   2.052  0.9158  2.8771  1.4936
 9561SOL     OW29590   2.209   4.127   6.615  0.2185 -0.5471  0.1504
 9561SOL    HW129591   2.249   4.167   6.692 -1.0610 -0.1006  0.6070
 9561SOL    HW229592   2.115   4.129   6.633 -0.1168 -0.3608 -1.4485
 9562SOL     OW29593   0.652   2.608   1.037 -0.1117  0.5156 -0.2703
 9562SOL    HW129594   0.674   2.577   0.950 -0.5909 -0.8196  0.0654
 9562SOL    HW229595   0.706   2.555   1.096  1.5601  2.6022  0.2064
 9563SOL     OW29596   5.471   6.255   1.127  0.5696 -0.0198  0.2390
 9563SOL    HW129597   5.380   6.252   1.158 -0.0285  1.3863 -1.2605
 9563SOL    HW229598   5.517   6.193   1.183 -1.0803  0.0804  1.8026
 9564SOL     OW29599   5.681   1.955   2.787  0.4113 -0.1562 -0.3874
 9564SOL    HW129600   5.645   1.958   2.876  0.6620  0.4492 -0.3030
 9564SOL    HW229601   5.776   1.951   2.800  0.4326 -0.4698 -0.6250
 9565SOL     OW29602   2.549   5.157   4.502  0.1598 -0.1127 -0.0622
 9565SOL    HW129603   2.538   5.116   4.588 -0.8725 -0.4755 -0.3480
 9565SOL    HW229604   2.561   5.250   4.521 -0.4311 -0.1385  0.4590
 9566SOL     OW29605   2.180   2.155   2.099  0.3744 -0.0459  0.5448
 9566SOL    HW129606   2.158   2.154   2.192  0.3271 -1.3336  0.5369
 9566SOL    HW229607   2.275   2.147   2.097  0.2867 -1.5011  0.4973
 9567SOL     OW29608   6.488   6.888   5.920  0.2555 -0.2434 -0.0884
 9567SOL    HW129609   6.522   6.799   5.918 -1.5117 -0.9675  0.2849
 9567SOL    HW229610   6.523   6.925   6.002 -2.2111 -2.0089  1.9007
 9568SOL     OW29611   6.603   6.475   2.296  0.2903  0.7557 -0.0212
 9568SOL    HW129612   6.652   6.398   2.325 -0.9804  0.4025  1.3222
 9568SOL    HW229613   6.628   6.486   2.204  2.8831  0.6528  0.6099
 9569SOL     OW29614   3.306   0.422   1.912  0.2586 -0.0307  0.1270
 9569SOL    HW129615   3.242   0.477   1.867  0.5249 -0.5839 -0.9666
 9569SOL    HW229616   3.310   0.342   1.859  3.0311  0.6125 -0.8104
 9570SOL     OW29617   1.167   6.751   3.458 -0.1635  0.4517  0.0765
 9570SOL    HW129618   1.105   6.733   3.528  0.3897  0.9272  0.7015
 9570SOL    HW229619   1.219   6.670   3.451 -0.9018  0.0183 -0.5155
 9571SOL     OW29620   3.157   1.013   2.029  0.1737 -0.0534  0.1576
 9571SOL    HW129621   3.226   1.077   2.046  0.0227  0.4811 -1.1000
 9571SOL    HW229622   3.111   1.048   1.952  2.3278 -3.4501 -2.9552
 9572SOL     OW29623   6.605   5.234   7.722  0.4836 -0.3861 -0.4507
 9572SOL    HW129624   6.550   5.165   7.684  0.4011 -0.6172  0.0732
 9572SOL    HW229625   6.653   5.270   7.647 -0.8862  0.2943 -1.0311
 9573SOL     OW29626   3.565   2.520   2.164 -0.6949  0.1235 -0.2045
 9573SOL    HW129627   3.503   2.592   2.173 -0.6481  0.1985 -0.4811
 9573SOL    HW229628   3.635   2.554   2.109 -0.5190 -0.0335 -0.0793
 9574SOL     OW29629   6.187   0.947   6.841  0.1621 -0.1667 -0.1369
 9574SOL    HW129630   6.101   0.971   6.807  0.0830  1.7976  1.2560
 9574SOL    HW229631   6.249   1.001   6.791  0.3240  0.3610  0.6140
 9575SOL     OW29632   5.992   5.902   7.300  0.4427  0.9261 -0.1921
 9575SOL    HW129633   5.907   5.859   7.293  0.1916  1.0091  1.7807
 9575SOL    HW229634   6.036   5.884   7.217 -1.6490  1.2286 -1.4308
 9576SOL     OW29635   0.083   2.361   7.378 -0.4513 -0.0173 -0.6452
 9576SOL    HW129636   0.046   2.295   7.436 -2.4939 -0.3789 -2.2460
 9576SOL    HW229637   0.040   2.443   7.403 -1.2181 -0.1447 -1.4611
 9577SOL     OW29638   3.858   2.809   6.823 -0.1514  0.1059  0.3007
 9577SOL    HW129639   3.900   2.794   6.908  1.4118 -2.3364 -0.7688
 9577SOL    HW229640   3.780   2.754   6.826  0.3018 -0.5728 -0.0760
 9578SOL     OW29641   1.584   6.615   1.507  0.6410  0.2591 -0.2003
 9578SOL    HW129642   1.614   6.640   1.594  2.1995  1.9538 -1.1638
 9578SOL    HW229643   1.658   6.568   1.468  0.7743  1.3568 -1.3329
 9579SOL     OW29644   1.260   5.635   1.154 -0.0470  0.2759  0.3458
 9579SOL    HW129645   1.282   5.719   1.195  2.0961 -0.3809  0.6503
 9579SOL    HW229646   1.247   5.575   1.228 -0.2968  0.0429  0.1145
 9580SOL     OW29647   5.816   3.637   6.098 -0.1655  0.3643  0.2038
 9580SOL    HW129648   5.768   3.561   6.065 -1.3285  0.7092  1.0570
 9580SOL    HW229649   5.886   3.599   6.152 -0.4228 -0.1128  0.2058
 9581SOL     OW29650   3.674   0.621   0.144 -0.5166 -0.6556  0.6072
 9581SOL    HW129651   3.648   0.552   0.084 -1.2768  0.6998 -0.7059
 9581SOL    HW229652   3.763   0.645   0.115 -0.8720 -0.0220 -0.0002
 9582SOL     OW29653   6.149   2.480   1.216 -0.2408 -0.0197  0.8369
 9582SOL    HW129654   6.151   2.421   1.141 -0.9278  0.5572  0.3477
 9582SOL    HW229655   6.088   2.549   1.190 -1.7836 -0.6614  2.5847
 9583SOL     OW29656   4.144   3.093   5.564 -0.2665  0.1331 -0.2428
 9583SOL    HW129657   4.201   3.067   5.636 -1.1054  1.0182  0.7767
 9583SOL    HW229658   4.074   3.028   5.564 -0.6345  0.5206  0.2059
 9584SOL     OW29659   3.000   0.529   1.422 -0.3924  0.1969 -0.0170
 9584SOL    HW129660   3.059   0.516   1.348 -2.5406  0.8342 -1.9641
 9584SOL    HW229661   3.000   0.445   1.469  0.4506 -0.4692 -1.1747
 9585SOL     OW29662   6.459   5.818   1.107 -0.2161  0.0804  0.0976
 9585SOL    HW129663   6.396   5.885   1.082 -1.4071 -0.9683  0.1925
 9585SOL    HW229664   6.491   5.783   1.024 -0.0316  0.3611  0.0493
 9586SOL     OW29665   7.464   3.671   3.543 -0.1915 -0.4051  0.4969
 9586SOL    HW129666   7.484   3.765   3.550 -1.1443 -0.2788  2.0534
 9586SOL    HW229667   7.520   3.629   3.607  0.4474 -0.9621 -0.4029
 9587SOL     OW29668   6.113   1.770   3.151 -0.5648 -0.4504 -0.0162
 9587SOL    HW129669   6.173   1.713   3.103  3.0398  2.4963  0.5464
 9587SOL    HW229670   6.157   1.786   3.234 -2.0572  1.9882  0.3906
 9588SOL     OW29671   4.301   3.461   7.387  0.1089 -0.7007  0.0487
 9588SOL    HW129672   4.389   3.478   7.419 -0.6059 -0.2017  1.8734
 9588SOL    HW229673   4.295   3.510   7.305  1.2191  0.0318  0.3849
 9589SOL     OW29674   6.060   1.291   6.598 -0.3360 -0.0419  0.4254
 9589SOL    HW129675   6.100   1.310   6.513  0.5438  0.5657  0.9599
 9589SOL    HW229676   6.134   1.274   6.656 -0.8269  1.3142  1.4920
 9590SOL     OW29677   2.447   0.248   7.499 -0.2357  0.2408 -0.2152
 9590SOL    HW129678   2.418   0.317   7.558  1.2864  1.5788 -0.9701
 9590SOL    HW229679   2.528   0.215   7.537 -0.6148 -0.7186 -0.2019
 9591SOL     OW29680   6.604   4.730   2.391 -0.3474 -0.1787  0.1001
 9591SOL    HW129681   6.609   4.798   2.324  0.1947  0.0551  0.3644
 9591SOL    HW229682   6.684   4.742   2.443  0.4342 -1.8692 -0.6542
 9592SOL     OW29683   5.704   7.680   2.166  0.4548 -0.2081  0.1892
 9592SOL    HW129684   5.765   7.613   2.198  0.8954  0.6671  1.2235
 9592SOL    HW229685   5.691   7.738   2.240 -1.4534 -0.2202 -0.0930
 9593SOL     OW29686   4.405   5.546   2.592  0.2366 -0.3728  0.1717
 9593SOL    HW129687   4.442   5.544   2.680 -0.2029 -1.0917  0.3494
 9593SOL    HW229688   4.363   5.461   2.582 -0.7935  0.1713 -0.2738
 9594SOL     OW29689   6.471   4.609   7.067 -0.1594 -0.7191 -0.1795
 9594SOL    HW129690   6.547   4.652   7.107  0.5835 -0.2997 -1.9396
 9594SOL    HW229691   6.498   4.518   7.056 -0.8806 -1.1612  1.4684
 9595SOL     OW29692   7.574   4.734   3.507  0.3960  0.3319  0.3345
 9595SOL    HW129693   7.495   4.711   3.556  0.6964 -0.0687  0.6255
 9595SOL    HW229694   7.608   4.812   3.551 -0.2493  0.9557 -0.2472
 9596SOL     OW29695   2.855   7.385   3.642  0.2585  0.1856  0.1035
 9596SOL    HW129696   2.840   7.419   3.730 -1.3920  0.6129 -0.2984
 9596SOL    HW229697   2.770   7.349   3.616  0.8350 -0.3158 -1.1504
 9597SOL     OW29698   7.185   7.128   2.501 -0.2696 -0.0554 -0.4925
 9597SOL    HW129699   7.130   7.204   2.480 -1.8669 -0.5709  1.4444
 9597SOL    HW229700   7.272   7.165   2.515 -0.7688  1.2681 -0.7269
 9598SOL     OW29701   2.074   3.662   1.775  0.5694  0.4380  0.1267
 9598SOL    HW129702   2.028   3.725   1.720 -1.9145 -0.3600  1.1514
 9598SOL    HW229703   2.081   3.704   1.860  0.8415  0.1620  0.2452
 9599SOL     OW29704   3.876   6.968   4.637  0.3173 -0.1228 -0.0801
 9599SOL    HW129705   3.824   7.023   4.579 -1.3521  0.1837  1.6177
 9599SOL    HW229706   3.903   7.026   4.708  0.2095 -1.0314  0.7232
 9600SOL     OW29707   5.188   6.976   5.944 -0.5435  0.2920 -0.1801
 9600SOL    HW129708   5.161   6.911   5.879 -0.2281 -1.1027  1.0445
 9600SOL    HW229709   5.283   6.968   5.949 -0.6368 -0.3781  1.1679
 9601SOL     OW29710   1.947   5.406   7.069 -0.5032 -0.2932 -0.1701
 9601SOL    HW129711   1.933   5.444   7.156  0.2205 -0.5944  0.0928
 9601SOL    HW229712   1.899   5.323   7.071 -2.6831  0.8943 -0.9973
 9602SOL     OW29713   2.387   5.351   0.938  0.0971 -0.7264  0.2614
 9602SOL    HW129714   2.478   5.349   0.969 -0.0691  0.3208  0.8685
 9602SOL    HW229715   2.347   5.272   0.975  0.3921 -0.4485  1.1995
 9603SOL     OW29716   6.928   1.601   1.720  0.2773  0.0543  0.5924
 9603SOL    HW129717   6.953   1.524   1.669  0.6453  0.6385 -0.1223
 9603SOL    HW229718   6.897   1.664   1.655  1.0509  0.9256  1.0442
 9604SOL     OW29719   4.205   4.876   4.221 -0.0097 -0.0123 -0.0114
 9604SOL    HW129720   4.275   4.893   4.158 -1.6644  1.8283 -1.5092
 9604SOL    HW229721   4.152   4.808   4.179 -0.9387  0.9909 -0.5268
 9605SOL     OW29722   3.750   7.266   0.031 -0.2155 -0.4905 -0.1332
 9605SOL    HW129723   3.810   7.264  -0.044 -0.6589  1.4671 -0.5961
 9605SOL    HW229724   3.672   7.309  -0.002 -0.4153  0.4509  1.4472
 9606SOL     OW29725   1.714   5.406   7.653 -0.0735 -0.2510 -0.2138
 9606SOL    HW129726   1.680   5.318   7.639 -0.3743  0.1493 -2.4173
 9606SOL    HW229727   1.761   5.401   7.736 -0.8784 -2.2276  0.1719
 9607SOL     OW29728   6.594   0.099   7.467 -0.6064 -0.3013  0.2815
 9607SOL    HW129729   6.664   0.036   7.453 -1.3006 -0.9041 -0.5363
 9607SOL    HW229730   6.566   0.083   7.558 -0.0212 -0.3865  0.4515
 9608SOL     OW29731   1.057   1.331   6.029 -0.0730 -0.7435  0.0002
 9608SOL    HW129732   1.003   1.352   5.953 -0.1677 -0.2994  0.1833
 9608SOL    HW229733   1.069   1.237   6.025 -0.3919 -0.7714 -0.3585
 9609SOL     OW29734   7.056   3.966   5.003 -0.1639 -0.1849  0.3614
 9609SOL    HW129735   7.022   4.033   5.063 -0.0579 -0.0495  0.2692
 9609SOL    HW229736   7.132   4.006   4.963 -0.9702  0.2035 -0.8219
 9610SOL     OW29737   5.855   3.344   2.875  0.6736  0.5954  0.4006
 9610SOL    HW129738   5.855   3.294   2.793 -0.0986  0.9380  0.1835
 9610SOL    HW229739   5.860   3.436   2.847 -0.7892  0.7759  0.6854
 9611SOL     OW29740   5.436   7.673   2.465  0.3688 -0.1534 -0.0320
 9611SOL    HW129741   5.419   7.618   2.388 -1.3931 -1.1404  0.9959
 9611SOL    HW229742   5.465   7.611   2.532  1.3159  0.6263  0.3102
 9612SOL     OW29743   2.253   2.015   5.872 -0.4798  1.0166  0.0090
 9612SOL    HW129744   2.339   2.019   5.912 -1.0766 -0.4659  1.5885
 9612SOL    HW229745   2.258   2.073   5.796  1.5967  1.6719  0.5989
 9613SOL     OW29746   1.766   6.910   4.927 -0.0862 -0.2518  0.4148
 9613SOL    HW129747   1.753   6.878   4.838 -0.5162 -0.7670  0.6564
 9613SOL    HW229748   1.838   6.857   4.962 -0.9194 -1.1202  0.8775
 9614SOL     OW29749   6.770   4.939   0.742 -0.1920 -0.4291 -0.0194
 9614SOL    HW129750   6.693   4.889   0.769 -0.5270  0.5790  0.9808
 9614SOL    HW229751   6.736   5.028   0.728  0.4540 -0.3668 -1.3820
 9615SOL     OW29752   4.889   4.090   0.641 -0.0898 -0.0038 -0.0054
 9615SOL    HW129753   4.930   4.129   0.564 -0.8162  1.6720  0.4151
 9615SOL    HW229754   4.947   4.112   0.714 -1.1043  1.3828  0.4148
 9616SOL     OW29755   2.702   5.435   1.291 -0.0754 -0.5356 -0.2287
 9616SOL    HW129756   2.610   5.412   1.303 -0.1550  0.5222  1.6169
 9616SOL    HW229757   2.740   5.429   1.379  1.7756 -1.4856 -1.0440
 9617SOL     OW29758   1.400   0.163   3.953  0.0248 -0.0725 -0.1932
 9617SOL    HW129759   1.308   0.188   3.953  0.3788  1.4520  1.2642
 9617SOL    HW229760   1.400   0.069   3.939 -1.7227 -0.0526 -0.5600
 9618SOL     OW29761   3.556   2.117   1.448  0.0295  0.8748 -0.1354
 9618SOL    HW129762   3.577   2.182   1.381 -3.3286  1.5403 -0.7178
 9618SOL    HW229763   3.591   2.154   1.529  0.1377  2.3198 -0.8080
 9619SOL     OW29764   5.775   6.983   0.576 -0.5827 -0.2200 -0.1259
 9619SOL    HW129765   5.774   6.946   0.488 -0.8129 -1.0147  0.1983
 9619SOL    HW229766   5.854   7.037   0.579 -1.3898  1.0905 -1.3235
 9620SOL     OW29767   0.218   2.656   5.579  0.0887  0.3364 -0.1952
 9620SOL    HW129768   0.208   2.703   5.661 -0.9445  1.0354 -0.6985
 9620SOL    HW229769   0.178   2.713   5.513 -3.0918 -2.0287 -0.5582
 9621SOL     OW29770   0.164   5.394   6.430  0.4941  0.2376 -0.0999
 9621SOL    HW129771   0.246   5.402   6.382  0.1955  1.1086 -0.4919
 9621SOL    HW229772   0.104   5.354   6.367 -0.0985  2.0296 -0.7583
 9622SOL     OW29773   3.232   5.203   0.057 -0.4668 -0.0901 -0.4653
 9622SOL    HW129774   3.296   5.136   0.033 -0.9090 -1.0152  0.8046
 9622SOL    HW229775   3.155   5.153   0.086 -0.9782  0.9721  0.0741
 9623SOL     OW29776   4.570   0.152   5.021  0.2419 -0.1368 -0.5682
 9623SOL    HW129777   4.567   0.238   5.062 -1.1222  0.2543 -1.4198
 9623SOL    HW229778   4.546   0.168   4.930  0.0957 -1.3983 -0.7680
 9624SOL     OW29779   7.052   0.845   1.499 -0.4151 -0.2598 -0.6157
 9624SOL    HW129780   6.996   0.889   1.434  0.3321 -1.1189 -1.8796
 9624SOL    HW229781   7.138   0.884   1.486 -0.4753  0.3382  0.6434
 9625SOL     OW29782   7.718   7.586   1.293  0.1099 -0.0098  0.0532
 9625SOL    HW129783   7.661   7.582   1.216 -0.5894  1.7708  0.4265
 9625SOL    HW229784   7.692   7.667   1.338  1.1337 -0.5324  1.6696
 9626SOL     OW29785   2.053   0.264   5.950 -0.0166 -0.2208  0.6142
 9626SOL    HW129786   1.994   0.339   5.956 -1.2168 -1.0342 -0.5725
 9626SOL    HW229787   2.121   0.282   6.016 -1.7404  0.6001  2.2787
 9627SOL     OW29788   6.360   5.619   6.961  0.2230  0.0664 -0.1316
 9627SOL    HW129789   6.454   5.605   6.955  0.5594  1.8184  0.4198
 9627SOL    HW229790   6.326   5.592   6.876  1.4325  0.8788 -0.8969
 9628SOL     OW29791   0.765   2.638   6.604  0.0662 -0.9210 -0.2304
 9628SOL    HW129792   0.815   2.576   6.550  0.3164 -0.9012 -0.0264
 9628SOL    HW229793   0.674   2.625   6.578  0.1256 -1.3247 -0.2439
 9629SOL     OW29794   7.232   5.035   6.776  0.4555 -0.3100 -0.0921
 9629SOL    HW129795   7.193   4.952   6.749 -1.0345  0.9714 -2.1511
 9629SOL    HW229796   7.167   5.101   6.752  2.4796  1.6413 -0.5027
 9630SOL     OW29797   5.047   5.249   2.798 -0.1326  0.3894  0.5483
 9630SOL    HW129798   5.107   5.322   2.781  0.7115 -0.2512  0.7164
 9630SOL    HW229799   5.093   5.172   2.764 -0.9672 -0.0834  0.4646
 9631SOL     OW29800   5.689   7.046   2.984 -0.1692  0.0249 -0.8230
 9631SOL    HW129801   5.601   7.051   2.946 -1.0876 -2.3341  0.7320
 9631SOL    HW229802   5.683   6.974   3.047  2.5037  0.7443  0.3886
 9632SOL     OW29803   3.864   0.501   4.749  0.7012  0.4028  0.3117
 9632SOL    HW129804   3.904   0.559   4.684 -1.5519 -0.6532 -2.2073
 9632SOL    HW229805   3.798   0.555   4.792  1.4047  0.7904  0.9195
 9633SOL     OW29806   2.065   2.850   7.471  0.3267 -0.6121  0.0679
 9633SOL    HW129807   2.153   2.818   7.491  0.1775 -2.4837 -1.8509
 9633SOL    HW229808   2.009   2.773   7.483 -1.1745  0.6583  1.6979
 9634SOL     OW29809   3.295   4.896   0.283  0.8714 -0.2198  0.1464
 9634SOL    HW129810   3.274   4.961   0.350 -0.0579 -0.0337 -0.3177
 9634SOL    HW229811   3.212   4.876   0.242  1.3741 -0.6242 -0.6952
 9635SOL     OW29812   0.287   2.789   6.108 -0.1596 -0.0172  0.1839
 9635SOL    HW129813   0.196   2.771   6.083 -0.1594 -1.0923  0.8863
 9635SOL    HW229814   0.339   2.758   6.033 -0.3777  0.8137 -0.3163
 9636SOL     OW29815   7.342   3.949   0.768  0.4158 -0.0392 -0.3190
 9636SOL    HW129816   7.406   3.982   0.705  0.8264  0.0112  0.1225
 9636SOL    HW229817   7.338   3.855   0.751 -0.0851  0.0891 -0.9677
 9637SOL     OW29818   2.462   5.877   2.094  0.1292  0.4489 -0.1586
 9637SOL    HW129819   2.437   5.813   2.161 -1.4189 -0.8516 -1.8589
 9637SOL    HW229820   2.406   5.953   2.111 -2.2585 -0.8919 -1.4664
 9638SOL     OW29821   3.955   4.912   5.455 -0.0466  0.0245 -0.6071
 9638SOL    HW129822   3.892   4.940   5.521 -0.8174 -0.8537 -0.9491
 9638SOL    HW229823   4.031   4.881   5.505 -0.4172 -0.1512 -0.1475
 9639SOL     OW29824   4.754   5.711   2.955 -0.8575 -0.3501 -0.0964
 9639SOL    HW129825   4.724   5.802   2.957 -0.6271 -0.2786  0.4600
 9639SOL    HW229826   4.691   5.666   2.899  0.0201  0.4921 -1.8250
 9640SOL     OW29827   6.009   6.505   1.066 -0.0084  0.2471 -0.2367
 9640SOL    HW129828   6.060   6.581   1.040 -0.3517  0.2015 -1.0646
 9640SOL    HW229829   6.027   6.495   1.160  0.1207  1.2803 -0.1377
 9641SOL     OW29830   6.426   4.367   1.273  0.2009  0.2065 -0.3482
 9641SOL    HW129831   6.366   4.390   1.202  1.4362 -1.1987 -1.9568
 9641SOL    HW229832   6.389   4.286   1.309  0.3664  0.1023 -0.4096
 9642SOL     OW29833   1.785   2.457   5.027  0.6255  0.0568  0.4055
 9642SOL    HW129834   1.723   2.490   5.092 -0.1740  0.1027 -0.3636
 9642SOL    HW229835   1.857   2.521   5.027 -0.0198  0.7990  0.2704
 9643SOL     OW29836   4.429   7.102   1.203 -0.1387  0.4438  0.3578
 9643SOL    HW129837   4.463   7.025   1.157 -0.5543  0.1865  0.4847
 9643SOL    HW229838   4.438   7.173   1.139  0.7084  0.4019  0.4122
 9644SOL     OW29839   5.759   4.197   3.199  0.3359  0.0990 -0.2823
 9644SOL    HW129840   5.808   4.153   3.268 -2.4890 -1.0508  1.1512
 9644SOL    HW229841   5.758   4.289   3.225  0.3709 -0.1197  0.5132
 9645SOL     OW29842   0.614   1.863   3.490 -0.2863  0.2881  0.5574
 9645SOL    HW129843   0.589   1.770   3.494  0.7614  0.0087  0.9303
 9645SOL    HW229844   0.681   1.873   3.557 -1.0473  1.5480  1.1591
 9646SOL     OW29845   4.034   1.900   3.943 -0.0589 -0.2860 -0.8256
 9646SOL    HW129846   3.963   1.846   3.978  1.6403 -0.5043  2.6531
 9646SOL    HW229847   4.030   1.980   3.995  0.7178  0.8134 -2.3614
 9647SOL     OW29848   4.620   1.421   1.197 -0.3726  0.3179  0.6381
 9647SOL    HW129849   4.578   1.418   1.283 -1.1666  2.5015  0.3806
 9647SOL    HW229850   4.712   1.402   1.214 -0.5603  0.5252  1.9506
 9648SOL     OW29851   3.895   6.943   7.088 -0.4491 -0.3484  0.2555
 9648SOL    HW129852   3.924   7.004   7.020  1.0227 -1.6441 -0.3378
 9648SOL    HW229853   3.835   6.884   7.042  0.4051 -1.1138  0.1047
 9649SOL     OW29854   7.690   0.386   4.126 -0.8477  0.5351 -0.0027
 9649SOL    HW129855   7.747   0.453   4.089 -0.0035 -0.5124 -0.6639
 9649SOL    HW229856   7.621   0.375   4.061  0.2605 -0.8178 -1.0096
 9650SOL     OW29857   5.948   6.159   3.196 -0.0002  0.0070  0.3432
 9650SOL    HW129858   5.946   6.192   3.107  0.1775  1.9122  0.9993
 9650SOL    HW229859   5.880   6.092   3.199 -0.2326  0.1586 -1.1297
 9651SOL     OW29860   2.958   7.465   1.575  0.2690 -0.2269  0.4227
 9651SOL    HW129861   2.935   7.380   1.537  0.5288  0.0625 -0.4121
 9651SOL    HW229862   3.032   7.447   1.632 -1.7829 -1.1327  2.9615
 9652SOL     OW29863   6.899   1.146   3.261  0.2104  0.0272 -0.5823
 9652SOL    HW129864   6.985   1.177   3.289  0.8345 -0.3876 -1.9427
 9652SOL    HW229865   6.861   1.106   3.339  1.0792  0.5745  0.1352
 9653SOL     OW29866   1.553   5.318   0.668  0.1620  0.0695  0.1198
 9653SOL    HW129867   1.487   5.319   0.736  1.0130  0.3708  0.9707
 9653SOL    HW229868   1.512   5.362   0.593 -0.9166 -0.6265  0.2896
 9654SOL     OW29869   3.630   2.438   3.267  0.1205 -0.2405  0.5723
 9654SOL    HW129870   3.703   2.482   3.225 -3.2975  2.7970 -2.9548
 9654SOL    HW229871   3.607   2.494   3.341 -0.7531  0.9338 -0.5376
 9655SOL     OW29872   3.383   2.591   6.381  0.1617  0.1352 -0.0442
 9655SOL    HW129873   3.303   2.602   6.432  0.6412 -2.2281  1.3585
 9655SOL    HW229874   3.454   2.609   6.442  0.7424 -2.4726  0.1576
 9656SOL     OW29875   4.737   2.695   6.803  0.0497  0.1434 -0.0781
 9656SOL    HW129876   4.785   2.719   6.723  0.9538 -0.5063  0.2534
 9656SOL    HW229877   4.716   2.602   6.791 -0.8170  0.3322 -0.0560
 9657SOL     OW29878   0.936   0.042   4.203  0.2101 -0.1343  0.1130
 9657SOL    HW129879   0.960   0.005   4.118 -1.5333 -0.4995 -0.2617
 9657SOL    HW229880   0.870  -0.019   4.237  0.6314  0.1959  1.5786
 9658SOL     OW29881   6.564   1.678   2.258 -0.4229  0.0413 -0.0393
 9658SOL    HW129882   6.551   1.767   2.224 -0.3621  0.3656  0.7625
 9658SOL    HW229883   6.532   1.621   2.188 -1.9435  0.7250  0.0525
 9659SOL     OW29884   4.143   2.244   1.733 -0.3014 -0.2281 -0.4916
 9659SOL    HW129885   4.048   2.246   1.725 -0.4056 -0.9712  0.4304
 9659SOL    HW229886   4.164   2.154   1.759  0.5810  0.1387  0.1357
 9660SOL     OW29887   4.419   3.059   7.686 -0.1702 -0.1921 -0.3372
 9660SOL    HW129888   4.371   3.124   7.635 -0.5411  1.6544  2.1899
 9660SOL    HW229889   4.509   3.092   7.687 -0.2815  0.1171  0.6317
 9661SOL     OW29890   4.077   6.691   4.764 -0.0355 -0.1177 -0.0767
 9661SOL    HW129891   4.041   6.726   4.682 -0.3256 -0.5301 -0.1251
 9661SOL    HW229892   4.045   6.752   4.831 -1.0110 -0.5997 -0.0916
 9662SOL     OW29893   4.215   4.501   1.963  0.1074 -0.2912 -0.2719
 9662SOL    HW129894   4.124   4.471   1.974  0.1234  0.3023  1.7857
 9662SOL    HW229895   4.267   4.421   1.962 -0.4091 -0.6276 -1.2887
 9663SOL     OW29896   1.171   6.914   3.233 -0.1214 -0.0020  0.2038
 9663SOL    HW129897   1.152   6.841   3.292  0.4149 -0.6771 -0.4329
 9663SOL    HW229898   1.154   6.879   3.146  1.3410  0.2204 -0.2063
 9664SOL     OW29899   2.850   1.074   0.294  0.0363 -0.1348 -0.0589
 9664SOL    HW129900   2.909   1.020   0.346  0.3081 -0.1839 -0.4168
 9664SOL    HW229901   2.789   1.011   0.256  1.0177 -0.3313 -1.3618
 9665SOL     OW29902   2.954   3.668   2.922  0.2440 -0.1825  0.1916
 9665SOL    HW129903   2.908   3.667   2.838  0.3034 -1.6400  0.1445
 9665SOL    HW229904   2.898   3.720   2.979 -0.1820  0.1885 -0.5394
 9666SOL     OW29905   7.001   3.239   5.509 -0.6855  0.4216  0.0636
 9666SOL    HW129906   6.975   3.197   5.427 -1.3204 -2.2146  1.4788
 9666SOL    HW229907   6.918   3.263   5.551 -0.5478 -0.7725  1.0879
 9667SOL     OW29908   3.023   6.617   4.081  0.2848 -0.0358 -0.2852
 9667SOL    HW129909   2.944   6.631   4.029  1.5699 -1.1393 -2.7033
 9667SOL    HW229910   3.093   6.607   4.017  2.2842  0.0963  1.7360
 9668SOL     OW29911   6.466   1.170   6.445  0.4319  0.2336 -0.1629
 9668SOL    HW129912   6.550   1.216   6.451 -0.1785  1.4785 -0.9523
 9668SOL    HW229913   6.437   1.184   6.355  0.4342 -2.1223 -0.6049
 9669SOL     OW29914   6.097   7.638   1.515  0.0682 -0.3210  0.3104
 9669SOL    HW129915   6.151   7.607   1.587  1.1928 -0.4059 -0.5343
 9669SOL    HW229916   6.070   7.558   1.469 -0.8287 -0.2822  0.7401
 9670SOL     OW29917   5.408   7.696   1.272  0.0447  0.3469  0.2279
 9670SOL    HW129918   5.406   7.634   1.198 -1.8285  1.1131 -0.4105
 9670SOL    HW229919   5.490   7.745   1.259  0.0139  0.1113 -1.0531
 9671SOL     OW29920   6.913   4.470   4.859  0.0022 -0.1389 -0.3068
 9671SOL    HW129921   7.001   4.433   4.859 -0.3144 -0.9600  1.2728
 9671SOL    HW229922   6.905   4.514   4.943 -0.0646  2.5753 -1.6205
 9672SOL     OW29923   2.156   1.845   2.001 -0.1747 -0.7635  0.0983
 9672SOL    HW129924   2.225   1.784   2.027  0.7322  0.8312  1.6705
 9672SOL    HW229925   2.202   1.927   1.983 -1.4525 -0.2377 -0.9029
 9673SOL     OW29926   1.759   5.052   5.972  0.0396  0.2144 -0.2516
 9673SOL    HW129927   1.671   5.084   5.989 -0.7340 -1.8201 -0.0809
 9673SOL    HW229928   1.749   4.957   5.963  2.2205 -0.0866 -0.2199
 9674SOL     OW29929   0.411   1.167   5.156  0.1787  0.0505  0.3298
 9674SOL    HW129930   0.429   1.099   5.222 -0.1089  0.2990  0.6694
 9674SOL    HW229931   0.471   1.238   5.177  0.1646  0.0843  0.2555
 9675SOL     OW29932   0.754   2.178   1.818  0.1221  0.0974  0.0617
 9675SOL    HW129933   0.815   2.118   1.775  0.0830  0.3589 -0.3648
 9675SOL    HW229934   0.797   2.202   1.900 -0.3144 -1.3211  0.7288
 9676SOL     OW29935   4.419   0.581   2.072  0.0107  0.1876  0.0801
 9676SOL    HW129936   4.350   0.524   2.107  1.6845 -1.7305  0.4306
 9676SOL    HW229937   4.450   0.630   2.148  0.5167 -0.5921  0.3901
 9677SOL     OW29938   0.806   0.545   3.170  0.3132  0.0528  0.0412
 9677SOL    HW129939   0.716   0.576   3.166  0.7863  1.7793  1.6670
 9677SOL    HW229940   0.825   0.515   3.081 -1.5755  0.4275 -0.5266
 9678SOL     OW29941   3.390   5.242   6.232 -0.1048 -0.0338 -0.9739
 9678SOL    HW129942   3.429   5.177   6.291 -0.8142  0.2118 -0.2259
 9678SOL    HW229943   3.452   5.248   6.160  0.6276 -0.5688 -0.4065
 9679SOL     OW29944   3.645   2.661   2.478  0.2833  0.0836 -0.0907
 9679SOL    HW129945   3.649   2.633   2.386 -1.4705  0.6041 -0.3577
 9679SOL    HW229946   3.678   2.586   2.527  0.8598 -0.3603 -1.1099
 9680SOL     OW29947   0.359   7.108   5.581 -0.0497  0.1381 -0.1189
 9680SOL    HW129948   0.401   7.146   5.658  0.4842 -1.2922  0.3183
 9680SOL    HW229949   0.282   7.063   5.615 -1.2713  1.6444 -0.7641
 9681SOL     OW29950   6.765   1.684   0.586  0.3137 -0.0016  0.6044
 9681SOL    HW129951   6.685   1.631   0.583  1.4381 -1.8084 -1.9665
 9681SOL    HW229952   6.735   1.774   0.575 -1.4034 -0.8632 -3.9472
 9682SOL     OW29953   2.198   0.675   6.364 -0.0513  0.2463  0.0630
 9682SOL    HW129954   2.223   0.685   6.272  1.7343 -0.8283  0.3836
 9682SOL    HW229955   2.279   0.691   6.412 -0.7415 -0.1538  1.3923
 9683SOL     OW29956   3.839   3.565   6.601 -0.1554  0.9689 -0.4826
 9683SOL    HW129957   3.887   3.498   6.650 -2.5820 -0.4284  0.1243
 9683SOL    HW229958   3.840   3.534   6.510  1.0472  1.5769 -0.7016
 9684SOL     OW29959   6.688   3.631   5.906  0.1173 -0.4839  0.0506
 9684SOL    HW129960   6.648   3.692   5.969  0.4995  0.6533 -0.7899
 9684SOL    HW229961   6.701   3.551   5.957 -0.0956  0.2236  1.2799
 9685SOL     OW29962   3.721   3.804   5.801  0.1923 -0.5323  0.7930
 9685SOL    HW129963   3.669   3.860   5.743 -1.0765 -1.1519  1.2899
 9685SOL    HW229964   3.658   3.743   5.838  1.4322 -1.8737  0.7840
 9686SOL     OW29965   1.154   1.880   4.465 -0.2279 -0.0679 -0.4137
 9686SOL    HW129966   1.168   1.794   4.426 -0.2998  0.5583 -1.9012
 9686SOL    HW229967   1.067   1.875   4.505 -0.4684 -0.5099 -0.9813
 9687SOL     OW29968   1.289   5.165   1.748  0.4966 -0.6583 -0.2608
 9687SOL    HW129969   1.240   5.087   1.722 -0.2999  0.5725 -2.8226
 9687SOL    HW229970   1.276   5.171   1.843 -3.8063 -0.8547 -0.6373
 9688SOL     OW29971   3.984   1.340   3.270 -0.1856 -0.5750  0.4042
 9688SOL    HW129972   4.041   1.307   3.340  0.0074  0.8878  0.9731
 9688SOL    HW229973   3.952   1.261   3.226 -0.5972 -1.5431  2.3544
 9689SOL     OW29974   2.390   5.859   5.380 -0.2301  0.5029 -0.1823
 9689SOL    HW129975   2.314   5.809   5.352 -1.0231  2.1160 -1.0442
 9689SOL    HW229976   2.376   5.947   5.345  1.6425  1.0625  0.3230
 9690SOL     OW29977   6.163   6.209   5.093 -0.4186 -0.1707  0.0941
 9690SOL    HW129978   6.237   6.164   5.051  0.3980  1.1780  0.0390
 9690SOL    HW229979   6.180   6.201   5.187 -1.0993 -1.2925  0.1418
 9691SOL     OW29980   2.336   3.284   6.656  0.1056  0.2971 -0.3557
 9691SOL    HW129981   2.263   3.346   6.652  0.0622  0.3396  0.6569
 9691SOL    HW229982   2.297   3.200   6.632 -0.3646  0.2703  0.4330
 9692SOL     OW29983   1.588   1.706   6.002 -0.3493 -0.7463  0.2461
 9692SOL    HW129984   1.636   1.729   5.922 -0.0826  3.4438  1.3650
 9692SOL    HW229985   1.656   1.691   6.068 -0.5381 -0.6440  0.4673
 9693SOL     OW29986   1.495   7.501   3.850 -0.0792 -0.1677 -0.1632
 9693SOL    HW129987   1.485   7.488   3.944  0.8839  1.2213  0.1762
 9693SOL    HW229988   1.490   7.413   3.812 -2.4530 -0.5917  0.9358
 9694SOL     OW29989   3.276   7.380   2.849  0.3613 -0.4274  0.2172
 9694SOL    HW129990   3.331   7.316   2.895  3.3662  0.2975 -2.0478
 9694SOL    HW229991   3.222   7.327   2.790  2.1734 -1.0076 -0.9905
 9695SOL     OW29992   4.625   2.579   6.098  0.6313 -0.0014  0.0335
 9695SOL    HW129993   4.647   2.625   6.017  0.1121  0.8315  0.3571
 9695SOL    HW229994   4.532   2.561   6.091  0.0921  1.9759  1.3447
 9696SOL     OW29995   4.097   6.658   2.582  0.7280 -0.1792 -0.6720
 9696SOL    HW129996   4.149   6.657   2.502  2.4490  1.4349  0.3340
 9696SOL    HW229997   4.027   6.721   2.564 -0.0205 -1.2094 -1.5033
 9697SOL     OW29998   5.727   6.856   4.282 -0.4919  0.6276 -0.0801
 9697SOL    HW129999   5.685   6.932   4.241  1.2593  1.6225 -0.0957
 9697SOL    HW230000   5.666   6.831   4.352 -1.4556  1.5578 -0.5480
 9698SOL     OW30001   3.943   5.444   3.123  0.4218  0.2020 -0.0078
 9698SOL    HW130002   3.927   5.490   3.205  1.1851  1.2252 -0.4138
 9698SOL    HW230003   3.933   5.352   3.145  0.8968  0.4410  1.3016
 9699SOL     OW30004   1.086   5.363   0.023 -0.0379  0.1591 -0.2097
 9699SOL    HW130005   1.172   5.345  -0.016  0.0685 -0.2606  0.2195
 9699SOL    HW230006   1.063   5.283   0.070 -1.1766 -0.1612 -1.2536
 9700SOL     OW30007   5.153   7.274   4.240  0.5336  0.5871  0.7015
 9700SOL    HW130008   5.088   7.305   4.177  1.5179 -0.7826 -1.0880
 9700SOL    HW230009   5.103   7.221   4.303 -0.2103  0.2773 -0.1387
 9701SOL     OW30010   0.318   2.706   2.706 -0.3838 -1.1008 -0.6078
 9701SOL    HW130011   0.262   2.738   2.776 -0.3498 -0.6123 -0.8003
 9701SOL    HW230012   0.294   2.759   2.630 -0.1922 -1.4019 -0.8799
 9702SOL     OW30013   2.457   2.012   5.618 -0.4683 -0.0959  0.5069
 9702SOL    HW130014   2.482   1.921   5.606  0.5370  0.2447 -0.1473
 9702SOL    HW230015   2.507   2.041   5.695  2.4488  0.9657 -1.5844
 9703SOL     OW30016   6.899   7.046   1.930 -0.0370 -0.0625  0.6825
 9703SOL    HW130017   6.851   7.111   1.980  1.1016  0.6103  0.9512
 9703SOL    HW230018   6.877   7.064   1.838 -0.5044  0.0502  0.8171
 9704SOL     OW30019   2.793   5.296   3.192  0.7737 -0.0379 -0.4530
 9704SOL    HW130020   2.808   5.270   3.283  0.5541  0.7349 -0.1836
 9704SOL    HW230021   2.754   5.219   3.150 -0.1106 -0.0583  0.3745
 9705SOL     OW30022   0.856   6.274   3.784 -0.1466  0.5788 -0.2170
 9705SOL    HW130023   0.905   6.313   3.711 -0.1974  0.2643 -0.4228
 9705SOL    HW230024   0.886   6.183   3.787 -0.3848  0.5046 -0.0519
 9706SOL     OW30025   4.344   3.316   4.960  0.1262 -0.1620 -0.3374
 9706SOL    HW130026   4.276   3.297   4.895  0.5360  0.4161 -0.9577
 9706SOL    HW230027   4.398   3.384   4.918  1.0022 -0.5193  0.1921
 9707SOL     OW30028   4.011   4.688   4.125  0.0728  0.1928 -0.1067
 9707SOL    HW130029   3.991   4.601   4.089 -2.1014  2.0164 -3.9368
 9707SOL    HW230030   3.938   4.707   4.184 -0.4113  0.0722 -0.6530
 9708SOL     OW30031   0.540   4.919   0.758  0.9998 -0.0515  0.1276
 9708SOL    HW130032   0.611   4.872   0.800  0.4363 -1.1332 -0.0997
 9708SOL    HW230033   0.460   4.876   0.789  0.2151  2.7274  2.4472
 9709SOL     OW30034   6.520   1.358   5.680 -0.4445  0.1427 -0.2726
 9709SOL    HW130035   6.510   1.328   5.770 -0.8240  0.0246 -0.3497
 9709SOL    HW230036   6.614   1.373   5.669 -0.1670 -1.5116 -0.3875
 9710SOL     OW30037   1.950   3.098   5.094 -0.0943 -0.6473 -0.3854
 9710SOL    HW130038   1.919   3.048   5.170 -0.2986 -1.2133 -0.8315
 9710SOL    HW230039   1.942   3.037   5.020  0.2099 -0.1436 -0.8435
 9711SOL     OW30040   3.905   5.189   1.099  0.3514 -0.3249  0.5536
 9711SOL    HW130041   3.950   5.240   1.032  2.3836 -3.4245 -0.6550
 9711SOL    HW230042   3.943   5.219   1.182  1.6901 -0.0196 -0.1454
 9712SOL     OW30043   6.486   4.522   2.266 -0.1837  0.0349  0.1929
 9712SOL    HW130044   6.557   4.524   2.201 -0.1813  1.5719  0.2028
 9712SOL    HW230045   6.513   4.585   2.332 -0.2766 -1.3927  1.6349
 9713SOL     OW30046   5.551   2.401   7.285 -0.4987  0.5514 -0.0147
 9713SOL    HW130047   5.605   2.403   7.206 -1.7065 -0.7043 -0.9170
 9713SOL    HW230048   5.502   2.483   7.282 -0.3223  0.6467 -0.4165
 9714SOL     OW30049   5.620   1.652   3.623  0.1511  0.1069 -0.3903
 9714SOL    HW130050   5.577   1.580   3.669 -0.0978  0.9708  0.7470
 9714SOL    HW230051   5.553   1.686   3.564 -0.3993  0.7744  0.6155
 9715SOL     OW30052   3.169   1.621   3.992 -0.4731 -0.1685 -0.3538
 9715SOL    HW130053   3.196   1.615   3.901  1.3004 -0.4108  0.1555
 9715SOL    HW230054   3.221   1.555   4.037 -0.8042  0.4200  0.9480
 9716SOL     OW30055   6.175   2.697   6.209  0.0805  0.1431 -0.0395
 9716SOL    HW130056   6.237   2.631   6.179  0.3869  1.2428 -1.9607
 9716SOL    HW230057   6.120   2.651   6.273  1.0191 -1.6231 -0.4459
 9717SOL     OW30058   5.110   4.577   2.381  0.4797 -0.0849 -0.4235
 9717SOL    HW130059   5.183   4.519   2.402  0.6512  0.6118  1.0224
 9717SOL    HW230060   5.039   4.549   2.439  0.4813  0.9666  0.1053
 9718SOL     OW30061   4.251   1.955   0.629  0.4143  0.3754  0.3412
 9718SOL    HW130062   4.233   1.935   0.720 -2.9032 -2.3134 -0.6840
 9718SOL    HW230063   4.333   1.909   0.610  1.5493  1.5721  2.0225
 9719SOL     OW30064   4.462   5.595   6.410  0.0556  0.5717  0.1305
 9719SOL    HW130065   4.515   5.609   6.489  1.3617 -0.3670 -0.5465
 9719SOL    HW230066   4.376   5.566   6.444  1.6173 -3.4901  1.2964
 9720SOL     OW30067   7.217   6.988   1.970 -0.4305  0.0218  0.2211
 9720SOL    HW130068   7.184   7.001   2.059 -2.6103  0.5800 -0.5854
 9720SOL    HW230069   7.208   7.074   1.928 -1.0920 -0.6096 -1.0023
 9721SOL     OW30070   4.271   6.277   5.385 -0.5007  0.1710 -0.0918
 9721SOL    HW130071   4.227   6.294   5.301  0.7051  0.0965 -0.7684
 9721SOL    HW230072   4.364   6.281   5.364 -0.1623 -1.5674  0.8900
 9722SOL     OW30073   0.051   2.375   2.999 -0.1959  0.4412  0.3065
 9722SOL    HW130074   0.118   2.398   3.064  1.1437  0.2519 -0.9517
 9722SOL    HW230075   0.095   2.315   2.940 -1.3953  0.5927 -0.7803
 9723SOL     OW30076   5.088   7.092   5.656  0.3076 -0.1138  0.4807
 9723SOL    HW130077   5.092   7.014   5.599  0.0741 -1.0571  1.7193
 9723SOL    HW230078   4.995   7.104   5.673  0.4339 -0.3843  1.3831
 9724SOL     OW30079   5.260   3.409   5.523 -0.3322 -0.0261 -0.1237
 9724SOL    HW130080   5.193   3.453   5.575 -0.3595  0.7261 -0.7787
 9724SOL    HW230081   5.342   3.451   5.548 -0.4836  1.2442 -1.5640
 9725SOL     OW30082   0.692   0.838   3.553  0.5671  0.3630  0.3817
 9725SOL    HW130083   0.609   0.876   3.523  0.3819 -0.6471 -0.4395
 9725SOL    HW230084   0.669   0.793   3.634  0.0913 -0.7127 -0.3314
 9726SOL     OW30085   5.404   6.863   2.747 -0.0502 -0.2813  0.3728
 9726SOL    HW130086   5.421   6.770   2.761 -3.0816 -0.9510  0.3021
 9726SOL    HW230087   5.348   6.866   2.669  0.8943  1.7430 -0.3199
 9727SOL     OW30088   6.478   0.972   0.512 -0.3128 -0.5052  0.0551
 9727SOL    HW130089   6.570   0.947   0.503  0.0222  0.6169  0.1650
 9727SOL    HW230090   6.454   1.006   0.425 -0.2644  0.2809  0.3354
 9728SOL     OW30091   0.649   5.567   5.958  0.2804  0.2573  0.7463
 9728SOL    HW130092   0.744   5.576   5.946  0.3012 -0.0032  0.7020
 9728SOL    HW230093   0.625   5.636   6.019  0.2663  1.2523 -0.3587
 9729SOL     OW30094   1.084   6.068   2.321  0.6461 -0.1343 -0.1521
 9729SOL    HW130095   1.106   5.992   2.266 -0.9651 -0.5318 -0.3060
 9729SOL    HW230096   0.996   6.049   2.354 -0.1176  1.9908 -0.7917
 9730SOL     OW30097   6.811   4.019   5.844  0.3554 -0.2567  0.0686
 9730SOL    HW130098   6.857   4.103   5.852  0.9782 -0.6794  1.1619
 9730SOL    HW230099   6.729   4.041   5.801 -0.7654  1.4167  2.8101
 9731SOL     OW30100   7.456   7.142   5.168 -0.4784  0.1865  0.1055
 9731SOL    HW130101   7.385   7.173   5.112 -1.1205  0.5042  1.0767
 9731SOL    HW230102   7.497   7.221   5.202 -1.6055  0.0397  1.9423
 9732SOL     OW30103   0.541   0.321   5.514 -0.2743  0.1347  0.0477
 9732SOL    HW130104   0.461   0.374   5.515 -0.4908 -0.1908  0.9970
 9732SOL    HW230105   0.567   0.315   5.606  1.9980  1.9410 -0.4021
 9733SOL     OW30106   2.988   0.316   3.282  0.3666 -0.1584 -0.0739
 9733SOL    HW130107   3.075   0.292   3.312  1.1432  1.9453 -0.4173
 9733SOL    HW230108   2.939   0.336   3.362  0.8868  0.6949  0.0425
 9734SOL     OW30109   4.745   4.695   3.535 -0.0648  0.1738 -0.6140
 9734SOL    HW130110   4.717   4.782   3.562  2.0177  0.5104  0.7242
 9734SOL    HW230111   4.726   4.639   3.610  0.3300 -0.1215 -0.7308
 9735SOL     OW30112   3.837   1.795   4.115 -0.6658 -0.0982  0.2482
 9735SOL    HW130113   3.768   1.732   4.134 -3.2440  2.3213 -0.2851
 9735SOL    HW230114   3.832   1.858   4.187 -0.3168  1.1218 -0.7585
 9736SOL     OW30115   0.866   7.003   1.721  0.4227 -0.4089 -0.3227
 9736SOL    HW130116   0.920   7.080   1.737  0.1173 -0.4594  1.0219
 9736SOL    HW230117   0.846   7.007   1.627 -0.3102  1.6265 -0.1256
 9737SOL     OW30118   6.870   6.996   0.890  0.1171  0.4843  0.0479
 9737SOL    HW130119   6.855   6.902   0.893 -1.5818  0.7359  0.1128
 9737SOL    HW230120   6.910   7.012   0.804  0.0864 -0.2415 -0.1053
 9738SOL     OW30121   6.693   6.151   6.191  0.0345 -0.1221 -0.4526
 9738SOL    HW130122   6.638   6.183   6.119 -0.5588  0.2725  0.1651
 9738SOL    HW230123   6.695   6.056   6.179  0.2503 -0.0258 -1.2081
 9739SOL     OW30124   3.813   5.546   1.221 -0.1358 -0.3526 -0.6064
 9739SOL    HW130125   3.757   5.617   1.252 -0.5116  0.1042 -2.2471
 9739SOL    HW230126   3.892   5.590   1.191  0.1013 -0.7493 -0.5610
 9740SOL     OW30127   6.705   4.281   5.274  0.7885 -0.1225 -0.0895
 9740SOL    HW130128   6.641   4.318   5.334  1.3185 -0.3370  0.6237
 9740SOL    HW230129   6.760   4.355   5.249  0.6388 -0.0553 -0.2196
 9741SOL     OW30130   7.069   5.936   2.224  0.0551 -0.1216  0.0441
 9741SOL    HW130131   6.986   5.976   2.249 -0.0770 -0.1440 -0.3531
 9741SOL    HW230132   7.124   6.009   2.198  0.0923 -0.1237  0.1180
 9742SOL     OW30133   5.456   6.160   3.715  0.4765 -0.2188 -0.2319
 9742SOL    HW130134   5.530   6.115   3.755  1.9135 -0.2560 -2.7261
 9742SOL    HW230135   5.478   6.165   3.622 -0.6755  3.5876 -0.4613
 9743SOL     OW30136   5.610   5.019   0.518  0.4587  0.7789  0.2073
 9743SOL    HW130137   5.529   4.989   0.476  0.9605 -0.9104  0.3927
 9743SOL    HW230138   5.675   5.018   0.448  1.2585 -1.8855  0.8864
 9744SOL     OW30139   3.423   2.870   4.227 -0.4048  0.1554 -0.2293
 9744SOL    HW130140   3.350   2.932   4.223 -0.2925  0.3272  0.2590
 9744SOL    HW230141   3.403   2.814   4.302  0.5633  0.9878  0.6911
 9745SOL     OW30142   0.037   0.100   5.503 -0.3521 -0.1580  0.3600
 9745SOL    HW130143   0.092   0.151   5.443 -0.4636  0.9303  1.1617
 9745SOL    HW230144  -0.052   0.127   5.483 -0.4890 -0.7897  0.1070
 9746SOL     OW30145   4.828   2.383   6.484 -0.6654  0.9900 -0.3199
 9746SOL    HW130146   4.917   2.415   6.495 -0.9103  1.1154  1.7170
 9746SOL    HW230147   4.831   2.327   6.406  1.2773  0.6818 -0.0603
 9747SOL     OW30148   1.485   5.259   1.108  0.1006 -0.0716 -0.0614
 9747SOL    HW130149   1.433   5.294   1.035  1.1439 -0.0393 -0.8159
 9747SOL    HW230150   1.532   5.184   1.069  0.5894 -0.1183  0.6044
 9748SOL     OW30151   2.801   2.570   5.349  0.3866  0.7586 -0.1968
 9748SOL    HW130152   2.719   2.531   5.378  0.8661  0.4441  0.7820
 9748SOL    HW230153   2.826   2.521   5.272 -0.6650  1.2752 -0.8867
 9749SOL     OW30154   0.592   5.002   5.968  0.7790  0.3545  0.5346
 9749SOL    HW130155   0.586   5.098   5.971 -0.8992  0.3060 -0.2044
 9749SOL    HW230156   0.580   4.974   6.059 -0.4177  0.8005  0.5334
 9750SOL     OW30157   4.388   3.949   3.881  0.0461 -0.4204 -0.1521
 9750SOL    HW130158   4.380   4.044   3.892 -1.9777 -0.6386  0.6981
 9750SOL    HW230159   4.476   3.928   3.911  0.6310  1.2046 -0.6278
 9751SOL     OW30160   6.898   6.489   4.332  0.5334  0.0459  0.4413
 9751SOL    HW130161   6.815   6.531   4.308 -0.6476 -1.2291  2.0144
 9751SOL    HW230162   6.958   6.561   4.347  0.1974  0.9732 -2.2043
 9752SOL     OW30163   6.837   5.190   5.649 -0.2288 -0.6889 -0.1037
 9752SOL    HW130164   6.814   5.222   5.561  3.1841 -1.7426 -1.5575
 9752SOL    HW230165   6.813   5.262   5.707 -3.1181 -0.1614 -1.7285
 9753SOL     OW30166   1.708   7.184   2.611 -0.2584  0.2096  0.0557
 9753SOL    HW130167   1.729   7.209   2.700 -1.6968 -0.0475  0.5024
 9753SOL    HW230168   1.785   7.208   2.560  1.3308 -1.2149  1.6175
 9754SOL     OW30169   4.789   4.771   1.025 -0.0593 -0.1309 -0.1232
 9754SOL    HW130170   4.864   4.819   0.991  0.0210  0.4927  0.8797
 9754SOL    HW230171   4.779   4.803   1.115 -3.3632  2.0896 -1.0712
 9755SOL     OW30172   5.278   6.734   5.185  0.4095 -0.1742  0.7963
 9755SOL    HW130173   5.328   6.662   5.145 -1.5083 -0.2736 -1.6262
 9755SOL    HW230174   5.188   6.721   5.155 -0.3578  2.1902  1.8321
 9756SOL     OW30175   5.904   3.463   5.273  0.3616 -0.2107 -0.3319
 9756SOL    HW130176   5.926   3.381   5.230  0.9217  0.2791 -1.0182
 9756SOL    HW230177   5.961   3.466   5.350  0.2494 -0.5192 -0.2353
 9757SOL     OW30178   6.334   5.658   6.015 -0.0845 -0.4229 -0.3721
 9757SOL    HW130179   6.385   5.659   5.934 -1.6718  0.1638 -1.4103
 9757SOL    HW230180   6.368   5.732   6.065  0.4035 -0.3223 -0.8359
 9758SOL     OW30181   2.059   1.132   2.714  0.5561  0.0365  0.0837
 9758SOL    HW130182   1.993   1.105   2.777  0.2355  2.9224  1.1393
 9758SOL    HW230183   2.105   1.204   2.757  0.8813  1.5744 -2.6215
 9759SOL     OW30184   3.552   0.847   4.691  0.3734 -0.4634  0.1762
 9759SOL    HW130185   3.567   0.906   4.617  1.9034  1.2469  1.7532
 9759SOL    HW230186   3.475   0.884   4.735  0.4988 -0.4690  0.3982
 9760SOL     OW30187   2.736   4.895   7.176 -1.0142  0.1352 -0.2572
 9760SOL    HW130188   2.806   4.958   7.155 -0.7416 -0.5710 -1.5831
 9760SOL    HW230189   2.658   4.931   7.133 -1.4526  0.7994  1.0256
 9761SOL     OW30190   6.432   5.198   6.785  0.2262  0.2700 -0.4600
 9761SOL    HW130191   6.482   5.259   6.840 -0.4989 -0.0210  0.5681
 9761SOL    HW230192   6.347   5.191   6.830  0.3040 -1.5171 -0.5449
 9762SOL     OW30193   0.157   5.802   5.299  0.4046 -0.4589  0.4298
 9762SOL    HW130194   0.127   5.797   5.208  0.4303 -0.3171  0.4132
 9762SOL    HW230195   0.207   5.884   5.303  1.1458 -0.9019  0.3536
 9763SOL     OW30196   5.253   6.943   6.484 -0.3859  0.1962  0.0887
 9763SOL    HW130197   5.300   6.958   6.402 -0.2237 -2.2011 -0.3222
 9763SOL    HW230198   5.161   6.957   6.461 -0.2048  1.1626 -0.0688
 9764SOL     OW30199   5.576   2.162   0.645  0.3230  0.5047  0.2789
 9764SOL    HW130200   5.627   2.099   0.594  0.9454 -0.4926  2.0557
 9764SOL    HW230201   5.637   2.233   0.663  0.6356  0.0481  1.0674
 9765SOL     OW30202   1.967   7.429   3.327 -0.2955 -0.8977 -0.2500
 9765SOL    HW130203   1.922   7.513   3.327  4.2252  1.8721  0.6424
 9765SOL    HW230204   1.968   7.403   3.420 -0.7997 -1.4470 -0.3921
 9766SOL     OW30205   7.682   1.886   5.673  0.3412 -0.5405 -0.5169
 9766SOL    HW130206   7.700   1.866   5.581  1.4074 -2.5512  0.0650
 9766SOL    HW230207   7.768   1.889   5.714 -0.0535  1.4109  0.2598
 9767SOL     OW30208   2.109   0.917   5.840  0.0454  0.1013  0.0207
 9767SOL    HW130209   2.088   0.830   5.808  1.0264 -0.1521  0.0127
 9767SOL    HW230210   2.149   0.961   5.765  1.5804 -0.2097  0.6173
 9768SOL     OW30211   5.949   1.910   4.202  0.3683 -0.1477 -0.2672
 9768SOL    HW130212   5.981   1.843   4.141 -2.3331 -0.7541 -1.1497
 9768SOL    HW230213   5.993   1.990   4.175  2.8046 -1.2493  0.0814
 9769SOL     OW30214   4.735   0.975   6.224  0.3326 -0.1698  0.0876
 9769SOL    HW130215   4.787   1.024   6.161 -1.5791  1.0479 -0.6250
 9769SOL    HW230216   4.755   1.015   6.309  0.8315  0.0302 -0.1255
 9770SOL     OW30217   7.312   1.967   4.885  0.3320  0.3900  0.2449
 9770SOL    HW130218   7.234   1.930   4.842  0.5950  2.2967 -2.0563
 9770SOL    HW230219   7.281   2.048   4.924  1.0314  0.8723 -0.1924
 9771SOL     OW30220   1.325   5.535   5.093  0.6231 -0.1663  0.4468
 9771SOL    HW130221   1.404   5.580   5.124  0.1316 -0.8864  3.0098
 9771SOL    HW230222   1.340   5.443   5.115 -1.1455 -0.2303  1.5780
 9772SOL     OW30223   0.520   7.620   1.047  0.5485 -0.0775  0.0166
 9772SOL    HW130224   0.457   7.561   1.089  0.7045  0.8279  1.5879
 9772SOL    HW230225   0.466   7.686   1.004  0.3632 -1.4198 -1.9618
 9773SOL     OW30226   6.667   1.184   4.452 -0.4108  0.5983 -0.3431
 9773SOL    HW130227   6.613   1.193   4.373 -1.1571 -3.2265 -0.4210
 9773SOL    HW230228   6.720   1.106   4.437  0.3579  0.4646  2.4372
 9774SOL     OW30229   5.502   1.609   1.745  0.4294 -0.2578 -0.9525
 9774SOL    HW130230   5.519   1.697   1.712  3.6526  0.4193  1.8823
 9774SOL    HW230231   5.425   1.618   1.801 -0.2781  0.3359 -2.0041
 9775SOL     OW30232   7.142   1.888   4.104  0.1510 -0.0922 -0.4463
 9775SOL    HW130233   7.191   1.920   4.179  0.4005  0.6717 -0.9223
 9775SOL    HW230234   7.081   1.958   4.082 -2.1308 -1.5195  0.9112
 9776SOL     OW30235   4.807   1.509   5.696  0.3180  0.0308 -0.3911
 9776SOL    HW130236   4.852   1.528   5.778 -4.4025  1.0883  2.2733
 9776SOL    HW230237   4.855   1.435   5.660  5.1957  2.1185  0.9452
 9777SOL     OW30238   1.468   3.648   3.299  0.2204 -0.6305  0.4434
 9777SOL    HW130239   1.540   3.620   3.354  1.9643  2.1637 -0.1935
 9777SOL    HW230240   1.506   3.714   3.241 -2.4932 -0.2297 -1.0788
 9778SOL     OW30241   6.192   6.758   1.760 -0.0853  0.0485 -0.5256
 9778SOL    HW130242   6.250   6.834   1.754 -1.1810  0.8892 -0.7869
 9778SOL    HW230243   6.220   6.712   1.839  0.1787  1.0811 -0.0058
 9779SOL     OW30244   2.802   4.505   6.596  0.6870 -0.0607 -0.8394
 9779SOL    HW130245   2.818   4.414   6.570  3.5533  0.3373 -0.8064
 9779SOL    HW230246   2.726   4.532   6.544  0.7782 -1.9786 -2.0618
 9780SOL     OW30247   2.134   3.602   1.048 -0.7008 -0.0288  0.5085
 9780SOL    HW130248   2.145   3.525   1.104  1.1000 -0.1494  0.0489
 9780SOL    HW230249   2.051   3.586   1.003 -0.3702 -1.7394  0.4212
 9781SOL     OW30250   7.634   6.009   0.537 -0.0061  0.7753  0.2000
 9781SOL    HW130251   7.680   6.088   0.507  0.9618  0.1940  0.1174
 9781SOL    HW230252   7.644   6.009   0.632 -0.6071  1.1024  0.2725
 9782SOL     OW30253   2.462   4.647   5.463  0.4451 -0.1633  0.0073
 9782SOL    HW130254   2.409   4.615   5.535  2.0962 -1.4356  0.7104
 9782SOL    HW230255   2.452   4.742   5.466  0.4546 -0.1970  1.9122
 9783SOL     OW30256   6.432   6.845   0.902  0.2864 -0.1734 -0.0628
 9783SOL    HW130257   6.364   6.801   0.953 -0.4328 -0.3556 -1.1586
 9783SOL    HW230258   6.479   6.899   0.966 -1.4258  0.6205  0.5586
 9784SOL     OW30259   3.820   7.470   7.424 -0.3069  0.3273  0.1398
 9784SOL    HW130260   3.755   7.474   7.354  0.2922  0.3225 -0.4146
 9784SOL    HW230261   3.891   7.417   7.388  0.8522  1.8746  0.0563
 9785SOL     OW30262   3.034   5.867   0.105 -0.2557 -0.2230  0.4587
 9785SOL    HW130263   2.961   5.857   0.044 -0.5405  2.1575  0.3255
 9785SOL    HW230264   3.091   5.793   0.086 -1.9392 -1.3690 -0.3916
 9786SOL     OW30265   1.311   5.360   7.414  0.3575 -0.0589  0.0593
 9786SOL    HW130266   1.216   5.356   7.402  0.3995 -1.8810 -0.0387
 9786SOL    HW230267   1.324   5.335   7.506  0.7499  0.2375  0.0867
 9787SOL     OW30268   6.540   5.754   1.781 -0.4713 -0.4320  0.2422
 9787SOL    HW130269   6.613   5.714   1.828 -0.5282 -2.2739 -1.1506
 9787SOL    HW230270   6.541   5.846   1.810  1.5304 -0.7204  1.2848
 9788SOL     OW30271   1.632   6.302   6.044 -0.3280 -0.0879  0.2654
 9788SOL    HW130272   1.565   6.264   5.988  0.5697 -0.0891 -0.8600
 9788SOL    HW230273   1.636   6.245   6.120 -0.3259 -1.1546 -0.5106
 9789SOL     OW30274   2.778   4.865   5.045  0.1660 -0.4931 -0.5894
 9789SOL    HW130275   2.744   4.777   5.028 -1.3516 -0.0857  0.1310
 9789SOL    HW230276   2.741   4.889   5.131  0.7461  0.7434 -0.6615
 9790SOL     OW30277   4.809   1.282   6.993 -0.5036 -0.3238 -0.0020
 9790SOL    HW130278   4.826   1.302   7.085 -1.1321 -1.7275  0.4503
 9790SOL    HW230279   4.858   1.202   6.977 -0.4428 -0.1181 -0.8838
 9791SOL     OW30280   5.767   2.488   1.345  0.0342  0.0906 -0.0518
 9791SOL    HW130281   5.831   2.436   1.394 -0.3975  0.2464  0.7007
 9791SOL    HW230282   5.704   2.424   1.312 -1.2263  0.1819  1.9618
 9792SOL     OW30283   6.188   7.710   4.402  0.0274  0.4126  0.2470
 9792SOL    HW130284   6.242   7.717   4.323 -0.6460 -1.5667 -0.4578
 9792SOL    HW230285   6.136   7.630   4.388 -1.6111  1.1418  1.7892
 9793SOL     OW30286   3.983   0.652   4.553  0.3195  0.2988  0.4041
 9793SOL    HW130287   3.971   0.746   4.537 -1.6790  0.1935  0.9152
 9793SOL    HW230288   3.922   0.609   4.493 -1.7596 -0.4157  2.7996
 9794SOL     OW30289   4.183   3.072   0.428 -0.0305  0.2099 -0.2269
 9794SOL    HW130290   4.167   2.985   0.391 -3.6785 -0.2330  1.9222
 9794SOL    HW230291   4.274   3.069   0.458  0.6112 -2.0336 -2.1275
 9795SOL     OW30292   6.316   7.301   3.522 -0.8185  0.1271  0.3981
 9795SOL    HW130293   6.232   7.279   3.482 -0.9094 -0.3927  0.8692
 9795SOL    HW230294   6.320   7.396   3.519 -1.5119  0.1631  0.5623
 9796SOL     OW30295   5.348   0.972   0.528  0.5776  0.1769  0.1075
 9796SOL    HW130296   5.313   1.038   0.468 -0.7783 -0.3882  0.2435
 9796SOL    HW230297   5.442   0.972   0.511  0.4019  1.0333 -1.0054
 9797SOL     OW30298   6.152   5.034   7.019  0.1912 -0.1200 -0.1230
 9797SOL    HW130299   6.222   5.098   7.024  0.0411  0.0424 -0.0864
 9797SOL    HW230300   6.100   5.060   6.943 -0.6245  0.5795  0.6414
 9798SOL     OW30301   5.785   1.716   7.003 -0.2295 -0.5498 -0.1268
 9798SOL    HW130302   5.838   1.730   7.082 -0.7543  0.2331  0.0958
 9798SOL    HW230303   5.845   1.733   6.930 -0.4764  1.6115  0.1239
 9799SOL     OW30304   5.943   1.254   4.663  0.1636 -0.6369  0.0534
 9799SOL    HW130305   5.899   1.330   4.702 -0.3839 -0.0664 -1.5789
 9799SOL    HW230306   5.902   1.179   4.705  0.3448 -0.0551  1.3213
 9800SOL     OW30307   4.899   6.250   0.253  0.1896  0.8222 -0.2703
 9800SOL    HW130308   4.826   6.300   0.290 -0.4840 -1.7051  2.1965
 9800SOL    HW230309   4.966   6.253   0.321 -0.3087 -2.3768  0.5249
 9801SOL     OW30310   7.204   6.128   7.289 -0.2401 -0.1801  0.1852
 9801SOL    HW130311   7.271   6.161   7.348 -0.1928 -1.7688  1.0944
 9801SOL    HW230312   7.213   6.032   7.294 -0.2628 -0.4010 -2.3719
 9802SOL     OW30313   7.379   5.429   2.199  0.2074 -0.3074 -0.0221
 9802SOL    HW130314   7.357   5.400   2.111  0.0073 -0.0432 -0.0617
 9802SOL    HW230315   7.360   5.523   2.198  2.7095  0.2668 -0.4979
 9803SOL     OW30316   6.529   6.438   1.897  0.3823  0.2140  0.5586
 9803SOL    HW130317   6.578   6.519   1.909 -1.3678  1.2975  0.8648
 9803SOL    HW230318   6.587   6.369   1.929  1.1887  1.5485  2.1368
 9804SOL     OW30319   2.337   0.896   1.455 -0.0731 -0.1529 -0.0573
 9804SOL    HW130320   2.345   0.899   1.550 -0.8280 -0.5112  0.0245
 9804SOL    HW230321   2.268   0.831   1.438  0.1904 -0.2418 -0.8523
 9805SOL     OW30322   4.152   3.215   3.332  0.2130  0.4119 -0.4394
 9805SOL    HW130323   4.212   3.253   3.267  1.8159  0.1536  0.8339
 9805SOL    HW230324   4.167   3.267   3.411  0.3796 -1.0699  0.5280
 9806SOL     OW30325   5.839   3.603   2.281  0.0672  0.4706 -0.5017
 9806SOL    HW130326   5.824   3.549   2.359  0.7047  0.8031 -0.1434
 9806SOL    HW230327   5.809   3.549   2.209 -4.1916  1.5278  0.1924
 9807SOL     OW30328   2.232   0.026   2.189 -0.0458 -0.4281 -0.3581
 9807SOL    HW130329   2.253   0.094   2.253 -0.3809 -0.5637 -0.1057
 9807SOL    HW230330   2.141   0.003   2.206  0.7111 -2.6724  1.1780
 9808SOL     OW30331   5.111   5.827   2.608  0.5415 -0.5988 -0.1839
 9808SOL    HW130332   5.049   5.817   2.680 -0.2484 -0.2037 -0.7925
 9808SOL    HW230333   5.060   5.867   2.538  1.9809  1.7073 -0.0088
 9809SOL     OW30334   2.496   1.176   3.187  0.2055 -0.0051 -0.3453
 9809SOL    HW130335   2.468   1.233   3.260 -0.1111 -1.0639  0.3848
 9809SOL    HW230336   2.425   1.112   3.179  0.3290 -0.0141 -1.4811
 9810SOL     OW30337   1.045   5.756   5.291  0.0017  0.0422  0.3510
 9810SOL    HW130338   1.031   5.823   5.358  0.1379  1.0803 -0.6307
 9810SOL    HW230339   1.044   5.804   5.208  0.6345 -1.0951 -0.3445
 9811SOL     OW30340   4.856   3.460   0.169  0.6558  0.0093 -0.2296
 9811SOL    HW130341   4.876   3.532   0.109  0.8674  3.0828  3.1727
 9811SOL    HW230342   4.769   3.430   0.141  0.8573  1.0834 -2.2121
 9812SOL     OW30343   2.471   7.155   7.500 -0.3372 -0.1308  0.2362
 9812SOL    HW130344   2.479   7.062   7.480 -1.6871  0.2310 -2.4877
 9812SOL    HW230345   2.377   7.172   7.497 -0.1338  1.2877  0.9502
 9813SOL     OW30346   7.688   4.236   4.705 -0.1207 -0.2431  0.5041
 9813SOL    HW130347   7.672   4.184   4.784  0.0139  0.2158  0.8379
 9813SOL    HW230348   7.768   4.285   4.725  0.1320 -0.4188 -0.0704
 9814SOL     OW30349   3.111   2.169   4.920 -0.3161 -0.5217 -1.1688
 9814SOL    HW130350   3.121   2.074   4.916  0.0359 -0.5116 -0.5938
 9814SOL    HW230351   3.123   2.198   4.829 -1.5253 -1.1206 -1.5407
 9815SOL     OW30352   6.753   7.565   2.028  0.0260  0.0841  0.0069
 9815SOL    HW130353   6.710   7.575   1.943 -0.2715  2.5490  0.3715
 9815SOL    HW230354   6.685   7.529   2.085 -0.3841  0.2891 -0.3440
 9816SOL     OW30355   5.520   3.552   2.046 -0.2421  0.1000 -0.0367
 9816SOL    HW130356   5.577   3.628   2.051  1.9436 -1.5169  1.1095
 9816SOL    HW230357   5.505   3.539   1.952  1.5296  0.4116 -0.3830
 9817SOL     OW30358   3.870   2.778   0.539 -0.3798  0.4484 -0.5008
 9817SOL    HW130359   3.915   2.714   0.483  2.2308 -1.1380  2.9547
 9817SOL    HW230360   3.778   2.753   0.534  0.1864 -1.7750 -1.4830
 9818SOL     OW30361   1.551   5.764   2.145 -1.0836 -0.0596  0.6565
 9818SOL    HW130362   1.495   5.700   2.101  0.0036  0.1026 -1.0826
 9818SOL    HW230363   1.638   5.723   2.144 -0.4767  1.1960 -0.0148
 9819SOL     OW30364   5.145   7.722   1.480 -0.0484 -0.2711 -0.7681
 9819SOL    HW130365   5.126   7.796   1.422 -0.3776 -0.6153 -1.1052
 9819SOL    HW230366   5.149   7.647   1.422 -0.6301 -0.6604 -0.3197
 9820SOL     OW30367   6.764   6.853   6.410  0.2209  0.1807 -0.3133
 9820SOL    HW130368   6.781   6.947   6.420  1.0009  0.0672 -0.5071
 9820SOL    HW230369   6.836   6.811   6.458  0.3322 -0.3244 -0.9138
 9821SOL     OW30370   2.915   0.040   0.787  0.6435 -0.0652  0.0674
 9821SOL    HW130371   2.834  -0.009   0.780  0.8718 -0.5570  0.7895
 9821SOL    HW230372   2.968   0.009   0.714  1.1692 -1.6482  1.0651
 9822SOL     OW30373   6.662   4.466   2.015 -0.1033 -0.1889  0.1083
 9822SOL    HW130374   6.620   4.447   1.931 -0.6838 -0.3144  0.4170
 9822SOL    HW230375   6.713   4.388   2.035  1.6972  0.6170 -1.0886
 9823SOL     OW30376   7.396   2.971   5.498  0.2024 -0.0555  0.2677
 9823SOL    HW130377   7.333   2.968   5.426  1.1132 -0.6426 -0.5224
 9823SOL    HW230378   7.431   2.882   5.503 -0.1930 -0.1503  1.7597
 9824SOL     OW30379   2.344   0.163   3.434  0.7295  0.2028 -0.2281
 9824SOL    HW130380   2.297   0.104   3.493 -2.0879  1.2710 -1.2071
 9824SOL    HW230381   2.291   0.243   3.433  1.3236  0.6778 -3.2347
 9825SOL     OW30382   5.841   6.812   0.937 -0.0886 -0.0292 -0.9672
 9825SOL    HW130383   5.761   6.775   0.900 -1.8569  0.6412  1.9098
 9825SOL    HW230384   5.860   6.887   0.881 -1.9128  0.2348 -1.2985
 9826SOL     OW30385   3.137   3.257   3.122  0.2963 -0.0807 -0.3526
 9826SOL    HW130386   3.114   3.324   3.058  0.4898  1.2975  0.9448
 9826SOL    HW230387   3.227   3.233   3.102 -0.2405 -1.0536 -1.7232
 9827SOL     OW30388   1.063   5.339   4.299 -0.0872 -0.3618 -0.1837
 9827SOL    HW130389   0.971   5.315   4.288 -0.3709 -1.4080  3.3757
 9827SOL    HW230390   1.061   5.433   4.314 -0.4115 -0.1980 -1.1522
 9828SOL     OW30391   6.107   4.810   4.738  0.9913 -0.1439  0.0560
 9828SOL    HW130392   6.172   4.877   4.758  0.3841 -0.0413  1.8782
 9828SOL    HW230393   6.156   4.742   4.693  1.9708  0.7634 -0.2833
 9829SOL     OW30394   5.626   3.414   7.088  0.8406 -0.1391  0.0376
 9829SOL    HW130395   5.617   3.329   7.044  2.0939 -0.0638 -0.4069
 9829SOL    HW230396   5.708   3.408   7.136  0.4338  0.4756  0.8261
 9830SOL     OW30397   4.398   6.718   3.197 -0.2148  0.4929 -0.1127
 9830SOL    HW130398   4.318   6.671   3.177 -0.1014  0.2118  0.0929
 9830SOL    HW230399   4.456   6.700   3.123 -0.1881  0.3492 -0.0564
 9831SOL     OW30400   2.840   2.171   5.628 -0.1632  0.4374  0.1646
 9831SOL    HW130401   2.861   2.171   5.534 -0.6972  1.2268  0.0349
 9831SOL    HW230402   2.910   2.221   5.668  1.2371 -1.6724  0.4945
 9832SOL     OW30403   4.028   4.834   6.661  0.0369 -0.0094  0.2696
 9832SOL    HW130404   4.054   4.801   6.747  0.7102  1.4459  0.6439
 9832SOL    HW230405   3.940   4.868   6.673 -0.1794 -0.5200  0.1755
 9833SOL     OW30406   7.004   2.444   4.022  0.3213  0.2401  0.0636
 9833SOL    HW130407   6.951   2.382   4.072  0.3990  0.7999  0.8591
 9833SOL    HW230408   7.048   2.390   3.956 -0.7586 -0.3229 -0.2253
 9834SOL     OW30409   7.258   1.116   5.228  0.2258  0.2808  0.1710
 9834SOL    HW130410   7.204   1.043   5.257 -1.2249  1.8883  1.7724
 9834SOL    HW230411   7.252   1.115   5.133 -0.5268 -1.1089  0.2115
 9835SOL     OW30412   3.367   2.988   1.460  0.0274 -0.0139 -0.1692
 9835SOL    HW130413   3.438   3.022   1.515  1.8352 -0.1563 -2.2718
 9835SOL    HW230414   3.336   2.911   1.507  0.4097  0.7335  1.3906
 9836SOL     OW30415   0.361   0.587   7.267  0.3175  0.1802  0.5699
 9836SOL    HW130416   0.415   0.574   7.345 -1.0978 -0.4546  1.4830
 9836SOL    HW230417   0.402   0.660   7.221  1.7968 -0.1275  1.3477
 9837SOL     OW30418   4.342   4.476   6.187  0.3062 -0.6084 -0.5899
 9837SOL    HW130419   4.292   4.395   6.189 -3.6788  1.5921 -0.3826
 9837SOL    HW230420   4.322   4.514   6.101  2.8151 -0.1613 -1.0554
 9838SOL     OW30421   7.727   3.205   1.498  0.5846 -0.3158 -0.0807
 9838SOL    HW130422   7.812   3.183   1.537  1.2474  1.4631 -0.4558
 9838SOL    HW230423   7.666   3.201   1.571  1.7732  2.7535  1.2363
 9839SOL     OW30424   1.345   6.771   0.383 -0.5407  0.3780  0.1956
 9839SOL    HW130425   1.251   6.782   0.397 -0.6497 -1.7415  1.6376
 9839SOL    HW230426   1.352   6.683   0.344  0.8246  0.7043 -0.3319
 9840SOL     OW30427   0.861   0.321   0.605  0.4596  0.1007  0.2520
 9840SOL    HW130428   0.911   0.255   0.558  1.1373 -0.2760  1.4477
 9840SOL    HW230429   0.924   0.359   0.666 -0.4395  0.3938  1.0238
 9841SOL     OW30430   1.271   5.604   0.536 -0.0701 -0.3659  0.3837
 9841SOL    HW130431   1.292   5.525   0.487 -0.9101  0.4364 -1.3553
 9841SOL    HW230432   1.213   5.574   0.606  0.7729 -1.4821  0.6154
 9842SOL     OW30433   5.581   5.409   2.946  0.1646 -0.6848 -0.2179
 9842SOL    HW130434   5.524   5.399   2.870 -0.6080  0.7547  0.1315
 9842SOL    HW230435   5.521   5.427   3.019  1.0085  3.5175 -0.2914
 9843SOL     OW30436   4.890   2.050   2.981 -0.0449  0.3248 -0.0580
 9843SOL    HW130437   4.977   2.011   2.983  0.5424  1.6058  0.7367
 9843SOL    HW230438   4.906   2.144   2.977 -1.3813  0.6498  1.3386
 9844SOL     OW30439   2.656   0.861   2.538 -0.3153 -0.3487  0.1697
 9844SOL    HW130440   2.690   0.781   2.498  2.2425 -0.6715  2.7141
 9844SOL    HW230441   2.733   0.915   2.553 -1.8439  2.1113 -0.3381
 9845SOL     OW30442   0.884   0.891   6.871  0.2739  0.2650  0.0896
 9845SOL    HW130443   0.802   0.937   6.853  1.7826  2.3009 -2.1952
 9845SOL    HW230444   0.874   0.806   6.828 -0.4082  0.7347 -0.7150
 9846SOL     OW30445   2.290   3.332   3.892 -0.2138  0.3403  0.1562
 9846SOL    HW130446   2.234   3.309   3.967  0.0111  0.9213  0.5113
 9846SOL    HW230447   2.331   3.250   3.867  0.7980  0.3704  1.5724
 9847SOL     OW30448   7.715   2.534   5.804  0.2848  0.2662 -0.7429
 9847SOL    HW130449   7.756   2.448   5.816 -0.7222  0.0844  2.6810
 9847SOL    HW230450   7.787   2.596   5.811  0.7654 -0.2344 -1.1803
 9848SOL     OW30451   6.343   5.047   7.465  0.5685 -0.4286 -0.0377
 9848SOL    HW130452   6.344   4.985   7.392  0.1516 -0.4597 -0.0198
 9848SOL    HW230453   6.426   5.033   7.509  0.9544 -0.2001 -0.6805
 9849SOL     OW30454   2.585   6.301   2.144 -0.5916 -0.1465  1.1668
 9849SOL    HW130455   2.680   6.289   2.144 -0.7237 -1.3419  0.5401
 9849SOL    HW230456   2.571   6.377   2.201  0.6974 -0.2538  1.6757
 9850SOL     OW30457   3.598   3.333   3.153 -0.4075 -0.0655 -0.6871
 9850SOL    HW130458   3.630   3.395   3.219 -2.8262  1.2611 -0.6317
 9850SOL    HW230459   3.648   3.354   3.074 -0.2988  1.0979 -0.3261
 9851SOL     OW30460   0.210   0.630   3.938 -0.0590 -0.0212  0.1972
 9851SOL    HW130461   0.122   0.653   3.910 -0.5117 -3.1708 -1.4847
 9851SOL    HW230462   0.258   0.615   3.856  0.8789 -2.0470  1.0590
 9852SOL     OW30463   6.746   3.395   3.046 -0.0027 -0.1918  0.2969
 9852SOL    HW130464   6.796   3.455   2.991 -0.1271  1.6437  2.0721
 9852SOL    HW230465   6.725   3.446   3.124 -2.1438 -1.8255  0.8950
 9853SOL     OW30466   3.220   3.301   4.147  0.4345 -0.4911 -1.1536
 9853SOL    HW130467   3.129   3.329   4.150  0.0065 -1.8494  0.8367
 9853SOL    HW230468   3.216   3.210   4.117  1.0532 -0.7577 -0.4697
 9854SOL     OW30469   7.672   2.597   7.446 -0.1044  0.2087  0.0410
 9854SOL    HW130470   7.703   2.674   7.398  0.9925 -0.2718 -0.0538
 9854SOL    HW230471   7.588   2.576   7.406  0.3973  0.3215 -1.1236
 9855SOL     OW30472   2.923   5.131   0.935 -0.3636  0.3549  0.0844
 9855SOL    HW130473   2.891   5.112   1.023 -0.5923 -0.9335 -0.2571
 9855SOL    HW230474   2.891   5.059   0.881  1.4837  0.0128 -0.6584
 9856SOL     OW30475   6.965   6.294   6.546 -0.5731  0.5495  0.2449
 9856SOL    HW130476   7.017   6.229   6.593 -0.5856  0.7782  0.5747
 9856SOL    HW230477   6.884   6.248   6.523 -0.2533  0.2123 -0.2144
 9857SOL     OW30478   4.389   1.203   0.056  0.3679 -0.3034  0.0452
 9857SOL    HW130479   4.441   1.159  -0.011  0.3646 -2.2068  1.2105
 9857SOL    HW230480   4.343   1.132   0.100 -0.5728  1.0175  1.2580
 9858SOL     OW30481   4.490   0.847   5.754 -0.0479  0.4452  0.0611
 9858SOL    HW130482   4.536   0.779   5.804 -0.2240  0.8658  0.8047
 9858SOL    HW230483   4.484   0.921   5.814  0.3030  1.1911 -0.8064
 9859SOL     OW30484   5.529   5.540   1.527  0.1152  0.0526 -0.7309
 9859SOL    HW130485   5.595   5.562   1.462 -0.3208  1.5005 -0.7219
 9859SOL    HW230486   5.528   5.616   1.587  0.0828 -0.9714  0.6165
 9860SOL     OW30487   3.648   3.891   1.079 -0.2415  0.2862 -0.5712
 9860SOL    HW130488   3.705   3.866   1.152 -0.2020  0.8107 -0.4211
 9860SOL    HW230489   3.707   3.921   1.011 -0.3784  1.9357  0.0079
 9861SOL     OW30490   3.193   1.186   1.067  0.6276 -0.3672  0.0668
 9861SOL    HW130491   3.164   1.239   1.142 -0.2674 -0.9801  0.1737
 9861SOL    HW230492   3.134   1.110   1.067  0.5745 -0.3506 -1.2990
 9862SOL     OW30493   4.385   2.799   4.552  0.6096  0.5229 -0.2215
 9862SOL    HW130494   4.346   2.789   4.466  1.6728  0.8193 -0.7555
 9862SOL    HW230495   4.361   2.888   4.579 -1.2344 -0.1634  0.6043
 9863SOL     OW30496   3.888   1.083   1.073 -0.0434  0.0156 -0.0716
 9863SOL    HW130497   3.857   1.150   1.011 -1.2054  0.3393  0.8382
 9863SOL    HW230498   3.882   1.125   1.158  1.4836 -0.4564  0.2938
 9864SOL     OW30499   0.048   2.738   4.736 -0.5220  0.6779 -0.2420
 9864SOL    HW130500  -0.033   2.786   4.753 -0.1034  1.7511 -1.2134
 9864SOL    HW230501   0.111   2.804   4.710  0.7624 -0.1130  0.7447
 9865SOL     OW30502   2.592   5.295   2.710 -0.5004  0.0581 -0.4991
 9865SOL    HW130503   2.573   5.365   2.647 -0.0652 -0.5604 -1.3276
 9865SOL    HW230504   2.508   5.278   2.753 -1.4352 -1.2155 -2.6474
 9866SOL     OW30505   4.409   4.801   2.312 -0.1656  0.0113 -0.6716
 9866SOL    HW130506   4.374   4.749   2.239  0.1681 -1.8865  0.4539
 9866SOL    HW230507   4.490   4.839   2.277 -1.3319  1.3225 -2.0821
 9867SOL     OW30508   0.197   6.132   4.921  0.4363 -0.5673 -0.4950
 9867SOL    HW130509   0.223   6.153   5.011 -0.6613  0.0908 -0.3106
 9867SOL    HW230510   0.224   6.041   4.909  1.6981 -0.2981  0.0713
 9868SOL     OW30511   0.404   1.617   3.961 -0.1116 -0.1709 -0.3297
 9868SOL    HW130512   0.451   1.589   3.882 -2.4955 -0.7905 -1.6263
 9868SOL    HW230513   0.321   1.652   3.928 -0.5938  0.8592  1.8361
 9869SOL     OW30514   5.192   5.593   3.073 -0.1909 -0.4732  0.1867
 9869SOL    HW130515   5.109   5.576   3.118  0.4600 -2.0034  0.8879
 9869SOL    HW230516   5.192   5.531   2.999  0.0545 -0.0352 -0.1834
 9870SOL     OW30517   4.317   0.182   5.313  0.5899 -0.0621 -0.1978
 9870SOL    HW130518   4.281   0.200   5.400  2.2908 -0.4428  0.6323
 9870SOL    HW230519   4.360   0.097   5.322 -1.0516 -1.1815 -2.0488
 9871SOL     OW30520   0.735   1.887   6.131  0.1319 -0.2706  0.3223
 9871SOL    HW130521   0.763   1.933   6.210  1.2353 -1.6949  0.7975
 9871SOL    HW230522   0.779   1.802   6.135 -0.3970 -0.6800 -1.4431
 9872SOL     OW30523   2.320   0.237   1.450  0.8387 -0.2334 -0.0458
 9872SOL    HW130524   2.324   0.320   1.498 -0.6262  0.3519 -0.8680
 9872SOL    HW230525   2.401   0.192   1.474  0.9512  0.7579  1.6274
 9873SOL     OW30526   6.330   5.494   3.001  0.0276 -0.2792 -0.0381
 9873SOL    HW130527   6.286   5.572   2.967  2.8770  1.5565  0.2289
 9873SOL    HW230528   6.268   5.458   3.065 -0.9232  2.4166  0.6859
 9874SOL     OW30529   6.504   2.820   5.646  0.2286  0.2977 -0.5871
 9874SOL    HW130530   6.481   2.913   5.643 -1.3903 -0.0441  0.0888
 9874SOL    HW230531   6.546   2.808   5.732 -3.2227 -0.2869  1.1862
 9875SOL     OW30532   6.375   2.014   2.277  0.8532 -0.2058 -0.1342
 9875SOL    HW130533   6.437   2.010   2.204  3.2053 -2.7069  1.7771
 9875SOL    HW230534   6.413   2.077   2.338 -1.3135  2.1891 -1.0682
 9876SOL     OW30535   7.518   6.005   3.576  0.2676 -0.1720  0.2040
 9876SOL    HW130536   7.430   5.999   3.538  1.2519  0.0222 -2.3400
 9876SOL    HW230537   7.541   6.097   3.570  0.3137 -0.0572  1.7667
 9877SOL     OW30538   3.850   1.627   0.457 -0.0943 -0.6209  0.2131
 9877SOL    HW130539   3.941   1.644   0.483 -0.1383 -1.0971  0.6889
 9877SOL    HW230540   3.856   1.601   0.365 -0.0039  1.7458 -0.5408
 9878SOL     OW30541   6.569   1.999   6.252  0.1928 -0.3167  0.0629
 9878SOL    HW130542   6.538   1.908   6.260 -1.1125  0.1325  0.3238
 9878SOL    HW230543   6.614   2.001   6.168 -1.2826 -0.7975 -0.7706
 9879SOL     OW30544   0.768   7.261   3.831  0.1172 -0.6635  0.8698
 9879SOL    HW130545   0.675   7.255   3.809  0.2854  0.1306 -0.1487
 9879SOL    HW230546   0.804   7.324   3.769  0.6997  1.5694  3.2759
 9880SOL     OW30547   2.138   5.468   7.686 -0.1909  0.2949  0.1893
 9880SOL    HW130548   2.148   5.497   7.595  1.2402  0.6028  0.4203
 9880SOL    HW230549   2.136   5.550   7.736 -1.1364  0.1307  0.4271
 9881SOL     OW30550   6.259   2.002   3.737  0.2794 -0.2656 -0.5661
 9881SOL    HW130551   6.169   2.032   3.731 -1.0125 -3.6739 -0.0973
 9881SOL    HW230552   6.271   1.977   3.829  2.0224  0.8577 -0.4261
 9882SOL     OW30553   7.617   3.334   2.570 -1.1336  0.1088 -0.2195
 9882SOL    HW130554   7.685   3.277   2.608  0.6563  1.8585 -0.6192
 9882SOL    HW230555   7.560   3.274   2.522  1.1701 -1.2891 -1.3805
 9883SOL     OW30556   7.102   1.789   2.564  0.2148 -0.0143 -0.3132
 9883SOL    HW130557   7.037   1.809   2.497 -0.6350 -0.0416  0.4964
 9883SOL    HW230558   7.131   1.874   2.596 -0.2774 -0.0100  0.1344
 9884SOL     OW30559   7.196   0.419   3.732  0.1823  0.1048  0.3477
 9884SOL    HW130560   7.124   0.418   3.796  0.0037  1.5046  0.2043
 9884SOL    HW230561   7.272   0.450   3.782  0.4691 -0.4791  0.2801
 9885SOL     OW30562   0.788   6.192   6.441  0.1094 -0.5885  0.1546
 9885SOL    HW130563   0.877   6.226   6.455  0.2843 -0.5023 -1.1003
 9885SOL    HW230564   0.752   6.183   6.530  1.0172  0.3000  0.6335
 9886SOL     OW30565   6.847   2.990   6.202  1.1516  0.1846 -0.3746
 9886SOL    HW130566   6.933   3.012   6.166  0.5808 -1.3818 -2.9876
 9886SOL    HW230567   6.846   2.894   6.204  0.8179  0.1336  3.3571
 9887SOL     OW30568   0.436   2.072   3.465 -0.8514  0.3656  0.2762
 9887SOL    HW130569   0.375   2.049   3.536 -0.5297  2.2256  1.2091
 9887SOL    HW230570   0.512   2.017   3.482 -0.5493  1.1871  1.7571
 9888SOL     OW30571   0.355   1.980   3.729  0.2649  0.3883 -0.2583
 9888SOL    HW130572   0.343   2.075   3.728 -1.7991  0.1774  0.4760
 9888SOL    HW230573   0.340   1.954   3.820 -1.4379 -0.8690 -0.8495
 9889SOL     OW30574   5.249   3.531   2.599 -0.0076  0.2072 -0.1500
 9889SOL    HW130575   5.162   3.496   2.620 -1.1677  2.3296 -1.1132
 9889SOL    HW230576   5.296   3.457   2.560 -2.1971 -0.4181 -1.7825
 9890SOL     OW30577   0.848   7.453   7.606  0.3967 -0.1625 -0.4357
 9890SOL    HW130578   0.758   7.421   7.594 -0.0466  1.4767 -1.9272
 9890SOL    HW230579   0.898   7.374   7.628 -1.5641 -0.9691  1.6239
 9891SOL     OW30580   2.542   0.516   2.637 -0.0643 -0.2251 -0.2718
 9891SOL    HW130581   2.476   0.560   2.584 -1.5974 -1.0582  0.8814
 9891SOL    HW230582   2.497   0.440   2.673  1.0941 -0.0390  1.7143
 9892SOL     OW30583   3.008   2.068   1.382 -0.1183 -0.2805 -0.3465
 9892SOL    HW130584   3.092   2.080   1.426  0.6902 -0.7492 -1.6883
 9892SOL    HW230585   2.985   2.155   1.349 -0.6353  0.0338  0.7995
 9893SOL     OW30586   5.175   2.854   6.538  0.0212  0.4761 -0.3338
 9893SOL    HW130587   5.098   2.899   6.506 -1.4155 -2.4503 -1.3193
 9893SOL    HW230588   5.237   2.856   6.465 -0.2359  0.3758 -0.5535
 9894SOL     OW30589   1.458   0.572   1.981 -0.2827 -0.1347 -0.2994
 9894SOL    HW130590   1.548   0.602   1.987  0.5324 -1.8452 -2.5749
 9894SOL    HW230591   1.452   0.500   2.043 -0.0724 -0.0708 -0.2057
 9895SOL     OW30592   2.593   1.109   1.433  0.6042 -0.9383 -0.3323
 9895SOL    HW130593   2.530   1.167   1.390 -0.5620 -0.3867  1.9263
 9895SOL    HW230594   2.666   1.166   1.458 -0.5277 -0.3307  1.8589
 9896SOL     OW30595   4.464   4.780   3.653  0.4765 -0.2191  0.0142
 9896SOL    HW130596   4.426   4.724   3.721  1.8711 -2.6027 -1.0292
 9896SOL    HW230597   4.389   4.826   3.615 -0.9447 -2.2234  0.2221
 9897SOL     OW30598   3.482   6.310   0.197  0.3448 -0.1071  0.4573
 9897SOL    HW130599   3.408   6.359   0.161  0.6304  0.3509  0.4870
 9897SOL    HW230600   3.454   6.219   0.195  1.0980 -0.3711 -2.7980
 9898SOL     OW30601   1.879   7.344   6.722  0.2928 -0.0812  0.5203
 9898SOL    HW130602   1.934   7.415   6.689  0.0437  0.7425  1.8157
 9898SOL    HW230603   1.804   7.342   6.663  0.4202  0.5766  0.3377
 9899SOL     OW30604   7.414   4.224   6.205  0.2751 -0.3529 -0.3317
 9899SOL    HW130605   7.485   4.172   6.167  0.7174 -0.1523  0.2078
 9899SOL    HW230606   7.343   4.217   6.142  1.1378  0.3326 -1.4075
 9900SOL     OW30607   2.434   7.470   2.815 -0.2224  0.2919 -0.7248
 9900SOL    HW130608   2.517   7.457   2.860 -0.4155 -0.2771 -0.5251
 9900SOL    HW230609   2.458   7.473   2.722  0.3112  2.5616 -0.5662
 9901SOL     OW30610   3.810   6.654   1.005 -0.0556 -0.0843  0.7166
 9901SOL    HW130611   3.890   6.695   1.039 -0.2221  0.2541  0.7009
 9901SOL    HW230612   3.825   6.560   1.017  0.1519 -0.0018  1.1463
 9902SOL     OW30613   3.520   1.218   1.391  0.1168 -0.1345 -0.0356
 9902SOL    HW130614   3.441   1.262   1.421 -1.2549 -0.8657 -2.3161
 9902SOL    HW230615   3.563   1.282   1.334  0.9055  0.0727  0.7780
 9903SOL     OW30616   0.065   2.467   1.957  0.5568  0.0806 -0.0255
 9903SOL    HW130617   0.045   2.374   1.952  0.7810  0.0429 -0.3077
 9903SOL    HW230618   0.045   2.492   2.047  0.7483 -0.3005  0.1240
 9904SOL     OW30619   0.242   6.848   0.889  0.7031  0.7299  0.2529
 9904SOL    HW130620   0.239   6.845   0.793 -1.1741  0.3578  0.2767
 9904SOL    HW230621   0.330   6.818   0.911  0.4736 -1.3404 -1.3151
 9905SOL     OW30622   1.809   1.539   4.593 -0.4684  0.2361  0.4109
 9905SOL    HW130623   1.826   1.632   4.601  1.2875 -0.0569  0.5627
 9905SOL    HW230624   1.743   1.521   4.661  0.5586  1.0509  1.6787
 9906SOL     OW30625   4.315   3.055   4.652  0.0769 -0.1619 -0.3526
 9906SOL    HW130626   4.225   3.022   4.640  0.5927 -1.2583 -1.4022
 9906SOL    HW230627   4.314   3.141   4.609 -0.7516  0.3531  0.6390
 9907SOL     OW30628   3.731   0.290   4.613 -0.1416  0.2904 -0.7653
 9907SOL    HW130629   3.678   0.254   4.684  2.4507  0.7297  1.5760
 9907SOL    HW230630   3.776   0.365   4.652  1.0968  0.8246 -3.0206
 9908SOL     OW30631   1.212   5.150   3.923  0.0470  0.0462  0.1888
 9908SOL    HW130632   1.305   5.162   3.906  0.8609 -2.6356  2.0051
 9908SOL    HW230633   1.203   5.163   4.017 -1.8666  2.2417 -0.2144
 9909SOL     OW30634   6.227   2.007   0.300  0.1079 -0.0376 -0.6668
 9909SOL    HW130635   6.192   1.938   0.244  1.1896 -1.2557  0.0715
 9909SOL    HW230636   6.151   2.046   0.341 -0.5550 -0.6206 -1.3145
 9910SOL     OW30637   1.132   0.954   6.816  0.0657  0.2685 -0.1537
 9910SOL    HW130638   1.133   0.972   6.722  1.3832 -0.7652 -0.3751
 9910SOL    HW230639   1.045   0.919   6.834  0.2900 -0.9600 -1.3085
 9911SOL     OW30640   1.243   4.517   7.527 -0.4247 -0.1033  0.0209
 9911SOL    HW130641   1.323   4.467   7.516 -0.1173  0.4324 -0.1931
 9911SOL    HW230642   1.175   4.451   7.544 -0.0614 -0.5993 -0.4458
 9912SOL     OW30643   0.609   0.126   2.802 -0.3985 -0.2669 -0.7414
 9912SOL    HW130644   0.517   0.108   2.783 -0.5845  0.4681 -0.6073
 9912SOL    HW230645   0.637   0.186   2.733  0.5925 -2.0730 -1.9757
 9913SOL     OW30646   0.531   6.155   5.227 -0.3991  0.3900 -0.5934
 9913SOL    HW130647   0.546   6.064   5.254 -1.2979  0.5489  0.5315
 9913SOL    HW230648   0.552   6.207   5.304 -2.0883  0.9391 -0.4524
 9914SOL     OW30649   4.535   0.692   1.846 -0.2935  0.1624  0.2002
 9914SOL    HW130650   4.491   0.669   1.928  1.0578 -0.7202  0.7084
 9914SOL    HW230651   4.474   0.665   1.778 -0.9985 -0.0322  0.8911
 9915SOL     OW30652   5.638   4.104   6.334  0.4203 -0.3930  0.0551
 9915SOL    HW130653   5.660   4.188   6.374  0.7739 -0.8819  0.9108
 9915SOL    HW230654   5.722   4.060   6.324  0.1608 -0.9466  0.2998
 9916SOL     OW30655   0.394   6.892   6.237 -0.3829 -0.2262 -0.4786
 9916SOL    HW130656   0.474   6.847   6.265 -0.8574 -0.6399  0.2619
 9916SOL    HW230657   0.325   6.825   6.245 -1.0831  0.5921  0.5226
 9917SOL     OW30658   6.524   5.120   2.666 -0.4301 -0.2983  0.0655
 9917SOL    HW130659   6.537   5.175   2.589  1.3215 -0.7809 -0.0315
 9917SOL    HW230660   6.522   5.031   2.632  0.1581 -0.5012  0.5397
 9918SOL     OW30661   3.029   1.089   1.821  1.0042  0.0578 -0.2740
 9918SOL    HW130662   3.004   1.173   1.859 -0.2621 -0.9552  1.2216
 9918SOL    HW230663   2.952   1.061   1.772  0.8481 -0.9368  0.5202
 9919SOL     OW30664   5.873   4.651   0.059 -0.1363 -0.1655  0.1042
 9919SOL    HW130665   5.809   4.661  -0.012 -0.8242 -1.5013  0.4970
 9919SOL    HW230666   5.948   4.703   0.031 -1.4888  1.6705 -0.2457
 9920SOL     OW30667   3.670   0.972   7.440 -0.2711  0.1894  0.5546
 9920SOL    HW130668   3.616   0.912   7.388 -0.4290 -0.5432  1.5211
 9920SOL    HW230669   3.713   0.915   7.504  2.8442  0.4981 -1.0559
 9921SOL     OW30670   4.583   3.726   1.294  0.2627 -0.1393 -0.6125
 9921SOL    HW130671   4.591   3.635   1.266  0.8836 -0.1981 -0.2689
 9921SOL    HW230672   4.657   3.771   1.253  0.1981  0.1225 -0.4471
 9922SOL     OW30673   5.698   6.971   6.963  0.1766 -0.0241  0.1332
 9922SOL    HW130674   5.646   6.893   6.945  2.5235 -1.6571  0.1381
 9922SOL    HW230675   5.780   6.958   6.917  0.9790  2.0768  0.8234
 9923SOL     OW30676   7.706   0.361   2.454  0.0281  0.0194  0.5861
 9923SOL    HW130677   7.613   0.376   2.474  0.3235  1.6013  0.8584
 9923SOL    HW230678   7.751   0.375   2.538  0.5088 -0.9835  0.5113
 9924SOL     OW30679   6.368   7.158   0.879 -0.1125  0.4900 -0.3140
 9924SOL    HW130680   6.462   7.150   0.861  0.3646 -0.8048  2.2268
 9924SOL    HW230681   6.332   7.197   0.800  2.3075 -0.4976 -2.0432
 9925SOL     OW30682   7.116   2.488   0.815  0.0844 -0.7209  0.1377
 9925SOL    HW130683   7.062   2.435   0.873  0.6302 -0.9813  0.4077
 9925SOL    HW230684   7.206   2.470   0.841  0.3547 -1.0315 -0.9448
 9926SOL     OW30685   4.339   3.886   6.754  0.5870 -0.2195 -0.6920
 9926SOL    HW130686   4.279   3.913   6.685  1.2865  1.0001 -0.8568
 9926SOL    HW230687   4.347   3.792   6.744 -0.5185 -0.2638 -1.2923
 9927SOL     OW30688   0.439   4.880   5.409 -0.1678  0.0712 -0.1211
 9927SOL    HW130689   0.510   4.936   5.441  0.4332 -1.6238  1.7840
 9927SOL    HW230690   0.478   4.792   5.404 -2.1060 -0.9392  1.0509
 9928SOL     OW30691   0.746   4.777   0.536  0.6321  0.4037  0.6045
 9928SOL    HW130692   0.781   4.703   0.586  1.5592  0.7206  0.4458
 9928SOL    HW230693   0.679   4.815   0.594  0.9350  0.1174  1.1541
 9929SOL     OW30694   7.647   0.559   5.699 -0.3158 -0.2080 -0.0940
 9929SOL    HW130695   7.564   0.565   5.745 -0.7569  0.1106 -0.9044
 9929SOL    HW230696   7.637   0.483   5.641  0.0739 -0.3608  0.0349
 9930SOL     OW30697   7.026   7.684   4.841  0.0567 -0.0284 -0.2094
 9930SOL    HW130698   7.023   7.772   4.879 -0.0768  0.7842 -2.0025
 9930SOL    HW230699   7.117   7.674   4.812 -0.0549 -0.2731 -0.4773
 9931SOL     OW30700   3.847   4.476   0.702  0.2451  0.5293 -0.2194
 9931SOL    HW130701   3.937   4.492   0.734  0.7574 -2.1772 -0.0826
 9931SOL    HW230702   3.859   4.424   0.623 -1.2202  0.1125 -0.1810
 9932SOL     OW30703   5.979   1.098   2.949  0.2282  0.1866 -0.1731
 9932SOL    HW130704   6.047   1.031   2.954  0.7471  0.7844  1.1146
 9932SOL    HW230705   5.900   1.050   2.925  1.1652 -0.4506 -2.1939
 9933SOL     OW30706   6.111   5.692   6.729 -0.1723 -0.2781  0.3735
 9933SOL    HW130707   6.019   5.697   6.755  0.2437  0.6077  1.8202
 9933SOL    HW230708   6.154   5.760   6.781  1.5705 -1.7421  0.9605
 9934SOL     OW30709   0.572   0.948   0.507  0.1431  0.3990 -0.0644
 9934SOL    HW130710   0.557   0.953   0.413 -1.4183  1.5573  0.2139
 9934SOL    HW230711   0.485   0.951   0.546  0.5705 -2.3924  1.3791
 9935SOL     OW30712   7.641   1.850   7.054 -0.3885  0.4341 -0.5513
 9935SOL    HW130713   7.670   1.938   7.074 -1.0587  0.4688  0.2887
 9935SOL    HW230714   7.546   1.851   7.068 -0.3606 -0.5035 -0.1987
 9936SOL     OW30715   1.367   3.499   7.614 -0.1688 -0.0132 -0.3569
 9936SOL    HW130716   1.304   3.443   7.659  0.6641 -1.2345 -0.6304
 9936SOL    HW230717   1.327   3.517   7.529 -0.4832 -0.1509 -0.2375
 9937SOL     OW30718   6.587   1.681   5.386  0.2640 -0.2607  0.1113
 9937SOL    HW130719   6.593   1.733   5.306 -0.8401 -0.9158 -0.4135
 9937SOL    HW230720   6.590   1.590   5.357  2.1406 -0.5458  1.0222
 9938SOL     OW30721   3.409   5.671   1.318  0.1733 -0.1368  0.8278
 9938SOL    HW130722   3.379   5.758   1.294 -1.0642 -1.0507 -1.1518
 9938SOL    HW230723   3.343   5.638   1.378  0.1542 -0.0806  0.8376
 9939SOL     OW30724   0.348   3.014   4.473  0.1722  0.4701  0.0420
 9939SOL    HW130725   0.427   3.068   4.469  1.1184 -0.5723  2.7649
 9939SOL    HW230726   0.284   3.060   4.418  2.5378  1.4784 -2.0307
 9940SOL     OW30727   2.537   5.493   2.545  0.3527 -0.9318 -0.4228
 9940SOL    HW130728   2.546   5.477   2.451  2.0698 -1.2490 -0.2336
 9940SOL    HW230729   2.549   5.588   2.553 -0.6925 -0.7739 -0.5989
 9941SOL     OW30730   6.107   7.010   1.972 -0.1414 -0.3196  0.5357
 9941SOL    HW130731   6.049   7.063   1.916 -1.0219 -1.8378 -0.0693
 9941SOL    HW230732   6.191   7.011   1.926 -0.2473  0.2313  0.3361
 9942SOL     OW30733   4.201   0.715   4.264 -0.0705 -0.4099  0.1761
 9942SOL    HW130734   4.210   0.797   4.216 -2.4140  0.3037  0.8124
 9942SOL    HW230735   4.188   0.742   4.355  0.8015 -1.5801  0.6679
 9943SOL     OW30736   0.905   0.373   5.365 -0.1701  0.0215 -0.3683
 9943SOL    HW130737   0.895   0.284   5.398  2.7222 -0.4657 -0.5016
 9943SOL    HW230738   0.892   0.429   5.442 -1.4105 -0.5107 -0.1653
 9944SOL     OW30739   5.084   7.593   6.409 -0.3875  0.5860 -0.0675
 9944SOL    HW130740   5.025   7.634   6.473  0.5127  0.8242  0.6343
 9944SOL    HW230741   5.028   7.533   6.360 -1.0599  0.2089  1.1138
 9945SOL     OW30742   1.808   2.326   6.377 -0.1530 -0.0026 -0.3702
 9945SOL    HW130743   1.884   2.270   6.396 -0.4334 -0.1562  0.3458
 9945SOL    HW230744   1.830   2.369   6.295  1.5299  1.3390  0.7145
 9946SOL     OW30745   7.331   4.975   3.915 -0.6012  0.5712  0.3789
 9946SOL    HW130746   7.388   5.038   3.960 -0.0706 -1.3890  2.6853
 9946SOL    HW230747   7.255   4.967   3.972 -0.3468 -1.3191  0.5028
 9947SOL     OW30748   1.620   4.364   0.738 -0.2077  0.2323 -0.2023
 9947SOL    HW130749   1.531   4.333   0.725 -0.1914  0.7358 -1.6386
 9947SOL    HW230750   1.671   4.285   0.757 -0.7395 -0.1947 -0.5613
 9948SOL     OW30751   7.600   1.127   0.688 -0.6649  0.2656 -0.0892
 9948SOL    HW130752   7.656   1.205   0.690 -0.1570 -0.0687  2.4872
 9948SOL    HW230753   7.636   1.073   0.618 -0.3723  1.8572 -1.2132
 9949SOL     OW30754   5.274   5.517   3.409 -0.2024 -0.0145 -0.6989
 9949SOL    HW130755   5.312   5.476   3.487 -1.3818  2.9420  1.6297
 9949SOL    HW230756   5.186   5.480   3.404  0.0486 -0.5933 -0.9929
 9950SOL     OW30757   7.010   3.167   1.524  0.0129 -0.1347 -0.1675
 9950SOL    HW130758   6.981   3.087   1.570  0.1723 -0.5321 -0.7523
 9950SOL    HW230759   7.105   3.159   1.520 -0.1140 -2.0829 -3.9903
 9951SOL     OW30760   2.475   1.772   6.279 -0.7051  0.2619  0.4953
 9951SOL    HW130761   2.476   1.868   6.283 -2.7307  0.3267  0.2525
 9951SOL    HW230762   2.399   1.751   6.225  2.1956 -1.4374 -3.4087
 9952SOL     OW30763   3.385   3.955   2.479 -0.3669 -0.0116  0.3487
 9952SOL    HW130764   3.431   4.030   2.518 -0.5897  0.4920 -0.3203
 9952SOL    HW230765   3.416   3.879   2.527 -0.7056  0.5964  1.5665
 9953SOL     OW30766   2.483   1.919   7.097  0.1092 -0.2958  0.4654
 9953SOL    HW130767   2.570   1.899   7.133  0.0907  1.5871  1.7126
 9953SOL    HW230768   2.432   1.839   7.112  1.2519 -0.9572  0.9487
 9954SOL     OW30769   4.701   3.762   2.459  0.1419 -0.4467 -0.0158
 9954SOL    HW130770   4.757   3.707   2.513  1.9447  0.3617 -0.9959
 9954SOL    HW230771   4.657   3.820   2.522 -0.3489 -1.7162  0.8429
 9955SOL     OW30772   1.088   6.998   4.711 -0.1037  0.7351 -0.3645
 9955SOL    HW130773   1.098   7.083   4.755  0.0665  0.9193 -0.7520
 9955SOL    HW230774   1.177   6.965   4.702  0.0256  1.3718 -1.8608
 9956SOL     OW30775   6.829   0.057   3.972 -0.4993  0.3700 -0.0134
 9956SOL    HW130776   6.828   0.043   3.877  4.6960 -1.5979 -0.0869
 9956SOL    HW230777   6.804  -0.028   4.009  1.1177 -0.0314  0.2215
 9957SOL     OW30778   5.303   1.089   6.741  1.1145  0.3981 -0.4073
 9957SOL    HW130779   5.306   1.069   6.835  3.6121 -0.8458 -0.6781
 9957SOL    HW230780   5.392   1.119   6.720  1.0795 -0.8780 -2.6729
 9958SOL     OW30781   1.705   1.201   6.077 -0.0501 -0.3817 -0.1200
 9958SOL    HW130782   1.744   1.235   5.997 -2.1942 -0.5153 -1.3013
 9958SOL    HW230783   1.683   1.110   6.056 -2.8614  0.2478 -0.3501
 9959SOL     OW30784   6.895   6.951   4.892 -0.4084 -0.3095  0.1967
 9959SOL    HW130785   6.856   7.033   4.860 -1.6393 -0.3474  1.5382
 9959SOL    HW230786   6.988   6.959   4.868 -0.4416  1.6063  0.5222
 9960SOL     OW30787   7.189   2.488   2.762  0.3167 -0.0700 -0.0396
 9960SOL    HW130788   7.266   2.438   2.791  0.8285  0.1154 -1.0594
 9960SOL    HW230789   7.225   2.572   2.734 -0.4670  0.6603  1.0645
 9961SOL     OW30790   5.837   3.585   6.817  0.0633 -0.2033 -0.6757
 9961SOL    HW130791   5.879   3.670   6.803 -0.5581 -0.0505 -1.6840
 9961SOL    HW230792   5.783   3.597   6.894 -1.5939  0.9523 -1.9467
 9962SOL     OW30793   2.619   0.850   7.716  0.0159 -0.2869  0.3857
 9962SOL    HW130794   2.700   0.861   7.666  1.0812  0.8409  2.2306
 9962SOL    HW230795   2.591   0.760   7.696  0.3458  0.0965 -2.1552
 9963SOL     OW30796   1.369   4.897   6.447  0.0582 -0.1666  0.6785
 9963SOL    HW130797   1.366   4.814   6.399 -1.6616 -0.2367  0.8302
 9963SOL    HW230798   1.322   4.959   6.391 -2.1613 -0.2929  2.2411
 9964SOL     OW30799   5.753   3.408   1.111 -0.2118  0.1892 -0.4414
 9964SOL    HW130800   5.837   3.443   1.084 -0.2110  0.4134 -0.1623
 9964SOL    HW230801   5.690   3.445   1.049 -0.4564  2.1599  0.8924
 9965SOL     OW30802   0.608   6.356   7.444 -0.7983  0.3022 -0.2155
 9965SOL    HW130803   0.543   6.288   7.461 -0.2402  0.1016  1.3436
 9965SOL    HW230804   0.590   6.423   7.510  0.6483  0.1486  0.3853
 9966SOL     OW30805   0.712   1.078   4.312  0.0121  0.3817 -0.8154
 9966SOL    HW130806   0.697   1.127   4.231 -1.9872 -0.0185 -0.7360
 9966SOL    HW230807   0.661   0.997   4.301  0.3233 -0.0215  0.5436
 9967SOL     OW30808   2.937   5.208   0.105  0.0672 -0.3664 -0.5472
 9967SOL    HW130809   2.885   5.155   0.166 -1.3457  2.9452  1.3914
 9967SOL    HW230810   2.909   5.179   0.018 -1.0590 -2.3097  0.3944
 9968SOL     OW30811   5.906   3.736   5.427 -0.7265 -0.0258  0.0344
 9968SOL    HW130812   5.947   3.823   5.427 -0.7542 -0.0119 -0.1632
 9968SOL    HW230813   5.878   3.723   5.336 -0.0993 -0.5354 -0.0945
 9969SOL     OW30814   0.706   5.253   0.984  0.2620  0.0037 -0.6264
 9969SOL    HW130815   0.670   5.306   1.056 -0.6511 -0.4275 -0.7540
 9969SOL    HW230816   0.774   5.200   1.025 -0.0996 -0.0759 -0.1249
 9970SOL     OW30817   7.049   7.347   2.427  0.0197  0.1686 -0.0919
 9970SOL    HW130818   7.057   7.428   2.376 -1.4776 -0.2166 -1.0045
 9970SOL    HW230819   6.964   7.355   2.470 -1.1300 -1.7463 -1.8188
 9971SOL     OW30820   2.886   6.605   3.183  0.0663 -0.2758  0.4202
 9971SOL    HW130821   2.911   6.696   3.168  1.5844 -0.8844 -1.0093
 9971SOL    HW230822   2.815   6.590   3.121  1.2393 -0.6201 -0.9002
 9972SOL     OW30823   7.559   5.437   7.464  0.3606 -0.1692  0.0681
 9972SOL    HW130824   7.598   5.524   7.474  0.5978 -0.2630 -0.0350
 9972SOL    HW230825   7.626   5.386   7.418  0.2969 -0.4584  0.2933
 9973SOL     OW30826   7.679   2.173   5.638  0.2489  0.4291 -0.2239
 9973SOL    HW130827   7.630   2.110   5.586  0.9966 -0.2680 -0.1060
 9973SOL    HW230828   7.771   2.152   5.621  0.5427 -0.3765  2.0014
 9974SOL     OW30829   4.502   1.332   0.963  0.1734 -0.6628  0.0767
 9974SOL    HW130830   4.483   1.408   0.908 -2.8662 -0.0907  1.6918
 9974SOL    HW230831   4.563   1.364   1.029 -2.0851  0.9255  1.5527
 9975SOL     OW30832   0.272   3.218   5.376  0.1305  0.7042  0.1137
 9975SOL    HW130833   0.219   3.184   5.448  0.8664  1.4717  1.0363
 9975SOL    HW230834   0.280   3.144   5.315 -1.9727  0.5544 -0.0674
 9976SOL     OW30835   0.605   2.116   1.476  0.2698 -0.3900  0.7378
 9976SOL    HW130836   0.646   2.194   1.439 -0.4086  2.3680  5.1230
 9976SOL    HW230837   0.677   2.069   1.519  0.2392 -0.7728  0.3848
 9977SOL     OW30838   4.763   4.914   2.005 -0.5060 -0.4048 -0.0688
 9977SOL    HW130839   4.833   4.848   2.005 -0.3194 -0.2116 -0.2686
 9977SOL    HW230840   4.753   4.936   1.912 -0.1388  0.2969  0.0535
 9978SOL     OW30841   6.790   4.648   5.509  0.6907 -0.1226  0.0233
 9978SOL    HW130842   6.717   4.671   5.566  0.7435  1.2634 -0.4140
 9978SOL    HW230843   6.762   4.678   5.422  1.3786 -0.4727 -0.3263
 9979SOL     OW30844   1.573   0.725   5.299 -0.0309 -0.6355  0.0113
 9979SOL    HW130845   1.656   0.742   5.342  0.1628  0.2806 -0.6851
 9979SOL    HW230846   1.550   0.635   5.324  0.1205 -0.1929  1.9126
 9980SOL     OW30847   2.632   7.624   4.202 -0.3874 -0.1645 -0.1801
 9980SOL    HW130848   2.559   7.592   4.255 -1.9736  1.9830 -0.9536
 9980SOL    HW230849   2.648   7.555   4.138 -0.4962 -1.4388  1.1086
 9981SOL     OW30850   3.594   5.731   3.428  0.1923 -0.8465 -0.3224
 9981SOL    HW130851   3.622   5.823   3.434  0.9382 -1.0900  0.1345
 9981SOL    HW230852   3.511   5.734   3.381  0.0691  0.0944 -0.0735
 9982SOL     OW30853   7.184   0.189   0.713 -0.0085 -0.8070 -0.5394
 9982SOL    HW130854   7.199   0.248   0.639 -2.4036 -0.5741 -0.9171
 9982SOL    HW230855   7.197   0.244   0.790 -1.5197  0.0678 -0.8740
 9983SOL     OW30856   0.631   0.517   6.926  0.5506  0.1263  0.1804
 9983SOL    HW130857   0.633   0.422   6.939 -1.3305 -0.0416 -0.3988
 9983SOL    HW230858   0.661   0.553   7.009  0.3242 -0.9783  0.7734
 9984SOL     OW30859   4.092   6.852   6.502 -0.4944  0.1347 -0.0984
 9984SOL    HW130860   4.095   6.941   6.537  0.5265 -0.1901  0.6972
 9984SOL    HW230861   4.056   6.862   6.414 -0.9766  1.2560  0.2087
 9985SOL     OW30862   5.979   4.437   5.168  0.3287 -0.3698  0.1786
 9985SOL    HW130863   6.010   4.427   5.078 -2.5958 -1.3094 -0.8519
 9985SOL    HW230864   5.887   4.462   5.158  0.1599  0.4056  2.9470
 9986SOL     OW30865   2.982   1.951   6.574  0.0783  0.0556 -0.7942
 9986SOL    HW130866   2.977   1.943   6.479  1.7619 -3.0991 -0.7709
 9986SOL    HW230867   2.899   1.917   6.606 -0.8468  1.9378 -1.0856
 9987SOL     OW30868   6.088   5.359   5.927 -0.2430  0.0622  0.2208
 9987SOL    HW130869   6.035   5.340   5.850 -1.0175  0.0216  0.7448
 9987SOL    HW230870   6.035   5.422   5.977  0.2124  0.0406  0.7467
 9988SOL     OW30871   7.252   2.700   3.221 -0.2433 -0.1025 -0.3024
 9988SOL    HW130872   7.166   2.742   3.219 -0.2508 -0.1465 -1.1948
 9988SOL    HW230873   7.290   2.719   3.136  1.1425  0.9523  0.5110
 9989SOL     OW30874   5.435   1.061   4.648 -0.2993  0.1158  0.1790
 9989SOL    HW130875   5.525   1.029   4.648 -0.8189 -1.4658  0.9807
 9989SOL    HW230876   5.403   1.042   4.736 -2.6422 -3.1449 -1.1698
 9990SOL     OW30877   0.156   7.377   0.083 -0.2604 -0.2404 -0.0421
 9990SOL    HW130878   0.212   7.355   0.157  0.3028  1.4892  0.0903
 9990SOL    HW230879   0.180   7.315   0.015  1.8407  0.4295  0.0142
 9991SOL     OW30880   0.491   7.430   5.962  0.0069  0.3722 -0.0793
 9991SOL    HW130881   0.465   7.354   6.014 -0.2921 -0.8595 -1.9206
 9991SOL    HW230882   0.543   7.484   6.022 -1.0207 -0.5231  1.7101
 9992SOL     OW30883   1.177   2.853   0.899 -0.0453 -0.0998  0.0600
 9992SOL    HW130884   1.217   2.914   0.962  1.2333 -0.2530 -0.5737
 9992SOL    HW230885   1.099   2.898   0.868  1.4644  1.7852 -1.2517
 9993SOL     OW30886   6.411   2.497   0.418 -0.2319 -0.1136 -0.6593
 9993SOL    HW130887   6.328   2.451   0.424 -0.2165 -0.0274  0.3202
 9993SOL    HW230888   6.388   2.590   0.423 -0.0273 -0.1067  0.4545
 9994SOL     OW30889   0.457   5.676   0.389 -0.2052 -0.6645  0.4576
 9994SOL    HW130890   0.475   5.761   0.351 -1.5236 -0.2669  0.6707
 9994SOL    HW230891   0.460   5.615   0.315 -1.5541 -0.0767 -0.1278
 9995SOL     OW30892   0.498   6.795   0.890  0.2425  0.8492 -0.0224
 9995SOL    HW130893   0.550   6.771   0.967  0.4093  1.6601  0.1325
 9995SOL    HW230894   0.563   6.815   0.823  0.1121  0.9770 -0.1107
 9996SOL     OW30895   1.195   1.253   5.236  0.3638  0.1436  0.2379
 9996SOL    HW130896   1.143   1.178   5.264  0.8742 -1.1548 -2.0004
 9996SOL    HW230897   1.256   1.268   5.308 -1.4512  0.1211  1.8489
 9997SOL     OW30898   1.106   3.835   7.061  0.0001  0.5127  0.0830
 9997SOL    HW130899   1.185   3.847   7.008 -0.0934  0.0885 -0.1572
 9997SOL    HW230900   1.050   3.778   7.008 -0.8132  1.4670 -0.1170
 9998SOL     OW30901   1.947   0.177   7.028 -0.0642 -0.3237  0.0008
 9998SOL    HW130902   1.946   0.188   7.123  1.9837 -0.0709  0.0458
 9998SOL    HW230903   1.856   0.189   7.001 -0.5620  0.3727  1.8447
 9999SOL     OW30904   7.511   4.762   2.148  0.4625  0.2953  0.0125
 9999SOL    HW130905   7.488   4.798   2.063  0.0357 -0.0235 -0.0128
 9999SOL    HW230906   7.521   4.839   2.205  2.3241  0.6155 -0.6749
10000SOL     OW30907   1.405   6.955   3.810 -0.2283  0.0631  0.3284
10000SOL    HW130908   1.319   6.965   3.769 -0.3761 -0.4110  0.5154
10000SOL    HW230909   1.412   7.029   3.870 -0.4445  0.1844  0.2047
10001SOL     OW30910   4.585   5.850   7.133  0.8071  0.1541  0.6348
10001SOL    HW130911   4.596   5.760   7.103  0.1768  0.0920  0.5846
10001SOL    HW230912   4.535   5.843   7.214  0.2138  0.4976  0.3031
10002SOL     OW30913   4.968   5.532   2.469  0.1215  0.2182  0.0906
10002SOL    HW130914   4.943   5.442   2.446 -1.6594  0.5435  0.5459
10002SOL    HW230915   5.016   5.523   2.552  1.4256 -0.4351 -0.7124
10003SOL     OW30916   1.734   0.658   2.010  0.1546  0.1337  0.4130
10003SOL    HW130917   1.717   0.717   1.936 -1.9338 -0.3873  0.4114
10003SOL    HW230918   1.822   0.625   1.994  0.0590  0.6433 -1.4422
10004SOL     OW30919   6.916   6.843   4.569  0.6529 -0.2850  0.7076
10004SOL    HW130920   6.858   6.833   4.645  0.3360 -0.3063  0.4601
10004SOL    HW230921   6.915   6.936   4.550 -0.0418 -0.4055  0.1192
10005SOL     OW30922   0.411   3.848   5.400 -0.0527  0.0707 -0.0457
10005SOL    HW130923   0.444   3.811   5.481  0.5281 -0.2255 -0.4110
10005SOL    HW230924   0.319   3.824   5.398  0.4139 -1.7807 -0.4974
10006SOL     OW30925   0.095   4.399   3.819 -0.3262 -0.3836 -0.6441
10006SOL    HW130926   0.109   4.465   3.887  2.2500 -0.5302 -0.9357
10006SOL    HW230927   0.074   4.450   3.741 -1.8621 -0.1472 -0.1215
10007SOL     OW30928   6.689   5.699   2.543  0.0040 -0.2401 -0.2086
10007SOL    HW130929   6.780   5.728   2.554 -0.0558 -0.5977  1.4957
10007SOL    HW230930   6.639   5.754   2.603 -0.4846 -1.9825  1.0442
10008SOL     OW30931   5.116   4.938   7.364  0.4521 -0.2906 -0.0192
10008SOL    HW130932   5.115   5.001   7.436  0.5398 -0.7816  0.4217
10008SOL    HW230933   5.203   4.948   7.326  1.2491 -1.5537  1.3434
10009SOL     OW30934   4.733   3.008   1.792  0.6420  0.3443  0.2603
10009SOL    HW130935   4.647   3.050   1.793 -0.5868 -1.6651 -2.9946
10009SOL    HW230936   4.796   3.080   1.794 -1.2213  2.1148 -0.9333
10010SOL     OW30937   3.104   2.196   2.932 -0.1501 -0.4836  0.5632
10010SOL    HW130938   3.109   2.283   2.893 -0.3736  0.6149  2.8263
10010SOL    HW230939   3.114   2.211   3.026  0.5121 -2.9858  0.9696
10011SOL     OW30940   4.260   4.584   7.137  0.3113  0.1607 -0.5043
10011SOL    HW130941   4.282   4.661   7.189  1.7391 -0.8660  0.4762
10011SOL    HW230942   4.193   4.539   7.188  1.1637 -0.4506  0.0896
10012SOL     OW30943   1.442   3.885   1.107  0.8916 -0.4326  0.5293
10012SOL    HW130944   1.348   3.866   1.105  1.0952 -1.4444 -0.2951
10012SOL    HW230945   1.470   3.879   1.015  1.8535 -0.6707  0.8207
10013SOL     OW30946   0.546   5.099   7.138 -0.2590 -0.2320  0.3593
10013SOL    HW130947   0.517   5.124   7.226  1.2995 -0.3720  0.9329
10013SOL    HW230948   0.592   5.016   7.151  0.4287  0.0024 -0.5222
10014SOL     OW30949   6.254   6.081   1.288 -0.1075 -0.0245 -0.1613
10014SOL    HW130950   6.253   5.985   1.290 -1.4668 -0.0277  1.3069
10014SOL    HW230951   6.194   6.104   1.218 -0.3522 -0.2612 -0.0332
10015SOL     OW30952   1.891   3.546   4.245  0.5991 -0.3472 -0.1534
10015SOL    HW130953   1.871   3.518   4.335 -0.2784  0.6277 -0.0240
10015SOL    HW230954   1.950   3.620   4.257 -1.2935  1.2649 -0.2414
10016SOL     OW30955   7.288   5.593   6.121  0.1899 -0.3149  0.6258
10016SOL    HW130956   7.330   5.518   6.164 -1.5953 -1.6180  0.2291
10016SOL    HW230957   7.208   5.556   6.083  0.6392  1.1960 -2.0265
10017SOL     OW30958   4.138   5.533   4.828 -0.2171  0.3782 -0.0146
10017SOL    HW130959   4.104   5.591   4.896  0.0600  0.2909  0.2008
10017SOL    HW230960   4.226   5.510   4.858 -0.6256 -0.8366  0.3454
10018SOL     OW30961   4.410   2.161   5.688 -0.0535  0.4734 -0.3834
10018SOL    HW130962   4.324   2.156   5.645 -0.5882  0.5009  0.6421
10018SOL    HW230963   4.402   2.103   5.763  0.3361  1.5829  0.5453
10019SOL     OW30964   3.914   1.559   7.568  0.1040  0.3341 -0.0155
10019SOL    HW130965   3.966   1.492   7.524 -2.5844 -0.2142 -2.7581
10019SOL    HW230966   3.850   1.510   7.619 -0.9738  0.7875 -0.8902
10020SOL     OW30967   5.631   3.108   4.480 -0.1124 -0.1685  0.6610
10020SOL    HW130968   5.614   3.043   4.548 -1.2155 -0.1968  0.3692
10020SOL    HW230969   5.676   3.179   4.526 -1.1810 -0.0205  1.5145
10021SOL     OW30970   0.020   3.586   2.506 -0.5078 -0.0482  0.0377
10021SOL    HW130971   0.094   3.584   2.568  0.7947  1.5261 -1.3461
10021SOL    HW230972  -0.048   3.534   2.548  1.0595 -0.7926  1.8142
10022SOL     OW30973   0.980   1.547   5.411 -0.2431  0.1390 -0.0568
10022SOL    HW130974   0.941   1.480   5.467  1.3070 -1.0865 -0.4000
10022SOL    HW230975   0.962   1.518   5.321  0.3662  0.2085 -0.2089
10023SOL     OW30976   2.331   0.939   3.611  0.0414 -0.0748  0.3352
10023SOL    HW130977   2.375   0.857   3.635  1.9213  1.1394  1.2677
10023SOL    HW230978   2.386   0.976   3.542  0.2248  1.2472  1.1628
10024SOL     OW30979   7.220   3.602   2.303  0.0226  0.1401 -0.3862
10024SOL    HW130980   7.313   3.621   2.318 -0.0502 -0.5527  1.1017
10024SOL    HW230981   7.187   3.574   2.388 -1.3057 -0.6712 -1.1293
10025SOL     OW30982   5.157   0.406   0.853 -0.1840  0.0595 -0.1392
10025SOL    HW130983   5.116   0.488   0.882 -0.4746  0.4661 -1.6115
10025SOL    HW230984   5.104   0.337   0.894 -0.1017  0.5883  0.8983
10026SOL     OW30985   1.371   5.374   0.906  0.1865  0.4455 -0.0223
10026SOL    HW130986   1.298   5.361   0.845 -0.2498  0.7922  0.4142
10026SOL    HW230987   1.371   5.468   0.924 -0.2847  0.2231  1.2290
10027SOL     OW30988   2.506   6.441   5.843  0.2039  0.1967 -0.0435
10027SOL    HW130989   2.503   6.507   5.913  0.9033  1.1185 -0.8654
10027SOL    HW230990   2.556   6.482   5.773 -0.8500 -0.5472 -1.2739
10028SOL     OW30991   6.253   2.027   7.538  0.1170 -0.4772 -0.0033
10028SOL    HW130992   6.307   2.106   7.533  1.3357 -1.3818 -2.0110
10028SOL    HW230993   6.303   1.967   7.594  0.5244 -0.7993 -0.7040
10029SOL     OW30994   0.453   6.091   1.209 -0.0844  0.7124 -0.3499
10029SOL    HW130995   0.468   6.127   1.296  0.5010  0.9781 -0.5517
10029SOL    HW230996   0.537   6.049   1.186 -0.4531  0.0435 -0.5041
10030SOL     OW30997   5.371   5.504   5.231 -0.3124  0.0075  0.1566
10030SOL    HW130998   5.433   5.537   5.296  1.4720 -0.8093 -1.0544
10030SOL    HW230999   5.318   5.439   5.277 -0.5350  0.9695  1.2979
10031SOL     OW31000   2.476   4.618   4.114 -0.5085  0.7847  0.2442
10031SOL    HW131001   2.461   4.526   4.094  1.3770  0.4648  0.1101
10031SOL    HW231002   2.515   4.618   4.202  0.0806  1.3775 -0.0015
10032SOL     OW31003   7.137   1.763   1.368 -0.6595 -0.4963 -0.0770
10032SOL    HW131004   7.231   1.774   1.381 -0.7054  0.4180 -0.4189
10032SOL    HW231005   7.127   1.672   1.340  0.1590 -0.5204 -0.3371
10033SOL     OW31006   2.753   3.075   6.651 -0.2237  0.2336 -0.2759
10033SOL    HW131007   2.788   3.066   6.739 -3.1009 -2.0119  0.7899
10033SOL    HW231008   2.780   2.996   6.605 -1.5646 -0.2584 -0.2663
10034SOL     OW31009   2.366   4.197   1.922 -1.1404  0.1136  0.0146
10034SOL    HW131010   2.306   4.239   1.861 -0.9827  0.5304  0.1416
10034SOL    HW231011   2.452   4.207   1.881 -0.9302  1.0853  0.6655
10035SOL     OW31012   4.224   2.474   0.852 -0.0141 -0.2668  0.0435
10035SOL    HW131013   4.144   2.491   0.802 -0.2883 -1.5641  0.0037
10035SOL    HW231014   4.228   2.379   0.859 -0.1238 -0.1666  2.6963
10036SOL     OW31015   2.284   5.538   4.503 -0.0980 -0.2566 -0.1891
10036SOL    HW131016   2.339   5.482   4.448  0.8597 -1.1433  1.5751
10036SOL    HW231017   2.337   5.618   4.515 -0.1387 -0.2192 -0.2617
10037SOL     OW31018   4.464   4.570   1.842  0.3062  0.5832 -0.0167
10037SOL    HW131019   4.431   4.555   1.753 -0.0456 -0.2454  0.2454
10037SOL    HW231020   4.390   4.550   1.899  0.7356  0.4244  0.4922
10038SOL     OW31021   1.966   7.583   5.186 -0.2269  0.2557 -0.2847
10038SOL    HW131022   2.028   7.511   5.170 -0.6371 -0.3256  0.6764
10038SOL    HW231023   1.928   7.564   5.272 -2.0842  0.3441 -1.0329
10039SOL     OW31024   2.707   4.659   0.848 -0.2315  0.8426 -0.0835
10039SOL    HW131025   2.716   4.565   0.834 -1.2947  0.3138  2.4063
10039SOL    HW231026   2.773   4.680   0.914 -0.7334  1.6216  0.1900
10040SOL     OW31027   3.258   1.102   4.285 -0.1369  0.3797  0.2907
10040SOL    HW131028   3.219   1.015   4.283 -0.4713  0.4923  1.3246
10040SOL    HW231029   3.188   1.159   4.317  0.3368  0.8788  0.4463
10041SOL     OW31030   6.466   4.396   1.804 -0.4448 -0.1451 -0.5182
10041SOL    HW131031   6.483   4.381   1.711 -0.5091 -1.4331 -0.3420
10041SOL    HW231032   6.485   4.311   1.846  1.1707  0.8254  0.8786
10042SOL     OW31033   6.389   4.604   5.355 -0.3190  0.0399  0.3793
10042SOL    HW131034   6.364   4.683   5.308 -0.0451 -0.2648 -0.2889
10042SOL    HW231035   6.318   4.590   5.418 -2.8297 -1.7114 -2.5397
10043SOL     OW31036   5.141   3.709   7.602  0.4318  0.2414  0.5769
10043SOL    HW131037   5.176   3.626   7.636 -1.0042 -1.2810 -1.4481
10043SOL    HW231038   5.067   3.684   7.548  1.6326  2.5533 -2.4589
10044SOL     OW31039   7.407   5.647   5.814 -0.1545 -0.0212 -0.1587
10044SOL    HW131040   7.377   5.617   5.899  0.9299  1.2434  0.7125
10044SOL    HW231041   7.335   5.700   5.780 -0.3249  0.0331  0.2806
10045SOL     OW31042   3.509   7.107   7.650  0.7224 -0.0642  0.3853
10045SOL    HW131043   3.563   7.124   7.573  2.9213  0.7603  1.9793
10045SOL    HW231044   3.502   7.012   7.653 -0.8723 -0.0810 -1.7028
10046SOL     OW31045   7.400   3.304   3.260  0.4474 -0.5124 -0.3713
10046SOL    HW131046   7.359   3.389   3.274  1.0744 -0.2070 -0.3635
10046SOL    HW231047   7.328   3.247   3.232 -0.6949 -0.9054  2.9719
10047SOL     OW31048   5.839   0.785   7.341 -0.2310  0.3588  0.2049
10047SOL    HW131049   5.844   0.730   7.263  0.0053 -0.6839  0.9417
10047SOL    HW231050   5.900   0.856   7.324  1.0147 -0.7161  0.0937
10048SOL     OW31051   3.060   1.336   1.999  0.4131  0.1499 -0.0407
10048SOL    HW131052   2.987   1.311   2.056 -0.1094  0.6006 -0.4887
10048SOL    HW231053   3.071   1.430   2.014 -0.0967  0.3895 -1.0631
10049SOL     OW31054   0.881   6.972   7.180  0.3769 -0.2906 -0.0835
10049SOL    HW131055   0.788   6.970   7.200  0.4802  1.9078  0.8323
10049SOL    HW231056   0.921   6.916   7.247 -0.2656 -1.3851 -0.5881
10050SOL     OW31057   6.333   2.417   3.196  0.0336  0.0945  0.1328
10050SOL    HW131058   6.401   2.450   3.255  0.1159 -0.5686  0.4101
10050SOL    HW231059   6.374   2.416   3.109  0.2039  0.2084  0.2118
10051SOL     OW31060   5.747   0.192   5.854 -0.0575  0.1897  0.0129
10051SOL    HW131061   5.806   0.188   5.929 -0.7232 -1.4180  0.4948
10051SOL    HW231062   5.699   0.109   5.856  0.6029 -0.3859 -2.7738
10052SOL     OW31063   7.708   7.666   6.272 -0.3457 -0.0230  0.0702
10052SOL    HW131064   7.760   7.697   6.197 -0.5015 -2.9663 -1.3998
10052SOL    HW231065   7.643   7.607   6.233 -0.6910 -1.3644  2.5013
10053SOL     OW31066   4.925   4.441   7.081  0.1950 -0.8381 -0.1445
10053SOL    HW131067   4.890   4.482   7.002 -2.3927 -0.5269  1.0544
10053SOL    HW231068   4.918   4.509   7.148 -1.3741 -2.2569  1.2065
10054SOL     OW31069   6.701   5.696   2.006 -0.2151  0.0209 -0.0808
10054SOL    HW131070   6.763   5.765   1.983  0.2807  0.5366  2.5631
10054SOL    HW231071   6.675   5.715   2.096 -2.9715 -1.1373 -0.5308
10055SOL     OW31072   3.305   7.475   7.081 -0.4246  0.3195  0.1777
10055SOL    HW131073   3.232   7.448   7.026 -0.9915 -2.5387  2.1062
10055SOL    HW231074   3.383   7.457   7.029 -0.9702  1.5484 -1.1434
10056SOL     OW31075   0.845   6.624   2.422  0.1789  0.2415 -0.3438
10056SOL    HW131076   0.915   6.605   2.359  1.2699  0.8148  0.6476
10056SOL    HW231077   0.842   6.546   2.478 -0.1926  0.1000 -0.5520
10057SOL     OW31078   4.876   6.184   6.453  0.4503  0.6009 -0.5537
10057SOL    HW131079   4.822   6.254   6.489 -0.3350  0.4682 -1.4519
10057SOL    HW231080   4.954   6.184   6.509  1.2283  3.2430 -1.4651
10058SOL     OW31081   2.843   3.529   6.432 -0.2185 -0.2061  0.2646
10058SOL    HW131082   2.870   3.596   6.495 -1.5966 -1.0446  1.8314
10058SOL    HW231083   2.763   3.564   6.393 -0.0887 -0.2703 -0.0632
10059SOL     OW31084   3.413   3.790   0.670  0.0399  0.4138  0.3298
10059SOL    HW131085   3.318   3.776   0.665  0.2406 -0.7577 -0.9317
10059SOL    HW231086   3.427   3.875   0.629 -0.4104  0.2698 -0.1391
10060SOL     OW31087   6.493   6.846   4.341 -0.1728  0.0518  0.0052
10060SOL    HW131088   6.542   6.911   4.391  0.5385 -0.2887 -0.2337
10060SOL    HW231089   6.414   6.831   4.392  2.1028 -3.0298  3.1100
10061SOL     OW31090   7.357   3.248   6.546 -0.3662 -0.2810 -0.5610
10061SOL    HW131091   7.431   3.292   6.504 -0.1881 -0.2849 -0.2527
10061SOL    HW231092   7.393   3.210   6.626 -0.5592 -0.8274 -0.7242
10062SOL     OW31093   4.213   1.897   4.785 -0.2306  0.3786  0.0184
10062SOL    HW131094   4.177   1.955   4.852 -0.7253 -0.3045  0.3544
10062SOL    HW231095   4.288   1.856   4.828 -0.9067 -0.5126  0.3714
10063SOL     OW31096   4.337   7.445   5.229  0.1668  0.3666  0.5229
10063SOL    HW131097   4.410   7.391   5.260  0.6397  0.4758 -0.3554
10063SOL    HW231098   4.379   7.517   5.183 -0.4945  0.2657 -0.2685
10064SOL     OW31099   6.637   3.035   6.551 -0.0984  0.0242 -0.6922
10064SOL    HW131100   6.670   3.125   6.549 -0.8074  0.4471  2.1981
10064SOL    HW231101   6.544   3.044   6.530 -0.3137  0.0768  0.2571
10065SOL     OW31102   4.004   7.648   4.035  0.1686  0.2413 -0.4097
10065SOL    HW131103   4.088   7.691   4.051 -0.6669  1.3443  1.3437
10065SOL    HW231104   4.002   7.576   4.098  1.0933 -1.8723 -2.6062
10066SOL     OW31105   5.426   4.797   5.035 -0.2669  0.1777 -0.1006
10066SOL    HW131106   5.463   4.770   4.951  2.1066  2.0722  0.2315
10066SOL    HW231107   5.456   4.730   5.097  2.1543  1.2536  0.0167
10067SOL     OW31108   4.214   4.462   1.648 -0.8239  0.4432 -0.4213
10067SOL    HW131109   4.246   4.388   1.700  0.0717  0.5503 -0.8110
10067SOL    HW231110   4.207   4.428   1.559  0.5976  1.0916 -0.8081
10068SOL     OW31111   1.668   6.123   5.232  0.5073 -0.6692  0.2830
10068SOL    HW131112   1.703   6.098   5.146 -1.5484 -1.2820 -0.4499
10068SOL    HW231113   1.666   6.041   5.281 -0.0857 -0.6860  0.2334
10069SOL     OW31114   4.613   1.485   2.151  0.0265 -1.0130  0.0364
10069SOL    HW131115   4.553   1.419   2.118 -1.2476  1.6676 -3.7019
10069SOL    HW231116   4.694   1.472   2.102 -0.4882  0.4911 -1.3257
10070SOL     OW31117   7.451   6.683   5.494 -0.1746 -0.0156 -0.2385
10070SOL    HW131118   7.462   6.628   5.572  0.3353  0.4105  0.0014
10070SOL    HW231119   7.529   6.738   5.493 -0.7518  0.8209 -0.3760
10071SOL     OW31120   3.954   5.328   3.471 -0.3803 -0.0678 -0.0729
10071SOL    HW131121   4.021   5.390   3.442  0.6942 -1.0227  0.2899
10071SOL    HW231122   3.897   5.317   3.396 -0.7699  1.5503 -0.0698
10072SOL     OW31123   1.834   1.218   6.317  0.2592 -0.6130 -0.6545
10072SOL    HW131124   1.799   1.196   6.231  0.4541 -1.3362 -0.5587
10072SOL    HW231125   1.885   1.141   6.342  0.2379 -0.3919  0.0869
10073SOL     OW31126   0.707   3.798   3.262 -0.3171  0.1826 -0.0324
10073SOL    HW131127   0.802   3.807   3.259 -0.2732 -0.3303 -0.3167
10073SOL    HW231128   0.690   3.710   3.228 -1.0926  1.3787 -3.1892
10074SOL     OW31129   1.816   5.786   2.565 -0.0725  0.0112 -0.1381
10074SOL    HW131130   1.733   5.764   2.607 -0.0390 -0.6730 -0.4292
10074SOL    HW231131   1.880   5.780   2.636 -0.3727  1.3544  0.2791
10075SOL     OW31132   6.785   0.732   1.271  0.3054 -0.1404 -0.2571
10075SOL    HW131133   6.819   0.646   1.248 -1.3454 -1.0949  0.6339
10075SOL    HW231134   6.763   0.724   1.364 -1.8715  0.5068 -0.6660
10076SOL     OW31135   3.722   1.600   4.591  0.8645  0.1845  0.3124
10076SOL    HW131136   3.650   1.537   4.596  0.8901  0.1270  0.0013
10076SOL    HW231137   3.680   1.682   4.566  0.5825  0.7388  2.4074
10077SOL     OW31138   2.731   6.609   1.074 -0.6463  0.1125  0.7480
10077SOL    HW131139   2.700   6.518   1.075  0.1677 -0.1789  1.5028
10077SOL    HW231140   2.701   6.644   0.991 -2.8287 -0.1840  1.3450
10078SOL     OW31141   6.152   0.536   2.639 -0.2296  0.0507 -0.6040
10078SOL    HW131142   6.100   0.516   2.716  0.6256 -0.0532 -0.0445
10078SOL    HW231143   6.101   0.500   2.566 -0.3585 -1.1398  0.0509
10079SOL     OW31144   5.750   2.453   0.140 -0.1901  0.2531  0.3157
10079SOL    HW131145   5.807   2.476   0.066  0.0266 -0.7529  0.1532
10079SOL    HW231146   5.810   2.418   0.206 -0.5892 -0.6358  0.2201
10080SOL     OW31147   1.187   6.863   6.071  0.0655 -0.6027 -0.6994
10080SOL    HW131148   1.188   6.958   6.072 -2.4774 -0.4551 -2.6531
10080SOL    HW231149   1.278   6.838   6.088  1.0216  2.1658 -1.2596
10081SOL     OW31150   3.230   5.063   6.576 -0.0560  0.0956  0.2727
10081SOL    HW131151   3.262   5.138   6.525 -0.4080  0.9848  1.3256
10081SOL    HW231152   3.136   5.061   6.559 -0.0440 -0.1323  0.2299
10082SOL     OW31153   6.288   0.633   0.430  0.8134 -0.2004 -0.1255
10082SOL    HW131154   6.222   0.586   0.481  1.1182 -0.3050  0.1740
10082SOL    HW231155   6.240   0.705   0.389 -0.0608 -1.7395 -2.0067
10083SOL     OW31156   4.262   4.001   3.315 -0.0974  0.4093 -0.0517
10083SOL    HW131157   4.246   3.960   3.400 -0.1265 -2.4564 -1.2993
10083SOL    HW231158   4.199   4.073   3.310  0.2203  0.9394  2.4665
10084SOL     OW31159   4.855   3.917   3.111 -0.5402  0.5263  0.1079
10084SOL    HW131160   4.808   3.861   3.173 -1.3806  2.4194  1.2915
10084SOL    HW231161   4.947   3.897   3.125 -0.7409  0.5729  1.6951
10085SOL     OW31162   5.138   0.353   4.776  0.3405  0.2298 -0.2720
10085SOL    HW131163   5.045   0.373   4.770  0.2366  0.0003  0.4591
10085SOL    HW231164   5.146   0.263   4.746  0.2309  0.0302  0.2936
10086SOL     OW31165   1.873   7.266   7.310 -0.3595 -0.2251 -0.0812
10086SOL    HW131166   1.885   7.345   7.363 -2.1675 -0.4003  0.6495
10086SOL    HW231167   1.962   7.243   7.282  0.3035  1.5692  0.3879
10087SOL     OW31168   2.626   7.466   3.020 -0.1319 -0.1735 -0.1128
10087SOL    HW131169   2.674   7.523   2.960  0.7100 -0.9211 -0.1768
10087SOL    HW231170   2.676   7.385   3.021 -1.3228 -0.9369 -0.0568
10088SOL     OW31171   5.804   1.556   3.153 -0.5806 -0.8316 -0.4980
10088SOL    HW131172   5.858   1.604   3.090 -1.8933 -0.3042 -1.2416
10088SOL    HW231173   5.845   1.470   3.159  0.6396 -0.2863 -0.6502
10089SOL     OW31174   3.940   6.629   6.959  0.3458 -0.0426 -0.0210
10089SOL    HW131175   4.010   6.574   6.993  0.8552  1.0456  0.7442
10089SOL    HW231176   3.975   6.666   6.878  0.2479 -0.3373 -0.1981
10090SOL     OW31177   1.395   0.833   4.567  0.1015  0.0222  0.0498
10090SOL    HW131178   1.449   0.910   4.585  1.4257 -1.5517  3.6636
10090SOL    HW231179   1.458   0.761   4.557 -1.1819 -1.1787  0.2601
10091SOL     OW31180   5.893   7.312   5.870  0.2179  0.6870 -0.3263
10091SOL    HW131181   5.986   7.305   5.891  0.1713 -1.0029 -0.5508
10091SOL    HW231182   5.890   7.319   5.774  0.0754 -0.7576 -0.4441
10092SOL     OW31183   3.187   0.329   6.730 -0.3561  0.3876 -0.0601
10092SOL    HW131184   3.114   0.276   6.698 -1.2463  2.4615 -1.7634
10092SOL    HW231185   3.265   0.282   6.703 -1.0399 -1.2377  0.6672
10093SOL     OW31186   4.621   1.265   1.728 -0.1423 -0.3727  0.4092
10093SOL    HW131187   4.654   1.268   1.818  0.3405  0.6967  0.2152
10093SOL    HW231188   4.696   1.237   1.676 -0.0192  0.3883  0.1727
10094SOL     OW31189   5.946   1.203   3.237 -0.0312 -0.9777 -0.8283
10094SOL    HW131190   6.008   1.275   3.227  0.2869 -0.8083  1.8577
10094SOL    HW231191   5.943   1.163   3.150  3.0125 -0.3297 -1.3415
10095SOL     OW31192   4.198   7.607   0.457  0.5156  0.0834 -0.3090
10095SOL    HW131193   4.270   7.660   0.423  1.0071 -1.4554 -1.7774
10095SOL    HW231194   4.123   7.632   0.404  0.5417 -0.0259 -0.3994
10096SOL     OW31195   2.786   6.846   4.551  0.4214 -0.3441 -0.4938
10096SOL    HW131196   2.869   6.820   4.513  0.8004  1.0872 -0.7115
10096SOL    HW231197   2.732   6.871   4.477  0.1897 -0.1958 -0.2781
10097SOL     OW31198   4.607   6.837   1.809  0.0287 -0.3579 -0.4086
10097SOL    HW131199   4.697   6.833   1.840  0.9071  1.3032 -2.4681
10097SOL    HW231200   4.555   6.802   1.881  2.1452  0.3040  1.5642
10098SOL     OW31201   3.008   1.094   7.559  0.8825 -0.4603  0.3001
10098SOL    HW131202   3.092   1.071   7.520  0.4880  1.2828 -1.7803
10098SOL    HW231203   2.982   1.174   7.513 -0.7942  0.3915  2.5589
10099SOL     OW31204   1.047   6.802   1.573  0.0879 -0.2616  0.0394
10099SOL    HW131205   1.051   6.887   1.528 -1.7641  0.3655  0.9424
10099SOL    HW231206   0.969   6.760   1.536 -0.1822 -0.6736  1.0649
10100SOL     OW31207   4.602   2.514   5.157  0.0313 -0.6979 -0.2604
10100SOL    HW131208   4.550   2.446   5.200 -0.5422 -0.6455 -0.8638
10100SOL    HW231209   4.693   2.489   5.176 -0.1689 -1.6354 -0.4726
10101SOL     OW31210   3.782   3.002   3.353  0.0818 -0.2271  0.1171
10101SOL    HW131211   3.835   2.967   3.424 -0.6431 -0.0044  0.7722
10101SOL    HW231212   3.711   2.939   3.342  0.9840 -1.0220 -1.3987
10102SOL     OW31213   1.872   3.044   7.318 -0.3030  0.4392 -0.1073
10102SOL    HW131214   1.926   3.122   7.311  1.6818 -0.8959 -0.6815
10102SOL    HW231215   1.920   2.977   7.269 -1.7649 -1.2277  0.6013
10103SOL     OW31216   6.070   1.375   5.112  0.2479  0.3447  0.0833
10103SOL    HW131217   6.034   1.451   5.067  0.6443  1.0546  0.9310
10103SOL    HW231218   6.011   1.361   5.186  0.6816  0.3916  0.4425
10104SOL     OW31219   2.774   4.715   4.661 -0.3331 -0.4737 -0.1471
10104SOL    HW131220   2.696   4.674   4.625 -0.1215 -0.3991 -0.7188
10104SOL    HW231221   2.770   4.806   4.629  0.5266 -0.7516 -1.1034
10105SOL     OW31222   3.152   2.925   5.692  0.2966 -0.5066  0.2114
10105SOL    HW131223   3.100   2.933   5.612  0.7953 -0.3372 -0.1026
10105SOL    HW231224   3.111   2.985   5.754  0.2697 -0.1828 -0.1173
10106SOL     OW31225   5.127   5.467   4.845 -0.3481  0.2871 -0.2124
10106SOL    HW131226   5.137   5.552   4.889  0.3155  0.6428 -1.0320
10106SOL    HW231227   5.034   5.462   4.826 -0.4560  0.6609  0.1744
10107SOL     OW31228   4.564   5.752   4.224  0.3007  0.5889  0.5413
10107SOL    HW131229   4.635   5.754   4.288  0.2942  0.2523  0.5646
10107SOL    HW231230   4.534   5.661   4.226  0.5367  0.4938 -0.2001
10108SOL     OW31231   6.199   5.935   5.403  0.0155 -0.4042 -0.0403
10108SOL    HW131232   6.231   5.866   5.345 -0.0403  0.5024 -1.2010
10108SOL    HW231233   6.183   5.891   5.486  0.9598 -1.5751 -0.4372
10109SOL     OW31234   2.387   1.762   7.628  0.1852  0.2424  0.6680
10109SOL    HW131235   2.304   1.788   7.589 -1.0077 -1.8350  1.6364
10109SOL    HW231236   2.441   1.840   7.623 -1.3093  1.2507 -1.3047
10110SOL     OW31237   4.732   7.610   5.112  0.4736 -0.3469 -0.1922
10110SOL    HW131238   4.774   7.534   5.071 -0.5414  0.2584 -2.4812
10110SOL    HW231239   4.640   7.602   5.089  0.3461  1.5718 -0.5181
10111SOL     OW31240   6.989   2.106   1.926  0.1341 -0.1155  0.2790
10111SOL    HW131241   7.066   2.064   1.889  1.2294  0.7591  1.4787
10111SOL    HW231242   6.954   2.159   1.854  1.3721  0.4238  0.0465
10112SOL     OW31243   3.173   7.235   7.477  0.5710 -0.4838  0.8896
10112SOL    HW131244   3.226   7.241   7.557  0.5665  0.4408  0.8317
10112SOL    HW231245   3.201   7.154   7.436  1.5381 -0.2966  1.1547
10113SOL     OW31246   4.506   4.306   4.877 -0.1541 -0.6495  0.3273
10113SOL    HW131247   4.594   4.313   4.916  0.3352  0.5803 -0.9119
10113SOL    HW231248   4.460   4.384   4.908 -0.0453 -0.1108 -0.8175
10114SOL     OW31249   2.630   0.617   1.923 -0.1030  0.3470 -0.1352
10114SOL    HW131250   2.667   0.704   1.936 -1.1039  1.0479 -1.7282
10114SOL    HW231251   2.696   0.568   1.875  0.3470  0.2979  0.5216
10115SOL     OW31252   5.548   5.496   5.845  0.3936  0.1527  0.2633
10115SOL    HW131253   5.473   5.514   5.903  0.5564  1.6120  0.0449
10115SOL    HW231254   5.575   5.407   5.869 -1.5370 -0.4936  0.1984
10116SOL     OW31255   4.885   1.135   2.346 -0.4609 -0.0021 -0.0727
10116SOL    HW131256   4.950   1.072   2.316 -0.2528  0.6539 -1.0443
10116SOL    HW231257   4.810   1.124   2.287 -1.0794 -0.4562  0.7701
10117SOL     OW31258   1.101   6.995   4.414 -0.3363  0.3066  0.2285
10117SOL    HW131259   1.112   6.993   4.509 -2.1501  2.7801  0.5868
10117SOL    HW231260   1.160   7.064   4.384 -0.1025 -0.1562 -0.3937
10118SOL     OW31261   0.973   5.078   5.244  0.1510 -0.3811 -0.2492
10118SOL    HW131262   1.065   5.104   5.237 -0.2376  0.7803 -1.4577
10118SOL    HW231263   0.924   5.159   5.229 -1.0877 -1.2793 -1.2597
10119SOL     OW31264   4.452   1.349   4.780 -0.1241 -0.2283  0.7201
10119SOL    HW131265   4.501   1.318   4.856 -0.5876 -0.7215  0.8310
10119SOL    HW231266   4.368   1.303   4.786  0.2851 -1.2677 -0.7674
10120SOL     OW31267   4.289   3.259   7.547  0.2865 -0.6237 -0.6194
10120SOL    HW131268   4.265   3.317   7.618 -0.1145 -0.9879 -0.4554
10120SOL    HW231269   4.288   3.315   7.469 -2.6687 -0.9154 -0.9008
10121SOL     OW31270   5.693   5.645   0.368 -0.1568  0.0597 -0.4628
10121SOL    HW131271   5.647   5.702   0.429  1.2115 -1.0539  1.7624
10121SOL    HW231272   5.771   5.695   0.344 -0.4456  0.3002 -0.9015
10122SOL     OW31273   0.614   4.348   0.028  0.5247  0.1896 -0.6938
10122SOL    HW131274   0.602   4.267   0.078  0.7989  0.0766 -0.8061
10122SOL    HW231275   0.595   4.418   0.090  2.1141  0.0891 -0.0401
10123SOL     OW31276   7.162   1.811   2.024  0.6071  0.2090 -0.1635
10123SOL    HW131277   7.104   1.737   2.006 -0.3232  1.1739 -1.3332
10123SOL    HW231278   7.178   1.808   2.118 -2.8508  0.9373  0.5641
10124SOL     OW31279   1.374   3.551   5.276  0.1852  0.2206  0.5153
10124SOL    HW131280   1.330   3.623   5.321  1.0910 -0.2293  2.2264
10124SOL    HW231281   1.458   3.542   5.321  2.6512  1.7600 -3.3249
10125SOL     OW31282   5.178   0.973   4.342 -0.1650  0.1600 -0.2909
10125SOL    HW131283   5.122   1.046   4.369 -1.2520  0.0619 -2.1167
10125SOL    HW231284   5.266   1.011   4.337 -0.1915  0.5706  1.6435
10126SOL     OW31285   1.459   5.273   5.322 -0.2720 -0.0433 -0.5216
10126SOL    HW131286   1.376   5.307   5.292 -0.3938 -0.6736 -0.9239
10126SOL    HW231287   1.524   5.309   5.262 -0.0265  1.7944  0.7830
10127SOL     OW31288   3.974   0.556   0.610  0.3226 -0.2402 -0.0431
10127SOL    HW131289   3.996   0.466   0.588  0.2194 -0.3045  0.1139
10127SOL    HW231290   4.031   0.578   0.683 -1.5496 -1.1197  1.7934
10128SOL     OW31291   5.139   7.186   0.717  0.2409 -0.8590 -0.4810
10128SOL    HW131292   5.214   7.150   0.763  1.3115  2.3988  0.6143
10128SOL    HW231293   5.171   7.202   0.628  1.7837  2.5016  0.4989
10129SOL     OW31294   6.748   7.134   0.557 -0.2993  0.7213 -0.2021
10129SOL    HW131295   6.721   7.074   0.488 -0.2935  1.3125 -0.7237
10129SOL    HW231296   6.718   7.220   0.528  0.0917  1.0413  0.3197
10130SOL     OW31297   3.532   2.172   0.308 -0.1365 -0.4669  0.5290
10130SOL    HW131298   3.586   2.222   0.369 -1.6639  0.0794  1.4880
10130SOL    HW231299   3.518   2.232   0.235 -1.5375  0.3952  1.4470
10131SOL     OW31300   4.476   2.788   0.537  0.1937 -0.1906  0.0595
10131SOL    HW131301   4.390   2.792   0.579 -0.1155 -0.6414 -0.5208
10131SOL    HW231302   4.538   2.791   0.610 -0.3394 -1.3404  0.5827
10132SOL     OW31303   2.444   6.428   4.297  0.1044  0.3803  0.1967
10132SOL    HW131304   2.407   6.341   4.281  0.4847 -0.2098  2.2559
10132SOL    HW231305   2.393   6.487   4.242 -0.8996 -0.9974 -0.3924
10133SOL     OW31306   7.426   2.237   0.650 -0.3313  0.6828  0.6713
10133SOL    HW131307   7.447   2.161   0.704  2.8682  1.0932  0.2401
10133SOL    HW231308   7.393   2.201   0.568  0.2716 -0.2160  0.8154
10134SOL     OW31309   2.992   2.381   2.354  0.5207 -0.3547 -0.4492
10134SOL    HW131310   3.085   2.402   2.339  0.7487 -0.1320  1.1040
10134SOL    HW231311   2.959   2.455   2.405 -0.4722 -0.5330 -0.8077
10135SOL     OW31312   5.856   2.025   5.332  0.3026  0.0798 -0.0999
10135SOL    HW131313   5.897   2.105   5.367  0.0760 -0.3458  1.1666
10135SOL    HW231314   5.930   1.969   5.309  0.4555  0.0188  0.5220
10136SOL     OW31315   7.212   7.215   1.517  0.0551 -0.1430  0.6666
10136SOL    HW131316   7.117   7.204   1.509  0.0555 -0.5963  1.1684
10136SOL    HW231317   7.235   7.282   1.453 -0.3419 -1.3475 -0.8062
10137SOL     OW31318   4.873   3.425   1.204 -0.0729  0.2946 -0.1878
10137SOL    HW131319   4.941   3.372   1.246 -0.1161 -0.1604 -0.6848
10137SOL    HW231320   4.914   3.462   1.127  0.6338  2.8304  1.2908
10138SOL     OW31321   1.779   2.804   7.386 -0.0800 -0.1139 -0.4329
10138SOL    HW131322   1.732   2.765   7.312  0.8459 -1.8595 -0.1676
10138SOL    HW231323   1.805   2.891   7.356  0.2222 -0.7564 -2.1453
10139SOL     OW31324   0.792   7.500   5.374  0.0113 -0.4853  0.3735
10139SOL    HW131325   0.802   7.591   5.346 -2.0379  0.0986  1.3274
10139SOL    HW231326   0.800   7.450   5.293 -1.2756  0.7684 -0.5954
10140SOL     OW31327   0.218   0.787   0.966 -0.4332  0.0965 -0.0822
10140SOL    HW131328   0.183   0.817   1.050 -0.9516  0.1765 -0.3200
10140SOL    HW231329   0.154   0.721   0.937  0.0235 -0.3129 -0.1610
10141SOL     OW31330   6.158   3.231   0.228 -0.2533 -0.0682  0.3072
10141SOL    HW131331   6.252   3.253   0.226  0.0407 -1.2049  0.8187
10141SOL    HW231332   6.143   3.204   0.319 -1.0509 -0.0240  0.1897
10142SOL     OW31333   7.109   4.149   2.196  0.0308 -0.0788 -0.3196
10142SOL    HW131334   7.202   4.160   2.178  0.3618 -1.9557  0.0507
10142SOL    HW231335   7.097   4.183   2.284  0.1821  0.9208 -0.6726
10143SOL     OW31336   5.586   0.066   3.810 -0.8434 -0.0581 -0.6911
10143SOL    HW131337   5.602   0.155   3.781  1.3492 -0.6701 -1.5155
10143SOL    HW231338   5.512   0.037   3.757 -1.1138  1.0161 -0.9277
10144SOL     OW31339   3.489   7.103   1.216  0.1726 -0.2122 -0.1428
10144SOL    HW131340   3.514   7.126   1.126 -1.0548 -0.2464 -0.5057
10144SOL    HW231341   3.409   7.052   1.206  0.0861 -0.3107  0.9717
10145SOL     OW31342   1.546   3.800   4.752 -0.1906  0.1231 -0.4893
10145SOL    HW131343   1.483   3.798   4.680 -0.2209 -0.5605 -0.4544
10145SOL    HW231344   1.603   3.725   4.736 -0.8172 -0.6552  0.7343
10146SOL     OW31345   6.701   6.215   5.578 -0.1708  0.2504 -0.2188
10146SOL    HW131346   6.712   6.170   5.494 -0.2323 -0.4980  0.1759
10146SOL    HW231347   6.778   6.271   5.586  0.2570 -0.3170 -0.3717
10147SOL     OW31348   2.751   4.518   7.092 -0.2533 -0.4032 -0.6986
10147SOL    HW131349   2.662   4.507   7.127 -0.6159 -1.4534 -1.8792
10147SOL    HW231350   2.738   4.554   7.005  0.6410  2.0885  0.1088
10148SOL     OW31351   7.468   6.384   6.108 -0.3239 -0.5285  0.7283
10148SOL    HW131352   7.483   6.455   6.170  2.4868  0.8846 -1.3239
10148SOL    HW231353   7.395   6.413   6.055  1.8848  1.8972 -1.2409
10149SOL     OW31354   3.833   1.186   6.995  0.1612 -0.3575 -0.3704
10149SOL    HW131355   3.771   1.217   7.061  0.7864  1.3226 -0.5241
10149SOL    HW231356   3.816   1.092   6.988 -3.8715  0.2848 -1.9367
10150SOL     OW31357   0.357   7.415   3.243  0.3000 -0.0544  0.3865
10150SOL    HW131358   0.410   7.337   3.259  1.0865  0.6383  1.2341
10150SOL    HW231359   0.413   7.488   3.269 -1.1848  0.6859  1.6735
10151SOL     OW31360   1.971   4.156   4.172 -1.1969 -0.2058 -0.1207
10151SOL    HW131361   1.922   4.206   4.105  1.4469  1.8088 -0.7236
10151SOL    HW231362   2.038   4.109   4.122  0.1410  0.4705  0.9818
10152SOL     OW31363   3.134   3.826   7.730  0.1210  0.6357 -0.0122
10152SOL    HW131364   3.156   3.831   7.637 -1.4376 -1.5815 -0.6003
10152SOL    HW231365   3.046   3.863   7.737  0.0462  0.3835  0.4926
10153SOL     OW31366   4.792   2.693   0.433  0.0947 -0.6159 -0.3747
10153SOL    HW131367   4.868   2.751   0.436 -1.7732  2.0978 -1.6207
10153SOL    HW231368   4.759   2.692   0.522 -0.4663  1.2310 -0.5213
10154SOL     OW31369   6.652   3.893   0.255  0.2480 -0.3767 -0.0220
10154SOL    HW131370   6.673   3.969   0.310 -1.8714  0.5039 -0.3501
10154SOL    HW231371   6.632   3.823   0.317 -0.3613  0.1020  0.3347
10155SOL     OW31372   7.402   7.527   3.947 -0.0027 -0.1773 -0.4979
10155SOL    HW131373   7.381   7.437   3.972 -1.2218  0.6770  1.8882
10155SOL    HW231374   7.316   7.569   3.934  0.5269  0.8271 -0.8581
10156SOL     OW31375   0.124   1.725   2.110  0.4533  0.1768  0.1836
10156SOL    HW131376   0.201   1.696   2.158  0.7784  0.4833 -0.1458
10156SOL    HW231377   0.091   1.646   2.067 -0.1565 -0.2142  1.3273
10157SOL     OW31378   6.638   5.048   6.660 -0.2032 -0.0704  0.9698
10157SOL    HW131379   6.578   5.093   6.720 -0.2478  0.2010  0.7249
10157SOL    HW231380   6.629   4.955   6.682  0.1169  0.0681  1.6813
10158SOL     OW31381   5.778   4.952   0.288 -0.7798  0.1542  1.0608
10158SOL    HW131382   5.859   4.901   0.292  0.3482  1.7695 -0.1923
10158SOL    HW231383   5.803   5.035   0.249 -2.7911  1.2618  1.9565
10159SOL     OW31384   0.977   3.676   3.334 -0.8445  0.0940 -0.5249
10159SOL    HW131385   0.960   3.708   3.245 -1.5168 -0.0853 -0.4732
10159SOL    HW231386   1.047   3.732   3.367 -1.0499  0.6012 -0.9268
10160SOL     OW31387   1.606   0.221   0.345  0.4169 -0.0561 -0.8440
10160SOL    HW131388   1.602   0.227   0.249 -0.9686 -0.8121 -0.8671
10160SOL    HW231389   1.514   0.217   0.372  0.7786  0.4493  0.5556
10161SOL     OW31390   3.726   7.632   0.036 -0.0754  0.0718  0.4803
10161SOL    HW131391   3.691   7.574  -0.032  1.2820 -0.8293  0.5085
10161SOL    HW231392   3.652   7.687   0.061 -1.2825 -1.2741  0.0399
10162SOL     OW31393   5.465   5.815   7.275 -0.5093  0.1027 -0.7333
10162SOL    HW131394   5.425   5.820   7.188 -1.7857 -1.0298 -0.2493
10162SOL    HW231395   5.416   5.745   7.320  1.1542 -0.4155  0.3609
10163SOL     OW31396   3.246   4.017   6.929 -0.2537  0.4473 -1.1254
10163SOL    HW131397   3.317   4.016   6.993 -0.8073  0.5311 -0.5023
10163SOL    HW231398   3.283   4.060   6.852 -0.0352  1.7275 -0.3329
10164SOL     OW31399   1.982   0.387   2.152 -0.4223  0.8471  0.7753
10164SOL    HW131400   2.037   0.309   2.149  1.2129  1.9517  0.2398
10164SOL    HW231401   2.022   0.442   2.219 -1.0997  1.5291  0.6405
10165SOL     OW31402   4.493   2.606   4.189 -0.3960  0.1320 -0.0301
10165SOL    HW131403   4.495   2.675   4.123  1.1937 -0.1315 -0.3058
10165SOL    HW231404   4.584   2.601   4.221 -0.6158 -1.3786  0.4425
10166SOL     OW31405   3.605   5.744   3.880 -0.4935 -0.7726 -0.2137
10166SOL    HW131406   3.552   5.762   3.802 -0.3434 -1.2680 -0.4348
10166SOL    HW231407   3.695   5.739   3.847 -0.5447 -2.1109 -0.2019
10167SOL     OW31408   6.456   3.084   2.992  0.0821 -0.5348 -0.1210
10167SOL    HW131409   6.547   3.114   2.998  0.0946 -0.0207 -2.1081
10167SOL    HW231410   6.458   2.993   3.020  1.1117 -0.3722  0.3601
10168SOL     OW31411   2.890   2.499   3.985 -0.0921 -0.2590  0.3893
10168SOL    HW131412   2.880   2.411   3.949 -1.6824  0.5616 -1.3739
10168SOL    HW231413   2.950   2.544   3.925 -0.3367  0.2360  0.5044
10169SOL     OW31414   4.966   3.141   6.767 -0.6387  0.5558  0.0281
10169SOL    HW131415   4.993   3.051   6.749  0.0003  0.7025  0.2340
10169SOL    HW231416   4.895   3.132   6.831  0.2179  0.2385  0.9644
10170SOL     OW31417   7.471   3.852   6.082  0.9507 -0.4774 -0.6745
10170SOL    HW131418   7.544   3.913   6.097  0.2115  0.1266  0.6187
10170SOL    HW231419   7.432   3.882   5.999  0.9193  0.5052 -0.3273
10171SOL     OW31420   1.801   7.280   5.938 -0.4714 -0.1686 -0.2213
10171SOL    HW131421   1.843   7.366   5.937  0.3670 -0.5681 -0.0218
10171SOL    HW231422   1.720   7.293   5.888 -1.4843  1.2752  1.6772
10172SOL     OW31423   6.848   1.493   3.426 -0.2090  0.7705 -0.0277
10172SOL    HW131424   6.805   1.413   3.456  1.0489 -0.4519 -1.4303
10172SOL    HW231425   6.940   1.481   3.447 -0.0554  2.0557  0.1344
10173SOL     OW31426   7.306   2.064   7.706  0.0742 -0.3828 -0.0052
10173SOL    HW131427   7.213   2.079   7.695 -0.0992 -1.5679 -0.3498
10173SOL    HW231428   7.349   2.131   7.652 -0.6580 -2.2055 -3.0959
10174SOL     OW31429   6.195   4.524   3.011  0.2436  0.1650  0.2219
10174SOL    HW131430   6.118   4.471   3.035  0.9631 -0.5162  1.1095
10174SOL    HW231431   6.221   4.566   3.093  1.2645 -0.2038  0.0970
10175SOL     OW31432   1.412   1.674   4.066 -1.1157 -0.3529 -0.2565
10175SOL    HW131433   1.391   1.583   4.084  1.1625 -1.6111 -3.0213
10175SOL    HW231434   1.486   1.694   4.123 -0.4111 -0.9096 -0.9567
10176SOL     OW31435   7.484   6.273   0.352  0.1282 -0.0894  0.1658
10176SOL    HW131436   7.472   6.316   0.437  1.3762  0.3737  0.1260
10176SOL    HW231437   7.399   6.281   0.309  0.1262  1.7462  0.4368
10177SOL     OW31438   3.383   0.244   3.956 -0.6214 -0.1171 -0.2207
10177SOL    HW131439   3.289   0.229   3.954 -0.8574  1.2461 -0.9240
10177SOL    HW231440   3.392   0.336   3.983  0.4814 -0.0581 -0.7277
10178SOL     OW31441   0.816   7.731   7.467  0.0138 -0.0542 -0.4512
10178SOL    HW131442   0.854   7.647   7.495 -0.9396 -1.7726 -3.7848
10178SOL    HW231443   0.758   7.756   7.539 -0.1643 -2.6234  0.4005
10179SOL     OW31444   3.485   0.224   2.943  0.6977 -0.2234 -0.0077
10179SOL    HW131445   3.497   0.221   2.848  1.0094 -0.7339  0.0432
10179SOL    HW231446   3.564   0.183   2.978  0.5631 -0.0753  0.4707
10180SOL     OW31447   6.804   5.939   2.361 -0.3536  0.8652 -0.4473
10180SOL    HW131448   6.768   5.913   2.276 -0.2008  0.2525 -0.3299
10180SOL    HW231449   6.743   6.004   2.395 -2.6300 -1.7027  0.7704
10181SOL     OW31450   3.350   0.998   4.811 -0.2103  0.5750  0.2454
10181SOL    HW131451   3.264   1.036   4.828 -0.3792  0.4198 -0.2463
10181SOL    HW231452   3.379   0.966   4.896 -1.4896 -1.1349  0.0920
10182SOL     OW31453   2.310   4.889   2.617  0.5893  0.4398 -0.1295
10182SOL    HW131454   2.389   4.905   2.566  1.0565  0.0047  0.4462
10182SOL    HW231455   2.300   4.794   2.617 -0.4111  0.5308 -0.9042
10183SOL     OW31456   6.023   3.306   2.258  0.1610  0.2660  0.2353
10183SOL    HW131457   6.090   3.292   2.191 -0.0873 -2.3689  0.4113
10183SOL    HW231458   5.943   3.323   2.209  0.2365 -0.3438 -0.1062
10184SOL     OW31459   4.324   4.816   2.967  0.3961  0.6429 -0.3635
10184SOL    HW131460   4.326   4.908   2.994 -0.7312  0.0737  1.9828
10184SOL    HW231461   4.414   4.785   2.980  0.3073  0.8994  1.0922
10185SOL     OW31462   2.349   6.740   1.008 -0.5908  0.0469 -0.3883
10185SOL    HW131463   2.257   6.765   1.017 -0.1195  1.5782  0.4016
10185SOL    HW231464   2.398   6.808   1.053  1.0302 -0.0144 -1.9270
10186SOL     OW31465   5.182   6.254   5.070 -0.6262  0.0911 -0.7526
10186SOL    HW131466   5.089   6.273   5.060 -0.5962  1.0600  0.5487
10186SOL    HW231467   5.212   6.232   4.982 -2.5247 -2.3727 -0.8851
10187SOL     OW31468   5.032   0.821   6.537 -0.1552 -0.0458  0.0385
10187SOL    HW131469   4.983   0.888   6.583  2.2455  1.6238  0.3739
10187SOL    HW231470   5.030   0.849   6.445 -1.4100 -1.0546 -0.2647
10188SOL     OW31471   7.387   6.540   4.780  0.2323 -0.1002  0.2674
10188SOL    HW131472   7.305   6.507   4.817 -0.1214 -0.0609 -0.4746
10188SOL    HW231473   7.418   6.468   4.724  0.5705 -0.0117  0.3408
10189SOL     OW31474   2.610   1.151   5.134  0.4682 -0.1250  0.0518
10189SOL    HW131475   2.643   1.183   5.218  0.7079  0.0188 -0.0944
10189SOL    HW231476   2.562   1.071   5.155 -0.3770  0.4882  0.4521
10190SOL     OW31477   7.466   0.537   7.136  0.3007 -0.8669 -0.0372
10190SOL    HW131478   7.455   0.536   7.041  0.1829 -3.5336 -0.0580
10190SOL    HW231479   7.377   0.523   7.170  0.4967 -0.9998  0.4275
10191SOL     OW31480   5.662   4.167   6.040  0.0039 -0.2183 -0.2912
10191SOL    HW131481   5.632   4.253   6.066  1.3550  0.2189 -0.0919
10191SOL    HW231482   5.601   4.140   5.971 -0.2527  1.0255 -0.5773
10192SOL     OW31483   6.365   1.496   7.437 -0.4301  0.4713  0.3254
10192SOL    HW131484   6.321   1.557   7.497 -1.3508 -0.6360  0.8105
10192SOL    HW231485   6.413   1.437   7.495  1.3870  1.3683 -0.1810
10193SOL     OW31486   0.620   0.433   4.988 -0.2556  0.1075  0.1107
10193SOL    HW131487   0.527   0.434   5.012 -0.3081  0.5839 -0.1075
10193SOL    HW231488   0.665   0.410   5.070 -0.4597  1.3067  0.5810
10194SOL     OW31489   0.429   4.714   3.807 -0.1751  0.1783 -0.3368
10194SOL    HW131490   0.431   4.679   3.718 -0.9558  0.4311 -0.4623
10194SOL    HW231491   0.423   4.808   3.796  1.2734  0.3246 -0.0009
10195SOL     OW31492   7.105   7.558   0.433 -0.2065 -0.7781 -0.4328
10195SOL    HW131493   7.135   7.504   0.360  1.5105 -0.4237 -0.0355
10195SOL    HW231494   7.013   7.576   0.414  0.5550  0.5803 -3.3368
10196SOL     OW31495   0.743   3.998   6.030 -0.0922  0.0531  1.0421
10196SOL    HW131496   0.788   4.059   5.971 -1.0919  1.2872  1.4987
10196SOL    HW231497   0.691   3.942   5.973 -1.9568  1.9752  0.7234
10197SOL     OW31498   4.718   6.734   5.964 -0.3906  0.1636 -0.0539
10197SOL    HW131499   4.688   6.656   5.918  0.7356 -0.2910 -0.0436
10197SOL    HW231500   4.647   6.755   6.025 -0.8045 -0.7173 -0.2154
10198SOL     OW31501   3.342   0.957   6.034 -0.2920  0.5341  0.1659
10198SOL    HW131502   3.330   0.970   6.128 -1.2338 -0.3144  0.1777
10198SOL    HW231503   3.303   1.035   5.994 -1.9342 -0.1001  0.4147
10199SOL     OW31504   4.122   7.088   7.409  0.4162  0.0098  0.1781
10199SOL    HW131505   4.185   7.033   7.364  0.0567  1.0943 -1.7655
10199SOL    HW231506   4.164   7.174   7.413  0.7527 -0.1951  2.6809
10200SOL     OW31507   4.715   3.656   3.205 -0.3568  0.1108 -0.1619
10200SOL    HW131508   4.687   3.606   3.128 -0.1773 -0.4003  0.1024
10200SOL    HW231509   4.671   3.612   3.279  1.6583 -1.1594  0.3554
10201SOL     OW31510   7.724   4.931   2.529  0.0857  0.5789  0.3759
10201SOL    HW131511   7.754   4.856   2.580 -0.7377 -0.0200  0.0080
10201SOL    HW231512   7.629   4.932   2.541  0.1334  1.8820  0.7873
10202SOL     OW31513   2.255   1.435   0.131 -0.2986  0.1295  0.0249
10202SOL    HW131514   2.232   1.375   0.060  1.1533  0.6452 -0.9276
10202SOL    HW231515   2.170   1.468   0.162 -1.0303 -1.1770 -0.5082
10203SOL     OW31516   3.828   7.024   6.743  0.1079 -0.1064 -0.6289
10203SOL    HW131517   3.897   7.077   6.784 -0.7532  1.0112 -0.5615
10203SOL    HW231518   3.844   6.935   6.773  1.0393  0.2680  0.0275
10204SOL     OW31519   5.964   2.695   1.106 -0.7919 -0.0532 -0.5392
10204SOL    HW131520   6.000   2.695   1.018  0.0324  0.8843 -0.2160
10204SOL    HW231521   5.882   2.743   1.099  0.0651  1.4715 -0.5127
10205SOL     OW31522   4.925   3.133   4.211 -0.3546 -0.5941 -0.4817
10205SOL    HW131523   4.895   3.112   4.122 -0.5302  0.0513 -0.5773
10205SOL    HW231524   4.997   3.072   4.226 -0.0063 -0.3867 -1.2484
10206SOL     OW31525   4.361   1.937   3.389  0.2119 -0.8722  0.2750
10206SOL    HW131526   4.296   1.997   3.353 -2.0109 -2.8905  0.7297
10206SOL    HW231527   4.427   1.929   3.320 -0.0261  1.1226 -0.2449
10207SOL     OW31528   3.649   6.830   0.192  0.0642  0.0733 -0.7302
10207SOL    HW131529   3.720   6.889   0.217 -0.9725  0.4942  1.4840
10207SOL    HW231530   3.658   6.755   0.251  0.0770 -1.0143 -2.0648
10208SOL     OW31531   7.495   1.849   1.059 -0.4846  0.0351  0.1997
10208SOL    HW131532   7.401   1.837   1.068 -0.4706 -1.0984 -0.8689
10208SOL    HW231533   7.504   1.923   0.997 -0.6153  1.6869  2.0551
10209SOL     OW31534   5.781   5.635   1.809 -0.1122  0.0412 -0.4224
10209SOL    HW131535   5.788   5.556   1.864  1.0691  0.6423  0.3396
10209SOL    HW231536   5.831   5.612   1.730 -2.1033 -0.9502 -1.4600
10210SOL     OW31537   0.507   7.073   1.175 -0.0364  0.4770 -0.1744
10210SOL    HW131538   0.467   7.035   1.097  2.4758 -0.5165 -1.0541
10210SOL    HW231539   0.498   7.168   1.163  0.8140  0.3714 -1.9952
10211SOL     OW31540   6.867   5.947   5.074 -0.4872 -0.2888  0.3603
10211SOL    HW131541   6.918   5.962   4.995 -1.4620  1.0338 -0.0498
10211SOL    HW231542   6.780   5.981   5.054 -0.8971 -0.3812  1.8344
10212SOL     OW31543   7.186   6.161   5.566  0.1811  0.1695 -0.2281
10212SOL    HW131544   7.143   6.187   5.647  0.5075  0.1210 -0.0387
10212SOL    HW231545   7.118   6.168   5.499  0.2111  1.3256 -0.1494
10213SOL     OW31546   5.195   7.233   5.869  0.4024 -0.0504 -0.2655
10213SOL    HW131547   5.211   7.176   5.944 -0.4162  0.3167  0.1957
10213SOL    HW231548   5.157   7.176   5.803 -1.4130  0.1287  0.5674
10214SOL     OW31549   4.419   5.842   3.667  0.2577 -0.1045  0.3004
10214SOL    HW131550   4.494   5.812   3.718  0.2018 -1.2622 -0.2594
10214SOL    HW231551   4.457   5.877   3.587  0.3607  1.9302  1.2013
10215SOL     OW31552   4.474   4.217   5.965 -0.0123  0.6023 -0.7508
10215SOL    HW131553   4.523   4.149   6.011  0.0114  0.1767 -1.3821
10215SOL    HW231554   4.383   4.205   5.993  0.0284  0.4491 -0.6844
10216SOL     OW31555   3.916   1.185   2.728 -0.0328 -0.0887 -0.0216
10216SOL    HW131556   3.901   1.168   2.635 -0.2762  1.8640 -0.3838
10216SOL    HW231557   3.895   1.102   2.771 -1.3561 -0.6134 -1.5682
10217SOL     OW31558   5.255   3.816   5.393 -0.2981 -0.9397  0.0737
10217SOL    HW131559   5.274   3.906   5.420 -1.9922 -0.1855 -1.0519
10217SOL    HW231560   5.305   3.805   5.313 -0.2697 -0.9048  0.0865
10218SOL     OW31561   5.649   3.550   4.356  0.1846 -0.7342 -0.6230
10218SOL    HW131562   5.577   3.486   4.360  2.0619 -3.0272 -1.4267
10218SOL    HW231563   5.728   3.497   4.363  1.8678  1.5583 -1.2871
10219SOL     OW31564   3.242   2.901   7.599  0.1918  0.1153 -0.0780
10219SOL    HW131565   3.250   2.810   7.570 -1.3967 -0.2679  0.5796
10219SOL    HW231566   3.310   2.948   7.552  1.6219 -1.5719  0.2359
10220SOL     OW31567   7.559   6.717   1.934  0.1713  0.2975  0.0607
10220SOL    HW131568   7.576   6.796   1.985 -1.3590  0.3269  0.5848
10220SOL    HW231569   7.582   6.741   1.844 -0.6714  1.4853  0.1384
10221SOL     OW31570   0.783   1.541   3.782 -0.1268 -0.2526 -0.6461
10221SOL    HW131571   0.724   1.615   3.769 -0.9657 -1.1956 -2.6096
10221SOL    HW231572   0.813   1.550   3.873 -1.5715  1.4850 -0.2806
10222SOL     OW31573   4.034   0.964   1.261  0.3133 -0.1066 -0.3573
10222SOL    HW131574   4.002   1.018   1.189  3.0566  1.6994 -0.3780
10222SOL    HW231575   4.117   0.929   1.229 -0.0566 -2.0893  0.7265
10223SOL     OW31576   4.905   6.087   6.743 -0.3297  0.2645  0.3545
10223SOL    HW131577   4.992   6.076   6.706  1.0169 -0.1420  3.4175
10223SOL    HW231578   4.900   6.181   6.763 -0.1465  0.0935  1.2071
10224SOL     OW31579   5.685   7.688   4.254 -0.0380 -0.6155  0.0654
10224SOL    HW131580   5.706   7.602   4.217 -0.8845 -0.8023  0.0032
10224SOL    HW231581   5.752   7.746   4.218  0.4195 -1.1983 -0.0569
10225SOL     OW31582   5.397   3.729   0.253  0.1020  0.2614  0.2125
10225SOL    HW131583   5.391   3.755   0.162  2.4395 -0.5442 -0.2358
10225SOL    HW231584   5.316   3.679   0.269 -0.3254  0.3815 -1.4104
10226SOL     OW31585   4.633   6.301   0.922 -0.0822  0.0192 -0.7727
10226SOL    HW131586   4.714   6.346   0.900 -0.8068  1.6489 -0.2202
10226SOL    HW231587   4.581   6.366   0.969 -0.7172 -1.7335  1.0897
10227SOL     OW31588   5.542   5.087   3.501 -0.3019  0.3204  0.2961
10227SOL    HW131589   5.598   5.016   3.533  0.0245 -0.1595 -1.2484
10227SOL    HW231590   5.594   5.129   3.431 -1.9541 -0.3946 -1.4529
10228SOL     OW31591   3.071   6.063   3.172 -0.6882  0.0370  0.4614
10228SOL    HW131592   2.976   6.054   3.183 -0.8887  0.4073 -0.7873
10228SOL    HW231593   3.108   5.999   3.232 -1.7736 -1.4642 -0.3955
10229SOL     OW31594   1.416   0.730   0.039  0.0799  0.0582  0.2597
10229SOL    HW131595   1.456   0.694   0.118  0.2428 -1.0262 -0.3052
10229SOL    HW231596   1.469   0.695  -0.033  1.3943  2.8617 -0.2769
10230SOL     OW31597   4.743   3.507   6.067 -0.2925 -0.3951 -0.0111
10230SOL    HW131598   4.742   3.428   6.120  0.1877 -0.2434  0.2275
10230SOL    HW231599   4.777   3.479   5.982 -0.3022 -0.4820  0.0136
10231SOL     OW31600   3.247   1.428   3.074 -0.3097  0.3251  0.2214
10231SOL    HW131601   3.172   1.386   3.031 -1.5208 -0.3286  2.7652
10231SOL    HW231602   3.224   1.521   3.076 -1.6604  0.0019  1.9594
10232SOL     OW31603   4.038   2.107   6.270 -0.4412  0.2706  0.6665
10232SOL    HW131604   4.120   2.113   6.320 -1.5259 -0.9898  2.7533
10232SOL    HW231605   3.976   2.066   6.331 -1.8996 -1.3339 -1.7230
10233SOL     OW31606   3.012   7.105   2.467 -0.6225  0.2443 -0.2310
10233SOL    HW131607   3.030   7.029   2.523  1.0675 -0.2479 -1.3657
10233SOL    HW231608   3.057   7.178   2.510 -1.5762  0.4720  0.4296
10234SOL     OW31609   2.457   5.542   1.519  0.3753 -0.1131  0.4859
10234SOL    HW131610   2.395   5.471   1.532  0.7472 -0.5718 -0.1573
10234SOL    HW231611   2.526   5.526   1.584 -0.3786  0.6566  1.5103
10235SOL     OW31612   3.380   6.896   2.735 -0.1716 -0.3434  0.3388
10235SOL    HW131613   3.363   6.866   2.646  2.1648  0.8372 -0.5603
10235SOL    HW231614   3.459   6.850   2.761  0.1929  0.6894  1.1086
10236SOL     OW31615   4.118   5.148   5.269 -0.3532 -0.0631 -0.1827
10236SOL    HW131616   4.103   5.240   5.291 -2.4686 -0.6975  1.3449
10236SOL    HW231617   4.098   5.101   5.350 -0.3817 -1.9496 -1.2355
10237SOL     OW31618   4.517   5.727   1.106  0.4770 -0.1943  0.3247
10237SOL    HW131619   4.538   5.656   1.047 -0.5901 -0.7529  0.5936
10237SOL    HW231620   4.431   5.758   1.078 -0.1943 -0.6718  1.7387
10238SOL     OW31621   6.506   0.249   4.459  0.2503 -0.2251  0.4213
10238SOL    HW131622   6.582   0.244   4.519  0.8988  0.3615 -0.3267
10238SOL    HW231623   6.519   0.176   4.399 -0.1991 -0.5854  0.7563
10239SOL     OW31624   4.728   3.241   4.605  0.1745 -0.0123 -0.3146
10239SOL    HW131625   4.670   3.198   4.668 -1.6003  0.9293 -1.2357
10239SOL    HW231626   4.707   3.201   4.521  1.8633 -0.6059 -0.4822
10240SOL     OW31627   3.562   2.933   2.532  0.0278 -0.4162  0.3668
10240SOL    HW131628   3.551   2.840   2.512 -0.8251 -0.1851 -0.3222
10240SOL    HW231629   3.648   2.939   2.572  0.5242 -1.3685 -0.5089
10241SOL     OW31630   1.818   5.246   1.726  0.1958  0.3627  0.1186
10241SOL    HW131631   1.723   5.252   1.714  0.0733  1.1911  1.2749
10241SOL    HW231632   1.855   5.281   1.645 -0.4929  0.4237 -0.1742
10242SOL     OW31633   2.195   0.273   3.122  0.1270 -0.1080  0.3957
10242SOL    HW131634   2.112   0.294   3.165  0.3238  0.7944  0.3456
10242SOL    HW231635   2.170   0.218   3.048 -0.5518  1.0845 -0.2892
10243SOL     OW31636   2.171   7.458   2.888 -0.4918 -0.3605  0.0577
10243SOL    HW131637   2.266   7.461   2.882 -0.3926  0.7844  1.5444
10243SOL    HW231638   2.153   7.370   2.921  0.2494  0.0641  1.7479
10244SOL     OW31639   0.091   4.858   3.091  0.4707 -0.6218 -0.2837
10244SOL    HW131640   0.061   4.923   3.155 -0.2678  0.1367 -1.3492
10244SOL    HW231641   0.181   4.838   3.116 -0.2508 -1.4561  1.8455
10245SOL     OW31642   6.523   3.920   2.866  0.2449 -0.4139  0.1104
10245SOL    HW131643   6.607   3.876   2.880  0.2495 -0.0024  1.5309
10245SOL    HW231644   6.460   3.849   2.854  0.6639 -0.7390 -0.2203
10246SOL     OW31645   4.215   0.413   2.155  0.4592  0.4044  0.0553
10246SOL    HW131646   4.202   0.451   2.242 -0.5781 -1.1146  0.6035
10246SOL    HW231647   4.149   0.454   2.100 -0.4199 -0.2816  0.5594
10247SOL     OW31648   0.426   3.325   2.729 -1.0278 -0.1346  0.3498
10247SOL    HW131649   0.478   3.246   2.714 -0.2860  0.0279  1.9288
10247SOL    HW231650   0.390   3.346   2.642  3.0483  0.8292 -1.3424
10248SOL     OW31651   0.833   0.156   4.977  0.0723 -0.1368  0.8915
10248SOL    HW131652   0.925   0.142   4.954 -0.1119  0.1323 -0.0854
10248SOL    HW231653   0.825   0.251   4.983 -0.3322 -0.1135  0.0870
10249SOL     OW31654   1.109   6.932   6.842 -0.0622 -0.0964  0.3000
10249SOL    HW131655   1.027   6.892   6.815  0.2249 -0.4817 -0.0050
10249SOL    HW231656   1.175   6.898   6.781  0.0591  1.4649 -0.4829
10250SOL     OW31657   5.505   3.959   5.620  0.1251 -0.0147 -0.1491
10250SOL    HW131658   5.439   3.896   5.646  0.0741 -1.1604 -2.7104
10250SOL    HW231659   5.465   4.007   5.547  0.8494  1.7198  0.5414
10251SOL     OW31660   7.536   7.388   6.364 -0.6301  0.6419 -0.1841
10251SOL    HW131661   7.514   7.363   6.454  0.5597 -0.8321 -0.2654
10251SOL    HW231662   7.598   7.460   6.373 -1.5329  1.3957  0.1301
10252SOL     OW31663   4.031   3.258   0.278  0.7111  0.1958 -0.0484
10252SOL    HW131664   4.066   3.258   0.368  1.3246 -0.2760 -0.2793
10252SOL    HW231665   4.068   3.179   0.238  0.4190  0.3880 -0.7110
10253SOL     OW31666   5.587   5.476   1.047  0.1400  0.1845 -0.4868
10253SOL    HW131667   5.560   5.537   1.115  0.7592 -1.4082  1.2480
10253SOL    HW231668   5.563   5.390   1.081  1.4959 -0.7479 -1.7905
10254SOL     OW31669   6.266   6.315   3.799 -0.2236 -0.3971 -0.3355
10254SOL    HW131670   6.262   6.274   3.713  0.1849 -1.3321  0.0849
10254SOL    HW231671   6.194   6.276   3.848 -0.6865  0.4055 -0.3570
10255SOL     OW31672   4.959   5.892   5.173  0.1311 -0.1855  0.1464
10255SOL    HW131673   4.981   5.943   5.095 -0.3650 -0.7084 -0.3487
10255SOL    HW231674   5.039   5.844   5.194 -0.2785 -1.5734 -1.2424
10256SOL     OW31675   4.185   2.065   2.391 -0.5171 -0.5845  0.0976
10256SOL    HW131676   4.265   2.059   2.340  1.0050  0.0216  2.2803
10256SOL    HW231677   4.124   2.005   2.347  1.2037 -1.2939 -1.4532
10257SOL     OW31678   2.652   7.742   2.241  0.5140 -0.0105  0.0708
10257SOL    HW131679   2.559   7.752   2.258  0.8994  1.7381  1.4843
10257SOL    HW231680   2.675   7.658   2.280 -0.7690 -1.4469 -2.0267
10258SOL     OW31681   4.836   5.614   6.137 -0.3820 -0.6155  0.5931
10258SOL    HW131682   4.787   5.617   6.055 -1.4324 -1.2130  1.1810
10258SOL    HW231683   4.794   5.545   6.188  1.6638 -1.8055  0.7778
10259SOL     OW31684   4.268   6.575   2.792  0.0397 -0.1823 -0.3050
10259SOL    HW131685   4.220   6.496   2.816 -0.6653  0.3682  0.1467
10259SOL    HW231686   4.209   6.621   2.732  0.6959 -0.2785 -1.0464
10260SOL     OW31687   6.812   3.079   4.415 -0.5186 -0.1377  0.5831
10260SOL    HW131688   6.736   3.126   4.450 -2.3493 -0.6698 -2.2897
10260SOL    HW231689   6.841   3.132   4.340 -0.8087 -2.0088 -0.9536
10261SOL     OW31690   1.187   3.320   3.051 -0.3238 -0.3267 -0.1279
10261SOL    HW131691   1.168   3.411   3.030 -0.4684 -0.1567  0.6889
10261SOL    HW231692   1.227   3.323   3.138  0.4194 -0.9753 -0.4361
10262SOL     OW31693   4.989   6.884   0.233  0.0157  0.1865 -0.2381
10262SOL    HW131694   4.897   6.860   0.216 -0.5698  0.9161  1.6485
10262SOL    HW231695   4.999   6.875   0.328  1.6067  1.1467 -0.2843
10263SOL     OW31696   2.743   1.654   1.439 -0.4677  0.0597  0.6795
10263SOL    HW131697   2.667   1.710   1.451 -0.7624 -0.5374  1.6967
10263SOL    HW231698   2.806   1.682   1.505 -0.8245 -1.1335  1.5546
10264SOL     OW31699   0.303   7.057   0.588 -0.4822  0.5281 -0.4337
10264SOL    HW131700   0.273   7.053   0.498 -0.6474  1.4980 -0.4231
10264SOL    HW231701   0.384   7.006   0.588 -1.4271 -1.0407 -0.7262
10265SOL     OW31702   6.727   3.275   0.467 -0.2944  0.5407 -0.4226
10265SOL    HW131703   6.657   3.212   0.454  0.5053 -0.4675 -0.0055
10265SOL    HW231704   6.706   3.319   0.549  0.8701 -1.6212  1.1291
10266SOL     OW31705   0.287   0.761   3.557  0.2312  0.3221  0.3819
10266SOL    HW131706   0.224   0.826   3.589 -1.4160 -0.2376 -1.5477
10266SOL    HW231707   0.352   0.812   3.508 -0.2297  0.6607  0.1189
10267SOL     OW31708   7.335   1.841   2.265 -1.2657 -0.0623  0.3153
10267SOL    HW131709   7.414   1.816   2.217 -0.9160  0.6722  0.4896
10267SOL    HW231710   7.332   1.782   2.340  0.0511  0.9875  1.2329
10268SOL     OW31711   3.253   5.111   1.831 -0.3745  0.9308  0.4914
10268SOL    HW131712   3.278   5.199   1.806  3.2839 -0.2016 -0.4061
10268SOL    HW231713   3.281   5.102   1.922  1.4457  0.0917 -0.0940
10269SOL     OW31714   3.205   5.655   0.023  0.0266 -0.0927  0.1076
10269SOL    HW131715   3.190   5.569   0.061  0.2770  0.1828  0.8549
10269SOL    HW231716   3.128   5.672  -0.031 -1.3026  0.3058  2.0220
10270SOL     OW31717   6.519   4.304   5.970 -0.6444  0.1770  0.6384
10270SOL    HW131718   6.528   4.381   6.026  1.0615  2.3309 -2.3153
10270SOL    HW231719   6.430   4.310   5.936  0.5973  3.5622 -2.8113
10271SOL     OW31720   0.309   6.013   2.701  0.6346 -0.3373  0.1326
10271SOL    HW131721   0.328   6.037   2.611 -0.1774  1.3558  0.3726
10271SOL    HW231722   0.334   6.090   2.752  1.5402 -1.4412  1.4300
10272SOL     OW31723   6.252   0.201   2.152  0.1184 -0.3573 -0.8155
10272SOL    HW131724   6.267   0.221   2.060  0.9813 -1.9619 -1.0721
10272SOL    HW231725   6.214   0.113   2.152 -0.2247 -0.2330  0.3459
10273SOL     OW31726   6.121   2.219   3.092  0.3413  0.6546 -0.5956
10273SOL    HW131727   6.049   2.283   3.097 -2.1330 -1.9744  0.5988
10273SOL    HW231728   6.189   2.255   3.149 -1.1367  2.0405  0.3831
10274SOL     OW31729   3.308   6.016   2.681 -0.6758 -0.1657  1.0971
10274SOL    HW131730   3.250   6.030   2.755 -1.4959 -2.1376  0.8995
10274SOL    HW231731   3.333   5.924   2.688  0.4843  0.0236 -0.1972
10275SOL     OW31732   6.048   3.397   7.331  0.7325 -0.1495  0.1860
10275SOL    HW131733   5.965   3.393   7.282  0.1815  0.9751  0.9962
10275SOL    HW231734   6.068   3.490   7.337  2.7940 -0.4527 -1.1573
10276SOL     OW31735   2.372   5.283   0.649 -0.6077 -0.0318  0.0126
10276SOL    HW131736   2.319   5.204   0.647 -0.3949 -0.1821  0.2912
10276SOL    HW231737   2.389   5.299   0.742  0.9319 -0.7255 -0.1157
10277SOL     OW31738   4.977   1.980   5.154  0.2477  0.0676 -0.1964
10277SOL    HW131739   5.002   1.902   5.204 -0.0727 -0.0467 -0.2133
10277SOL    HW231740   5.059   2.027   5.142  0.3484  0.0450  0.3498
10278SOL     OW31741   2.142   1.630   4.674 -0.4675  0.5508 -0.0759
10278SOL    HW131742   2.097   1.546   4.687  0.4966 -0.4107 -2.3591
10278SOL    HW231743   2.071   1.693   4.660 -1.2990  0.5717  3.2641
10279SOL     OW31744   4.080   6.857   4.504 -0.4930 -0.2362  0.0492
10279SOL    HW131745   4.000   6.905   4.525  1.5047  2.6748  1.8431
10279SOL    HW231746   4.113   6.899   4.424  0.3242  0.1440  0.5681
10280SOL     OW31747   2.669   6.405   3.930 -0.5081 -0.2582  0.0554
10280SOL    HW131748   2.626   6.451   3.858 -0.9707  0.1523  0.5794
10280SOL    HW231749   2.760   6.394   3.901 -0.7373 -0.2949 -0.6736
10281SOL     OW31750   4.108   5.862   7.340  0.4709  0.3858 -0.1306
10281SOL    HW131751   4.020   5.827   7.353 -0.9262  2.4945 -2.6695
10281SOL    HW231752   4.166   5.803   7.388 -1.9454 -3.2587 -1.2534
10282SOL     OW31753   7.656   3.313   3.155  0.4512  0.4345 -0.7643
10282SOL    HW131754   7.684   3.400   3.183  0.8516  0.2548 -0.6016
10282SOL    HW231755   7.571   3.301   3.198  1.3889 -0.1391  1.0280
10283SOL     OW31756   1.338   1.323   5.488  0.0990  0.3173  0.0933
10283SOL    HW131757   1.274   1.323   5.560 -1.2303  0.2917 -1.0522
10283SOL    HW231758   1.410   1.377   5.520 -1.1863  1.6603  0.8358
10284SOL     OW31759   6.700   5.387   4.402  0.3353 -0.0566  0.0619
10284SOL    HW131760   6.747   5.305   4.415  0.5046  0.2726  1.6369
10284SOL    HW231761   6.752   5.433   4.335  0.5846 -0.9510 -0.3776
10285SOL     OW31762   6.968   5.505   0.216  0.0572  0.6817  0.4878
10285SOL    HW131763   7.063   5.499   0.225 -0.0931 -0.7139  1.5302
10285SOL    HW231764   6.939   5.548   0.297 -0.3311 -0.6031  1.0526
10286SOL     OW31765   0.620   3.354   6.000 -0.3555 -0.3749  0.1966
10286SOL    HW131766   0.670   3.434   5.986 -0.2951 -0.0307  2.0993
10286SOL    HW231767   0.596   3.356   6.093 -1.8138 -1.7322 -0.0936
10287SOL     OW31768   7.676   7.460   0.205  0.2186  0.3429 -0.1283
10287SOL    HW131769   7.755   7.452   0.152  0.0517  1.7289 -0.6302
10287SOL    HW231770   7.609   7.412   0.157  0.4462  0.2707 -0.3710
10288SOL     OW31771   1.882   2.884   3.958  0.0103 -0.6127 -0.2107
10288SOL    HW131772   1.813   2.915   4.017 -0.9698 -0.5495 -1.3536
10288SOL    HW231773   1.846   2.806   3.917  0.2328 -0.0549 -1.5120
10289SOL     OW31774   4.922   3.067   2.208  0.2019 -0.6103  0.3674
10289SOL    HW131775   4.852   3.048   2.146  1.1493 -1.0387 -0.6109
10289SOL    HW231776   4.945   3.159   2.191 -0.2485 -0.4127  0.8223
10290SOL     OW31777   1.159   4.424   2.063  0.3181 -0.2068 -0.0361
10290SOL    HW131778   1.214   4.406   2.139  1.5813  1.5664 -0.4467
10290SOL    HW231779   1.219   4.421   1.988 -0.5061 -0.0066 -0.7248
10291SOL     OW31780   7.287   1.370   2.702 -0.0458 -0.3382 -0.3132
10291SOL    HW131781   7.213   1.431   2.695  1.7154  2.2538  1.7680
10291SOL    HW231782   7.318   1.380   2.792  4.7357  1.1693 -1.8290
10292SOL     OW31783   0.113   7.741   3.147 -0.2386  0.4828  0.2003
10292SOL    HW131784   0.028   7.785   3.146 -0.6351 -0.2586  0.1601
10292SOL    HW231785   0.091   7.648   3.153  0.5780  0.2981  0.4173
10293SOL     OW31786   3.684   4.667   1.546  0.7826  1.2429  0.8914
10293SOL    HW131787   3.680   4.762   1.529  0.9369  1.1804  0.4921
10293SOL    HW231788   3.741   4.633   1.477 -1.8984  0.3984 -1.1352
10294SOL     OW31789   1.655   5.137   3.143  0.0099 -0.5376 -0.2027
10294SOL    HW131790   1.656   5.077   3.217 -1.1307 -0.0311  0.2399
10294SOL    HW231791   1.579   5.193   3.158  0.4849  0.3844 -1.1090
10295SOL     OW31792   2.973   0.928   7.015 -0.2169  0.0600  0.3827
10295SOL    HW131793   3.031   0.898   6.945 -0.6913 -0.2535  0.1154
10295SOL    HW231794   2.982   0.861   7.083  0.4759  0.5237  0.7554
10296SOL     OW31795   3.459   3.660   5.891 -0.1151 -0.0527 -0.0099
10296SOL    HW131796   3.419   3.747   5.884 -1.0053  0.0105  3.5942
10296SOL    HW231797   3.391   3.599   5.864  0.3626  0.2902 -2.1235
10297SOL     OW31798   0.590   3.859   7.650 -0.1544  0.2090  0.2143
10297SOL    HW131799   0.576   3.810   7.569 -0.9928  0.2209  0.3372
10297SOL    HW231800   0.532   3.935   7.642 -0.5316  0.0130  0.9798
10298SOL     OW31801   7.461   5.744   4.827 -0.0762 -0.6413  0.3417
10298SOL    HW131802   7.523   5.795   4.774 -0.7416  0.5060  0.6346
10298SOL    HW231803   7.422   5.808   4.886 -2.0985 -1.1914 -0.3297
10299SOL     OW31804   4.211   3.198   0.712  0.0318  0.1526 -0.0556
10299SOL    HW131805   4.260   3.252   0.650  0.4295 -0.4642 -0.2928
10299SOL    HW231806   4.266   3.121   0.725  0.0939  0.4010  1.2970
10300SOL     OW31807   3.462   3.205   1.112  0.4641 -0.5546 -0.2437
10300SOL    HW131808   3.554   3.183   1.130  0.4774 -0.0364  0.3764
10300SOL    HW231809   3.421   3.121   1.091  0.5808 -1.1593  1.7527
10301SOL     OW31810   4.616   2.069   7.087  0.3085 -0.1334  0.2433
10301SOL    HW131811   4.704   2.046   7.056 -0.0337 -1.7022  0.3436
10301SOL    HW231812   4.606   2.162   7.065  0.7810 -0.6926 -2.6428
10302SOL     OW31813   1.706   4.318   4.128 -0.6055 -0.2366  0.0299
10302SOL    HW131814   1.679   4.281   4.212  2.7962 -1.5285  0.7337
10302SOL    HW231815   1.691   4.247   4.065 -1.6156  0.1462 -0.1766
10303SOL     OW31816   2.150   4.292   1.731 -0.4995  0.6150 -0.2424
10303SOL    HW131817   2.112   4.349   1.664 -2.2162  1.2109  1.1689
10303SOL    HW231818   2.078   4.275   1.792  1.0306  0.2492  1.5558
10304SOL     OW31819   3.270   5.674   4.374 -0.2569  0.2666 -0.0122
10304SOL    HW131820   3.357   5.692   4.408 -0.3382  1.5141 -0.4072
10304SOL    HW231821   3.280   5.595   4.320  0.2768 -0.5372  1.2151
10305SOL     OW31822   0.588   3.916   3.753  0.1741 -0.1889 -0.4092
10305SOL    HW131823   0.661   3.868   3.714 -0.5593 -1.8944  0.2152
10305SOL    HW231824   0.629   3.971   3.819  0.9243 -1.2762  0.0739
10306SOL     OW31825   1.882   7.581   3.790  0.1867  0.3814  0.3540
10306SOL    HW131826   1.825   7.656   3.772 -0.4480  0.0062  0.7671
10306SOL    HW231827   1.825   7.517   3.832  1.2611  0.6590  2.4088
10307SOL     OW31828   5.728   5.920   7.520  0.3415 -0.0518  0.7717
10307SOL    HW131829   5.693   6.008   7.511 -2.7223 -1.2389 -0.3992
10307SOL    HW231830   5.751   5.894   7.430  1.6921 -0.3320  1.1655
10308SOL     OW31831   5.191   2.510   6.122  0.5168  0.5458  0.4968
10308SOL    HW131832   5.096   2.524   6.121  0.6266  1.3531  0.1610
10308SOL    HW231833   5.202   2.419   6.148 -0.3049  0.8747  2.1271
10309SOL     OW31834   0.854   0.197   6.225 -0.3998 -0.1704  0.1345
10309SOL    HW131835   0.872   0.135   6.155  0.2820 -0.2649  0.3817
10309SOL    HW231836   0.761   0.215   6.218 -0.3077 -0.0008 -0.9468
10310SOL     OW31837   2.010   0.952   4.361 -0.3042 -0.0158 -0.3080
10310SOL    HW131838   1.975   0.864   4.368 -2.1809  0.7737  1.0761
10310SOL    HW231839   2.041   0.959   4.270  1.4696 -2.5965  0.0173
10311SOL     OW31840   6.434   0.192   5.204  0.5343  0.4852 -0.0044
10311SOL    HW131841   6.367   0.249   5.243 -0.0582 -0.4993  0.4722
10311SOL    HW231842   6.515   0.243   5.207  0.3264  0.7520  1.7585
10312SOL     OW31843   1.359   6.719   1.401  0.2220  0.1240  0.7655
10312SOL    HW131844   1.342   6.764   1.484  1.3428  1.8762  0.0945
10312SOL    HW231845   1.452   6.696   1.405  0.5119  1.0629 -0.3828
10313SOL     OW31846   2.900   2.681   1.643 -0.2670  0.0265 -0.3355
10313SOL    HW131847   2.842   2.685   1.566  1.9550  0.7626 -2.0730
10313SOL    HW231848   2.954   2.604   1.628 -0.4855 -0.4182  1.0561
10314SOL     OW31849   2.519   2.867   7.552  0.0888  0.2435  0.3275
10314SOL    HW131850   2.481   2.841   7.468 -1.4973  1.4527  0.6152
10314SOL    HW231851   2.568   2.947   7.532  0.9665 -0.3022  0.2878
10315SOL     OW31852   1.505   6.110   3.459  0.4502  0.1800 -0.6326
10315SOL    HW131853   1.598   6.101   3.479  0.0304 -0.6950  1.1176
10315SOL    HW231854   1.470   6.162   3.532 -0.4695  0.3548 -1.1852
10316SOL     OW31855   0.595   0.009   2.168  0.2704  0.6541 -0.2325
10316SOL    HW131856   0.685   0.012   2.137  0.2572 -0.6907 -0.4667
10316SOL    HW231857   0.579  -0.083   2.186 -0.9029  0.9374  0.2891
10317SOL     OW31858   0.417   0.202   0.456  0.1537 -0.7484  0.2061
10317SOL    HW131859   0.332   0.204   0.499 -1.1580  0.7922 -2.2509
10317SOL    HW231860   0.480   0.222   0.526 -1.4860 -1.4994  1.9880
10318SOL     OW31861   2.595   0.391   3.766 -0.3373 -0.4399 -0.2580
10318SOL    HW131862   2.532   0.336   3.814 -0.4141  1.0346  1.4707
10318SOL    HW231863   2.664   0.331   3.740 -0.9521 -1.5608  0.5706
10319SOL     OW31864   4.514   2.234   6.667 -0.5271 -0.2411 -0.1923
10319SOL    HW131865   4.435   2.288   6.663 -0.8426 -0.6190  0.6934
10319SOL    HW231866   4.482   2.144   6.671 -0.0217 -0.4611 -0.7827
10320SOL     OW31867   3.041   7.640   0.175  0.1823  0.5549 -0.0182
10320SOL    HW131868   3.029   7.724   0.130  0.5056  1.7510  2.0106
10320SOL    HW231869   3.066   7.579   0.105  0.8640  2.3522 -1.4247
10321SOL     OW31870   5.274   5.644   2.478 -0.2597 -0.1639 -0.0522
10321SOL    HW131871   5.200   5.687   2.522 -0.8938  0.5929 -1.7572
10321SOL    HW231872   5.279   5.557   2.519 -0.2708  0.7661  2.0299
10322SOL     OW31873   1.208   1.186   1.552  0.4142 -0.3407  0.1996
10322SOL    HW131874   1.281   1.195   1.614  0.1486 -1.3271  0.6795
10322SOL    HW231875   1.130   1.203   1.605  0.1294 -1.9823  0.3574
10323SOL     OW31876   0.345   1.070   1.903 -0.0266 -0.1252 -0.3109
10323SOL    HW131877   0.251   1.081   1.890  0.0812  0.7662 -0.4378
10323SOL    HW231878   0.383   1.075   1.815  0.2519  0.9607 -0.1523
10324SOL     OW31879   1.660   7.715   3.756  0.3026  0.4167 -0.1381
10324SOL    HW131880   1.620   7.789   3.710  0.4076 -0.3992 -1.5862
10324SOL    HW231881   1.617   7.638   3.720  1.4170 -0.3333  0.0840
10325SOL     OW31882   2.481   1.616   3.484  0.0503  0.1488  0.2687
10325SOL    HW131883   2.549   1.663   3.533 -0.5937  3.5123 -1.7671
10325SOL    HW231884   2.400   1.663   3.503 -1.2132 -1.8508  0.1814
10326SOL     OW31885   6.772   4.151   2.569  0.0707  0.3735  0.0265
10326SOL    HW131886   6.732   4.220   2.515 -1.4271  1.4805  2.3812
10326SOL    HW231887   6.722   4.072   2.548 -1.0977  0.9916  0.3878
10327SOL     OW31888   5.044   0.199   2.962  0.1687 -0.4840 -0.1568
10327SOL    HW131889   4.995   0.124   2.996 -0.9167  0.2196 -0.1352
10327SOL    HW231890   5.033   0.267   3.028  0.8269 -0.1737 -0.3557
10328SOL     OW31891   2.594   0.172   2.704  1.0952 -0.4603 -0.1771
10328SOL    HW131892   2.514   0.132   2.671  1.7151 -0.5505 -1.6129
10328SOL    HW231893   2.571   0.201   2.793 -0.6158 -0.1626 -0.6879
10329SOL     OW31894   6.632   5.455   6.014 -0.0937  0.0177  0.6823
10329SOL    HW131895   6.578   5.491   5.944  0.8281 -0.7124 -0.4444
10329SOL    HW231896   6.614   5.510   6.090  0.5646  2.2885 -0.7090
10330SOL     OW31897   2.401   5.780   7.040  0.7259  0.1521  0.1532
10330SOL    HW131898   2.446   5.806   6.959  1.3352  0.2633  0.5165
10330SOL    HW231899   2.410   5.685   7.042  0.9059  0.1689  0.1978
10331SOL     OW31900   2.927   6.679   1.757 -0.4921  0.6357 -0.4794
10331SOL    HW131901   2.898   6.589   1.772  1.2825  0.3987  2.2421
10331SOL    HW231902   3.022   6.674   1.762 -0.4040  2.9454  2.0332
10332SOL     OW31903   3.049   2.858   1.494 -0.0339  0.5205  0.4154
10332SOL    HW131904   2.996   2.842   1.572 -0.4310 -2.1669 -0.2859
10332SOL    HW231905   3.134   2.821   1.516 -0.4695 -1.3118 -0.7162
10333SOL     OW31906   6.460   7.386   1.739 -0.0354 -0.6881 -0.5035
10333SOL    HW131907   6.496   7.325   1.803  0.2573  1.0488  1.0628
10333SOL    HW231908   6.468   7.340   1.655 -0.4198 -3.0407  0.6558
10334SOL     OW31909   4.702   6.069   2.644 -0.1097 -0.1722  0.0519
10334SOL    HW131910   4.707   6.022   2.560 -2.1888 -2.1567  0.9343
10334SOL    HW231911   4.614   6.049   2.677  0.0871  1.8509  1.9890
10335SOL     OW31912   3.558   4.496   3.767 -0.0595 -0.0454  0.3255
10335SOL    HW131913   3.627   4.534   3.821 -1.0595  1.2676  0.7408
10335SOL    HW231914   3.477   4.533   3.803 -0.9995 -1.6732 -0.0424
10336SOL     OW31915   3.774   6.100   6.204 -0.2019  0.0926  0.0875
10336SOL    HW131916   3.759   6.033   6.271 -1.1850  0.1811 -0.0371
10336SOL    HW231917   3.841   6.156   6.242  0.0182 -0.4708  0.5503
10337SOL     OW31918   2.940   5.212   1.714 -0.6531 -0.9032 -0.1237
10337SOL    HW131919   2.968   5.132   1.671  0.7065 -0.7160  0.3571
10337SOL    HW231920   2.944   5.192   1.808  1.2886  0.1575  0.0862
10338SOL     OW31921   6.422   3.084   2.035  0.2615  0.1836  0.0547
10338SOL    HW131922   6.511   3.097   2.003  0.3272  0.7771  0.4736
10338SOL    HW231923   6.425   3.000   2.081 -0.0424 -1.1775 -2.2194
10339SOL     OW31924   0.905   4.192   4.913 -0.6413  0.0953  0.2242
10339SOL    HW131925   0.918   4.213   5.005 -1.1743 -1.4451  0.6755
10339SOL    HW231926   0.933   4.101   4.904 -0.7765  0.1551 -1.0952
10340SOL     OW31927   2.474   4.008   4.435 -0.0952 -0.5299 -0.6239
10340SOL    HW131928   2.426   4.090   4.442  1.2179  0.2863 -0.7722
10340SOL    HW231929   2.471   3.971   4.523  1.5870  1.0471  0.1638
10341SOL     OW31930   5.785   1.874   5.559 -0.0954 -0.0615  0.6978
10341SOL    HW131931   5.877   1.874   5.584  0.4914 -1.7498 -1.1966
10341SOL    HW231932   5.785   1.857   5.465 -2.3524 -0.3673  0.6826
10342SOL     OW31933   4.722   4.173   7.363 -0.1501 -0.4032  0.2771
10342SOL    HW131934   4.804   4.222   7.367 -0.3485  0.0791 -0.9811
10342SOL    HW231935   4.679   4.205   7.283 -1.3920 -0.9129  0.7186
10343SOL     OW31936   4.637   4.451   1.255 -0.9048 -0.0799 -0.4833
10343SOL    HW131937   4.646   4.447   1.351  1.4510  0.9571 -0.5807
10343SOL    HW231938   4.559   4.504   1.241  0.9248  3.3553  1.0200
10344SOL     OW31939   5.757   2.733   6.473 -0.0850 -0.0343  0.1225
10344SOL    HW131940   5.675   2.781   6.473 -0.5764 -0.8369 -0.5114
10344SOL    HW231941   5.751   2.675   6.396  1.7159  0.9627 -0.8500
10345SOL     OW31942   3.495   4.200   2.604 -0.1319  0.5344  0.3150
10345SOL    HW131943   3.580   4.156   2.604 -0.5223 -0.2747 -0.8691
10345SOL    HW231944   3.488   4.240   2.690  2.3011  2.2824 -0.1996
10346SOL     OW31945   3.763   3.533   7.558 -0.2329 -0.6813  0.5069
10346SOL    HW131946   3.669   3.529   7.574 -0.0853  0.1263  1.7607
10346SOL    HW231947   3.785   3.625   7.569  0.6238 -0.7727 -0.3374
10347SOL     OW31948   0.879   2.130   5.947  0.0124 -0.4873  0.1838
10347SOL    HW131949   0.885   2.134   6.043 -0.7621  0.3181  0.2165
10347SOL    HW231950   0.805   2.187   5.926  0.2317 -0.5902 -0.9057
10348SOL     OW31951   1.544   4.692   4.058 -0.4649 -0.0908 -0.1265
10348SOL    HW131952   1.530   4.632   4.132  0.9827 -0.2215  0.0741
10348SOL    HW231953   1.459   4.731   4.043 -0.6603  0.5192  2.1338
10349SOL     OW31954   6.760   0.554   1.548 -0.6332  0.1059  0.3830
10349SOL    HW131955   6.851   0.579   1.562 -0.0642 -1.5327 -0.1948
10349SOL    HW231956   6.727   0.533   1.636 -0.1547 -0.2618  0.4747
10350SOL     OW31957   2.156   1.358   4.962  0.4412 -0.0164  0.0259
10350SOL    HW131958   2.126   1.342   4.872 -2.9532 -1.3158  1.2142
10350SOL    HW231959   2.143   1.275   5.007  2.1120  0.5940  1.7429
10351SOL     OW31960   6.306   1.691   5.253 -0.1080  0.2391  0.3652
10351SOL    HW131961   6.319   1.687   5.348  0.6863  0.4975  0.2734
10351SOL    HW231962   6.391   1.720   5.218 -0.2761 -0.2191 -0.4521
10352SOL     OW31963   7.637   4.117   6.053 -0.1364  0.3668  0.5484
10352SOL    HW131964   7.716   4.067   6.032 -0.4894 -0.5168  1.2427
10352SOL    HW231965   7.630   4.182   5.983  2.3408  1.8619  1.5721
10353SOL     OW31966   2.408   0.240   6.854  0.0450 -0.1539 -0.0450
10353SOL    HW131967   2.477   0.211   6.914 -0.8753 -1.8324  0.2642
10353SOL    HW231968   2.334   0.261   6.911  0.1970  1.4852 -0.3838
10354SOL     OW31969   2.801   5.396   3.490  0.2953 -0.1069  0.0512
10354SOL    HW131970   2.860   5.463   3.455 -0.5321 -0.5661 -2.4127
10354SOL    HW231971   2.730   5.445   3.531  1.1644  0.4530  0.9387
10355SOL     OW31972   0.121   2.879   5.467  0.3163 -0.4398  0.2730
10355SOL    HW131973   0.136   2.956   5.522 -1.4478 -0.3739  0.7440
10355SOL    HW231974   0.101   2.914   5.380 -1.6624 -0.2192  0.7507
10356SOL     OW31975   5.584   5.975   1.009 -0.2003  0.1139 -0.3732
10356SOL    HW131976   5.506   5.950   0.961 -1.9436  1.3048  1.6800
10356SOL    HW231977   5.652   5.982   0.942 -1.6016 -1.7548 -2.1132
10357SOL     OW31978   0.172   6.121   0.556 -0.2680  0.5363 -0.2452
10357SOL    HW131979   0.130   6.159   0.633 -0.9836  0.0188 -0.3683
10357SOL    HW231980   0.222   6.047   0.589  1.8106  2.0013  0.1176
10358SOL     OW31981   5.569   4.352   6.678  0.4488  0.5283  0.3882
10358SOL    HW131982   5.558   4.436   6.632  0.2065  0.0390 -0.4744
10358SOL    HW231983   5.486   4.307   6.663  1.2240 -0.5976 -0.7076
10359SOL     OW31984   3.911   3.712   4.345 -0.4037 -0.2577  0.0530
10359SOL    HW131985   3.954   3.710   4.260  0.3927  0.5734  0.4134
10359SOL    HW231986   3.924   3.624   4.381 -0.1077 -0.3912 -0.3803
10360SOL     OW31987   3.118   0.651   3.444 -0.0294  0.3184 -0.1406
10360SOL    HW131988   3.159   0.726   3.486  0.4617 -0.7493  1.3868
10360SOL    HW231989   3.138   0.661   3.351  0.3457  1.8587  0.0847
10361SOL     OW31990   6.932   0.970   6.401  0.0833  0.3299 -0.1211
10361SOL    HW131991   7.001   0.913   6.435 -0.9559  0.3884  2.3204
10361SOL    HW231992   6.964   1.000   6.316  2.0487 -1.3738 -0.0373
10362SOL     OW31993   5.870   7.592   3.956  0.2798 -0.4642  0.0214
10362SOL    HW131994   5.838   7.653   3.890 -0.2165 -1.4104 -0.6453
10362SOL    HW231995   5.868   7.641   4.038  0.4788  0.5896 -0.5895
10363SOL     OW31996   4.072   2.902   0.856  0.4039 -0.0976  0.1311
10363SOL    HW131997   4.028   2.825   0.892 -0.2553 -0.1021 -0.6592
10363SOL    HW231998   4.161   2.898   0.892  0.4859 -1.4261 -0.1959
10364SOL     OW31999   2.334   2.940   4.176 -0.3174  0.4729  0.0304
10364SOL    HW132000   2.365   2.997   4.106 -0.1012  1.3868  0.8505
10364SOL    HW232001   2.241   2.927   4.157  0.2868 -1.5214 -1.9260
10365SOL     OW32002   1.331   5.011   3.530  0.1054  0.0188  0.1669
10365SOL    HW132003   1.357   5.070   3.601  2.0345  0.0605 -0.5224
10365SOL    HW232004   1.281   4.942   3.572 -0.0409  0.8256  1.3469
10366SOL     OW32005   7.390   5.723   4.503  0.1764 -0.3832 -0.4573
10366SOL    HW132006   7.466   5.750   4.554 -1.1780  0.4015  1.2408
10366SOL    HW232007   7.371   5.635   4.533 -0.5319  0.0234  0.3241
10367SOL     OW32008   1.071   6.901   3.984 -0.0216  0.3218  0.2933
10367SOL    HW132009   1.154   6.859   4.006 -0.3833 -1.7611 -1.8669
10367SOL    HW232010   1.007   6.830   3.983 -1.2017  1.3298 -0.9988
10368SOL     OW32011   5.845   0.290   2.914 -0.2836 -0.6377 -0.0008
10368SOL    HW132012   5.903   0.363   2.894 -0.4409 -0.5347 -0.0832
10368SOL    HW232013   5.767   0.331   2.951 -0.4488 -0.7476 -0.2226
10369SOL     OW32014   4.592   5.815   5.478 -0.0218  0.0339 -0.4049
10369SOL    HW132015   4.520   5.775   5.429 -0.7013  0.8330 -0.0866
10369SOL    HW232016   4.599   5.760   5.557  0.4238 -0.6691 -0.9229
10370SOL     OW32017   3.160   4.342   6.254  1.3995 -0.1024  0.0365
10370SOL    HW132018   3.134   4.276   6.189  3.1744 -0.9500  0.1473
10370SOL    HW232019   3.089   4.341   6.318  1.0634 -1.4179 -0.3273
10371SOL     OW32020   5.333   0.303   2.825  0.4717  0.1810  0.4333
10371SOL    HW132021   5.286   0.380   2.855  1.8339  0.5448  1.7858
10371SOL    HW232022   5.325   0.240   2.897  1.9487  0.2383  0.6790
10372SOL     OW32023   1.353   5.340   0.463  0.1397  0.4389 -0.2016
10372SOL    HW132024   1.379   5.312   0.376  0.2164 -0.5991  0.1386
10372SOL    HW232025   1.280   5.282   0.487 -0.3313  1.1622  0.1531
10373SOL     OW32026   4.956   0.302   7.634  0.1392  0.4559 -0.3072
10373SOL    HW132027   5.051   0.305   7.640  0.1685  2.1130 -1.1395
10373SOL    HW232028   4.935   0.208   7.627  1.7063  0.0835 -0.2855
10374SOL     OW32029   4.209   5.995   7.596  0.6942  0.1834 -0.4442
10374SOL    HW132030   4.273   6.061   7.569  0.5658 -0.0368 -1.3137
10374SOL    HW232031   4.253   5.947   7.666  1.2017  0.5041 -0.5341
10375SOL     OW32032   4.868   6.364   6.756  0.2081  0.0979  0.0559
10375SOL    HW132033   4.828   6.390   6.673 -2.1498  0.6412  1.2701
10375SOL    HW232034   4.889   6.447   6.799  1.9021 -0.1854 -0.1862
10376SOL     OW32035   6.900   1.195   6.167 -0.3498  0.1769  0.0971
10376SOL    HW132036   6.955   1.190   6.089  1.2477 -2.3264  1.2853
10376SOL    HW232037   6.921   1.281   6.205  1.2040  0.1191 -0.5690
10377SOL     OW32038   6.121   5.649   7.508  0.0434 -1.2226  0.3566
10377SOL    HW132039   6.160   5.666   7.422 -1.1933  0.1241  0.0361
10377SOL    HW232040   6.027   5.646   7.492 -0.1833 -1.3775  1.6074
10378SOL     OW32041   6.045   2.466   0.915  0.2480  0.1798 -0.2331
10378SOL    HW132042   6.082   2.552   0.895 -2.7000  0.8788 -3.7042
10378SOL    HW232043   6.084   2.408   0.850 -1.1289 -0.0350 -0.9067
10379SOL     OW32044   4.785   3.047   3.996 -0.0072 -0.0739  0.1834
10379SOL    HW132045   4.848   3.077   3.930 -0.7507  1.3592  0.0786
10379SOL    HW232046   4.735   2.979   3.952  0.6734 -0.3805 -0.1290
10380SOL     OW32047   1.096   5.454   0.692 -0.5062 -0.1507  0.3673
10380SOL    HW132048   1.028   5.511   0.659 -1.5560 -0.4746  1.8764
10380SOL    HW232049   1.050   5.390   0.746  1.0313 -0.0495  1.8736
10381SOL     OW32050   5.338   6.499   5.021 -0.7152  0.1924  0.1367
10381SOL    HW132051   5.370   6.450   4.945 -1.1356  0.4259 -0.1956
10381SOL    HW232052   5.301   6.432   5.078 -2.7460  0.2505 -1.0334
10382SOL     OW32053   1.834   6.776   0.070 -0.4462 -0.1199  0.8608
10382SOL    HW132054   1.847   6.740   0.158 -1.3718  0.2699  1.1720
10382SOL    HW232055   1.922   6.789   0.036 -0.0725 -0.2702  1.7426
10383SOL     OW32056   0.592   4.004   6.727  0.3282  0.3056 -0.2863
10383SOL    HW132057   0.642   4.068   6.675 -0.1591  1.2770  0.4133
10383SOL    HW232058   0.622   4.018   6.817  1.2963 -1.4901 -0.3029
10384SOL     OW32059   3.241   3.804   7.439 -0.4243 -0.1914  0.5747
10384SOL    HW132060   3.176   3.736   7.424  0.5093 -1.0472  0.3372
10384SOL    HW232061   3.312   3.785   7.377 -0.2776  1.1682  0.2917
10385SOL     OW32062   6.951   4.779   7.648 -0.6732 -0.1292  0.1365
10385SOL    HW132063   6.993   4.737   7.723  0.3314  0.0129 -0.3298
10385SOL    HW232064   6.914   4.860   7.684  0.6236  0.4167  0.3267
10386SOL     OW32065   1.315   4.509   0.097 -0.3302  0.3018 -1.3582
10386SOL    HW132066   1.397   4.487   0.139 -0.3272  1.7253 -0.5709
10386SOL    HW232067   1.326   4.480   0.006  1.0868  0.6138 -1.2982
10387SOL     OW32068   3.680   6.953   1.835  0.3339 -0.0502  0.6252
10387SOL    HW132069   3.667   7.004   1.755  0.8646 -1.7872 -0.6313
10387SOL    HW232070   3.623   6.995   1.900 -0.2308  1.3180 -0.6925
10388SOL     OW32071   0.484   5.154   7.519  0.2893  0.3475 -0.3756
10388SOL    HW132072   0.562   5.160   7.574 -0.7488 -0.6495  1.3028
10388SOL    HW232073   0.412   5.142   7.581 -1.2883  1.7262 -1.8317
10389SOL     OW32074   4.588   6.554   6.961 -0.5279  0.3566 -0.0692
10389SOL    HW132075   4.575   6.623   7.027  1.1006  0.1768  0.4961
10389SOL    HW232076   4.682   6.558   6.942  0.2189 -3.3782  1.9149
10390SOL     OW32077   1.533   5.282   4.551  0.0956 -0.4999  0.0857
10390SOL    HW132078   1.448   5.240   4.539  0.1770 -0.4908 -0.5576
10390SOL    HW232079   1.585   5.252   4.476 -0.2981  1.9173 -1.2460
10391SOL     OW32080   0.382   7.563   5.519  0.2638  0.4222  0.0109
10391SOL    HW132081   0.420   7.620   5.452 -1.9347  2.3672  0.2994
10391SOL    HW232082   0.327   7.621   5.571 -3.6499 -2.1790 -0.7848
10392SOL     OW32083   2.228   0.101   1.209 -0.8071 -0.3095  0.2265
10392SOL    HW132084   2.305   0.115   1.154 -1.4435  1.3561 -0.2842
10392SOL    HW232085   2.263   0.067   1.291  0.8954  3.2906  1.1854
10393SOL     OW32086   1.744   7.570   1.855  0.5005  0.7273 -0.1942
10393SOL    HW132087   1.652   7.545   1.847  0.9160 -0.3447 -2.2586
10393SOL    HW232088   1.792   7.487   1.859  1.4388  1.2558 -0.1481
10394SOL     OW32089   7.064   4.181   0.159 -0.2055  0.1118 -0.2296
10394SOL    HW132090   7.149   4.143   0.185 -0.3907  0.6750  1.3234
10394SOL    HW232091   7.087   4.257   0.106  0.2146 -0.5468 -1.0257
10395SOL     OW32092   2.554   6.061   2.397  0.4500  0.3100  0.2530
10395SOL    HW132093   2.607   6.042   2.474 -0.8110 -0.6717  0.9092
10395SOL    HW232094   2.618   6.077   2.328  1.6032 -0.1482  1.1739
10396SOL     OW32095   0.420   1.691   1.537  0.5206  0.0167  0.2935
10396SOL    HW132096   0.483   1.737   1.593 -1.5414  1.0696  1.8881
10396SOL    HW232097   0.414   1.745   1.458  0.1975  0.9933  0.9662
10397SOL     OW32098   4.683   4.137   6.564 -0.1986  0.5291 -0.5091
10397SOL    HW132099   4.687   4.177   6.651 -1.3041  0.0475 -0.2108
10397SOL    HW232100   4.655   4.047   6.581  0.5494  0.1399 -1.2943
10398SOL     OW32101   6.151   7.565   5.047 -0.1937  0.5409  0.2453
10398SOL    HW132102   6.109   7.533   4.967  0.8232 -0.2866  0.0260
10398SOL    HW232103   6.170   7.657   5.029  1.7398 -0.0909 -1.2264
10399SOL     OW32104   7.004   3.250   1.232  0.4454  0.1391 -0.2060
10399SOL    HW132105   6.963   3.230   1.316 -0.3483  1.8074 -0.1644
10399SOL    HW232106   7.090   3.284   1.254  0.3238  0.3640 -0.0742
10400SOL     OW32107   1.885   1.360   4.401  0.4684  0.1644  0.4709
10400SOL    HW132108   1.917   1.437   4.353 -2.4156  1.3460  0.2591
10400SOL    HW232109   1.826   1.395   4.467 -1.2527 -1.8769  0.1285
10401SOL     OW32110   6.612   4.163   5.052  0.7444 -0.6081 -0.9565
10401SOL    HW132111   6.589   4.244   5.007  0.6077 -0.5460 -0.7756
10401SOL    HW232112   6.642   4.191   5.139 -0.0098 -0.7958 -0.6210
10402SOL     OW32113   5.138   2.779   5.277 -0.2530  0.5608 -0.2202
10402SOL    HW132114   5.202   2.849   5.266  0.5280 -0.0823  0.1093
10402SOL    HW232115   5.185   2.709   5.322 -0.8639 -0.3714 -0.9528
10403SOL     OW32116   3.186   0.004   4.206  0.2267 -0.0041  0.5070
10403SOL    HW132117   3.095   0.032   4.220 -1.4995 -3.1559 -2.7549
10403SOL    HW232118   3.196  -0.074   4.260  0.1294 -1.0003 -0.8673
10404SOL     OW32119   7.033   6.520   7.723  0.2316 -0.4342 -0.3225
10404SOL    HW132120   7.034   6.547   7.631 -1.5033 -2.1960 -0.9489
10404SOL    HW232121   7.038   6.424   7.719 -0.3072 -0.5617  1.4120
10405SOL     OW32122   4.544   1.560   0.484 -0.3885 -0.0024  0.4355
10405SOL    HW132123   4.495   1.641   0.500 -0.2975 -0.4950  3.9763
10405SOL    HW232124   4.580   1.571   0.396 -2.6737  2.5533 -0.3295
10406SOL     OW32125   2.702   1.996   0.831 -0.0530  0.3247  0.2672
10406SOL    HW132126   2.657   1.913   0.813 -0.1085 -0.0437  1.9971
10406SOL    HW232127   2.636   2.063   0.812  0.1778  0.0563 -1.7379
10407SOL     OW32128   3.125   3.775   1.389 -0.1306  0.6758  0.4057
10407SOL    HW132129   3.126   3.773   1.293  0.7877  0.2507  0.4100
10407SOL    HW232130   3.048   3.827   1.411 -1.5656 -0.9233 -0.5344
10408SOL     OW32131   4.540   6.358   3.677  0.2767  0.7047 -0.0562
10408SOL    HW132132   4.445   6.351   3.663  0.6246  0.2228 -2.7260
10408SOL    HW232133   4.552   6.446   3.715 -1.1907  0.9468 -0.0847
10409SOL     OW32134   5.646   4.490   4.047  0.6805 -0.2964  0.0486
10409SOL    HW132135   5.741   4.484   4.040  0.8336 -3.2901  2.5525
10409SOL    HW232136   5.616   4.399   4.036 -1.9600  0.5936 -0.9270
10410SOL     OW32137   0.270   2.060   1.530  0.0472  0.5568 -0.1790
10410SOL    HW132138   0.323   1.989   1.493 -0.4295 -0.2931  0.7257
10410SOL    HW232139   0.283   2.133   1.470  0.5378 -0.2976 -1.1463
10411SOL     OW32140   0.746   6.793   4.938 -0.6527 -0.3514 -0.3336
10411SOL    HW132141   0.819   6.825   4.885 -1.2175  2.5151  0.4437
10411SOL    HW232142   0.776   6.800   5.028 -1.6676  0.4535 -0.0242
10412SOL     OW32143   3.896   2.894   2.143 -0.2894 -0.2548 -0.1754
10412SOL    HW132144   3.845   2.942   2.209  0.9702  0.1067  0.5556
10412SOL    HW232145   3.834   2.879   2.072 -1.2349  0.7799  0.3992
10413SOL     OW32146   1.262   3.030   2.417 -0.0401  0.9668 -0.1290
10413SOL    HW132147   1.289   3.102   2.475 -0.1634  1.3068 -0.4945
10413SOL    HW232148   1.199   3.069   2.357 -0.9649  0.3004  0.3753
10414SOL     OW32149   4.853   5.271   0.509 -0.0740 -0.2990 -0.2385
10414SOL    HW132150   4.912   5.304   0.441  1.8727  0.8092  1.8909
10414SOL    HW232151   4.785   5.338   0.516  1.2927  1.0323  0.8237
10415SOL     OW32152   6.104   5.176   2.933 -0.5536 -0.9757  0.0618
10415SOL    HW132153   6.028   5.229   2.909 -0.5536 -0.2606  1.4999
10415SOL    HW232154   6.160   5.177   2.856 -1.2109 -0.0422 -0.4175
10416SOL     OW32155   5.903   0.654   3.616  0.1951 -0.3491 -0.2550
10416SOL    HW132156   5.941   0.578   3.661  0.6294 -0.1345 -0.2477
10416SOL    HW232157   5.878   0.622   3.530 -0.3939 -0.7010  0.0451
10417SOL     OW32158   2.314   3.271   4.844  0.3842  0.0556 -0.3904
10417SOL    HW132159   2.377   3.278   4.772 -1.1224  1.3653 -1.6574
10417SOL    HW232160   2.365   3.238   4.918  2.0013 -1.3393 -2.0268
10418SOL     OW32161   6.320   6.921   7.616  0.4346  0.1007 -0.2884
10418SOL    HW132162   6.312   6.998   7.560  0.8071 -0.0644 -0.5755
10418SOL    HW232163   6.335   6.849   7.555 -2.2166 -0.6157 -0.2243
10419SOL     OW32164   6.408   3.322   0.275 -0.3288  0.1384 -0.1075
10419SOL    HW132165   6.446   3.250   0.326  1.4722  0.1444 -1.3226
10419SOL    HW232166   6.435   3.401   0.322  1.0898  0.1320 -0.8376
10420SOL     OW32167   1.097   4.043   0.739 -0.3999  0.1572  0.1007
10420SOL    HW132168   1.082   4.116   0.800 -2.8064  0.5538 -0.8273
10420SOL    HW232169   1.191   4.044   0.723  0.2349  0.4802  3.2095
10421SOL     OW32170   1.035   2.109   3.200 -0.0056  0.4025  0.1461
10421SOL    HW132171   0.963   2.068   3.249  0.5702 -1.9924 -0.8537
10421SOL    HW232172   1.114   2.079   3.245  0.4347  2.2367  0.6539
10422SOL     OW32173   4.111   2.709   3.728 -0.4810  0.0376  0.2673
10422SOL    HW132174   4.147   2.746   3.809  1.7523 -2.9184  0.7848
10422SOL    HW232175   4.051   2.641   3.758  1.2043 -1.8504 -0.4434
10423SOL     OW32176   3.705   4.625   5.554  0.3321 -0.2975 -0.4613
10423SOL    HW132177   3.657   4.656   5.631 -2.6918 -3.0054 -1.0355
10423SOL    HW232178   3.793   4.607   5.587 -0.2074  0.7588  1.7918
10424SOL     OW32179   7.481   1.697   1.636  0.6071  0.1431  0.9699
10424SOL    HW132180   7.571   1.668   1.619  0.1418 -1.4851  1.1498
10424SOL    HW232181   7.430   1.617   1.642 -1.0133  1.0578  0.1695
10425SOL     OW32182   1.096   3.378   4.452 -0.5206 -0.2723  0.0192
10425SOL    HW132183   1.009   3.407   4.425 -0.4986 -0.0681  0.1676
10425SOL    HW232184   1.085   3.350   4.543 -0.3192  0.2432  0.2029
10426SOL     OW32185   7.067   3.856   1.207 -0.0180 -0.7695  0.3359
10426SOL    HW132186   7.002   3.800   1.164  1.3648 -1.9805 -0.2874
10426SOL    HW232187   7.054   3.942   1.168  0.7470 -1.6742 -2.1189
10427SOL     OW32188   6.278   5.557   3.712 -0.1084  0.5546  0.2266
10427SOL    HW132189   6.210   5.505   3.755 -0.3795  0.7080 -0.0169
10427SOL    HW232190   6.283   5.638   3.763  1.9305 -0.5885  2.0661
10428SOL     OW32191   3.132   4.474   6.693  0.0752  0.0367  1.0057
10428SOL    HW132192   3.185   4.552   6.676 -0.1628 -0.0935 -0.4517
10428SOL    HW232193   3.078   4.464   6.615  0.8719 -2.1993  0.6652
10429SOL     OW32194   4.739   3.255   5.211 -0.2799 -0.3633  0.1540
10429SOL    HW132195   4.790   3.317   5.159  0.6840 -0.9829  0.3505
10429SOL    HW232196   4.742   3.173   5.162 -0.7249 -0.5298  0.3917
10430SOL     OW32197   7.032   5.233   6.395 -0.4311  0.4399  0.5798
10430SOL    HW132198   6.948   5.241   6.440 -0.7161 -0.5942  0.2525
10430SOL    HW232199   7.030   5.303   6.329 -0.2846  1.5345  1.7005
10431SOL     OW32200   4.005   3.606   0.383 -0.1175 -0.0763  0.6564
10431SOL    HW132201   4.051   3.650   0.455 -0.4983  0.1717  0.7463
10431SOL    HW232202   4.064   3.616   0.308  0.6842 -1.0849  1.1301
10432SOL     OW32203   1.756   0.760   5.077  0.2904 -0.4233 -0.3785
10432SOL    HW132204   1.798   0.675   5.064  1.1357 -0.2007  0.7533
10432SOL    HW232205   1.705   0.750   5.158 -3.3836 -1.2342 -2.5704
10433SOL     OW32206   2.054   3.813   1.196  0.2019 -0.7057 -0.2655
10433SOL    HW132207   2.081   3.739   1.142 -0.2460  0.0499 -1.5782
10433SOL    HW232208   1.966   3.834   1.165 -0.1318 -0.3450  0.8878
10434SOL     OW32209   3.062   1.956   3.878 -0.3087 -0.1948  0.2792
10434SOL    HW132210   3.011   1.922   3.804  0.7482  1.6214 -1.4092
10434SOL    HW232211   3.024   1.914   3.955 -0.6803 -3.1681 -1.3598
10435SOL     OW32212   2.843   4.092   5.816 -0.0983 -0.5490 -0.1320
10435SOL    HW132213   2.819   4.100   5.724  0.6262 -0.9933 -0.3638
10435SOL    HW232214   2.767   4.051   5.857 -1.1860  1.2905 -0.1564
10436SOL     OW32215   6.589   4.759   0.007  0.3937  0.3067 -0.1243
10436SOL    HW132216   6.539   4.797   0.080 -0.6727 -0.8203 -0.2219
10436SOL    HW232217   6.635   4.684   0.047  1.5829  0.9916 -0.1614
10437SOL     OW32218   1.512   6.333   3.027 -0.5101 -0.0048  0.1970
10437SOL    HW132219   1.472   6.260   3.073 -1.9177  0.4671 -0.2373
10437SOL    HW232220   1.443   6.400   3.022  0.0169  0.4728 -1.3900
10438SOL     OW32221   0.113   1.521   0.403  0.2921  0.5342 -0.0386
10438SOL    HW132222   0.054   1.584   0.362  0.4698  0.8867  0.2408
10438SOL    HW232223   0.066   1.492   0.482  0.8509  1.4867  0.6696
10439SOL     OW32224   2.119   1.613   3.799 -0.4641  0.1114 -0.5014
10439SOL    HW132225   2.030   1.582   3.812 -0.4398  0.9738  2.3530
10439SOL    HW232226   2.173   1.556   3.854  0.0467  2.6067  1.7807
10440SOL     OW32227   3.212   4.524   7.743  0.2824 -0.1783  0.2945
10440SOL    HW132228   3.195   4.438   7.706  2.1482 -0.3235 -0.3207
10440SOL    HW232229   3.168   4.585   7.683  1.9890 -0.5107 -1.3992
10441SOL     OW32230   4.460   3.539   6.480  0.0491 -0.0150 -0.0586
10441SOL    HW132231   4.492   3.597   6.412  0.9846 -0.3446  0.0826
10441SOL    HW232232   4.375   3.509   6.448 -0.7530  1.8782  0.1426
10442SOL     OW32233   4.063   5.647   2.663 -0.0133  0.3557 -0.4249
10442SOL    HW132234   4.117   5.588   2.610 -2.0317 -1.3553 -0.6969
10442SOL    HW232235   4.096   5.635   2.753  0.8256  0.2761 -0.7321
10443SOL     OW32236   0.948   3.754   2.041  0.5941 -0.6326  0.5959
10443SOL    HW132237   0.972   3.835   1.996 -1.8115 -0.6207 -0.8295
10443SOL    HW232238   0.976   3.768   2.131 -0.2373  2.0482  0.5296
10444SOL     OW32239   6.570   2.564   6.751  0.2252  0.3069 -0.0470
10444SOL    HW132240   6.494   2.607   6.791  1.6671  0.9122  2.1595
10444SOL    HW232241   6.606   2.631   6.692  0.5302  0.9521  0.8569
10445SOL     OW32242   5.203   6.223   7.668 -0.0608  0.7418 -0.1923
10445SOL    HW132243   5.281   6.221   7.614 -0.0853 -1.5849 -0.2310
10445SOL    HW232244   5.228   6.274   7.746  1.2259  0.6821 -0.5552
10446SOL     OW32245   4.743   4.076   1.187 -0.3761  0.2104 -0.2388
10446SOL    HW132246   4.801   4.013   1.145 -0.1817 -0.1235  0.5062
10446SOL    HW232247   4.774   4.081   1.278  2.1642  4.3213 -1.0742
10447SOL     OW32248   2.417   3.734   6.738 -0.1455  0.0298 -0.5653
10447SOL    HW132249   2.486   3.767   6.796  0.3567 -1.7410 -0.0760
10447SOL    HW232250   2.449   3.754   6.649  0.7784 -0.3129 -0.3282
10448SOL     OW32251   4.393   4.927   2.668  0.3049 -0.1831  0.1870
10448SOL    HW132252   4.299   4.912   2.658  0.0326  2.1028 -1.5619
10448SOL    HW232253   4.431   4.840   2.678 -1.5913 -1.5615 -3.2500
10449SOL     OW32254   4.970   3.502   7.383  0.6288 -0.1251  0.3874
10449SOL    HW132255   4.945   3.418   7.344 -1.0739  0.0755  0.9760
10449SOL    HW232256   5.009   3.551   7.310  1.0259 -1.1636 -0.1210
10450SOL     OW32257   7.710   3.365   4.176  0.6229 -0.3593 -0.0898
10450SOL    HW132258   7.680   3.452   4.202  1.4173 -0.0712 -0.0964
10450SOL    HW232259   7.806   3.373   4.173  0.7715 -1.4801  0.8265
10451SOL     OW32260   3.131   1.788   1.640 -0.1252  0.3161 -0.1264
10451SOL    HW132261   3.151   1.793   1.547  0.2693 -0.4473 -0.0941
10451SOL    HW232262   3.091   1.701   1.651 -2.2572  1.2615  0.0444
10452SOL     OW32263   6.571   4.399   3.813  0.1253  0.6654 -0.1207
10452SOL    HW132264   6.649   4.345   3.821  0.0239 -0.5608 -4.6939
10452SOL    HW232265   6.498   4.337   3.824 -0.0484  0.6704 -1.1140
10453SOL     OW32266   7.155   4.938   1.101  0.2138 -0.2002  0.1752
10453SOL    HW132267   7.126   5.027   1.080  1.8963  0.7028  1.4029
10453SOL    HW232268   7.232   4.924   1.045  2.1748  0.6018  2.5104
10454SOL     OW32269   6.237   6.476   0.870 -1.3713  0.0011  0.5283
10454SOL    HW132270   6.306   6.427   0.915 -2.4579 -0.4590  1.7560
10454SOL    HW232271   6.213   6.546   0.931  0.6497  2.6598 -1.4635
10455SOL     OW32272   5.792   7.531   5.983  0.1496 -0.5791 -0.1705
10455SOL    HW132273   5.796   7.438   5.959  1.6258 -0.9081  1.1876
10455SOL    HW232274   5.883   7.556   5.998  0.2658  2.1610 -4.1139
10456SOL     OW32275   0.310   3.185   3.150 -0.0514 -0.0231 -0.0133
10456SOL    HW132276   0.378   3.122   3.174  1.1041  1.6934  1.4054
10456SOL    HW232277   0.307   3.182   3.054  2.1382 -0.0606 -0.1194
10457SOL     OW32278   3.712   3.756   1.556  0.1862 -0.0248 -0.2414
10457SOL    HW132279   3.698   3.790   1.468  1.4967  0.4051 -0.2989
10457SOL    HW232280   3.803   3.729   1.557 -0.2661 -1.6441  0.4579
10458SOL     OW32281   1.636   0.582   3.947  0.6728  0.2260  0.2148
10458SOL    HW132282   1.591   0.508   3.988 -0.0565 -0.1447 -1.1927
10458SOL    HW232283   1.656   0.641   4.020 -2.3441  0.5309  0.9343
10459SOL     OW32284   0.214   1.273   3.109  0.0993  0.0382  0.2134
10459SOL    HW132285   0.160   1.211   3.158  0.7169 -2.7763 -2.3126
10459SOL    HW232286   0.159   1.297   3.034 -0.0493  2.5492  1.0403
10460SOL     OW32287   0.958   1.671   5.702  0.2234  0.3839 -0.2100
10460SOL    HW132288   1.007   1.719   5.635  0.0211  1.7501  0.5716
10460SOL    HW232289   0.900   1.737   5.740 -0.9927 -0.7980  0.0575
10461SOL     OW32290   5.151   6.148   1.527  0.1404  0.0602  0.4099
10461SOL    HW132291   5.100   6.068   1.518  0.5295 -0.1188 -0.2597
10461SOL    HW232292   5.241   6.118   1.540  0.0504  0.3617  1.9483
10462SOL     OW32293   3.670   0.746   5.684  0.1266  0.7192 -0.3474
10462SOL    HW132294   3.766   0.742   5.683  0.0878 -2.2384  0.0237
10462SOL    HW232295   3.650   0.794   5.765  1.2949  0.2937  0.2213
10463SOL     OW32296   1.080   6.323   4.809  0.0372 -0.3909 -0.4034
10463SOL    HW132297   1.151   6.294   4.753 -0.7589 -1.9753 -0.6431
10463SOL    HW232298   1.001   6.291   4.766 -0.5545 -2.5626  2.0596
10464SOL     OW32299   7.029   3.783   0.498 -0.3801 -0.5117  0.4579
10464SOL    HW132300   7.037   3.766   0.592 -0.0139  1.4021  0.8179
10464SOL    HW232301   6.937   3.768   0.479 -0.4816 -0.8159  1.1340
10465SOL     OW32302   6.853   0.528   2.768 -0.1894  0.6099  0.2535
10465SOL    HW132303   6.793   0.500   2.698  0.5750  0.3595 -0.3085
10465SOL    HW232304   6.901   0.601   2.730  0.2090  0.4896  0.5305
10466SOL     OW32305   4.397   7.015   4.796 -0.3723  0.5704  0.0086
10466SOL    HW132306   4.453   7.086   4.765  1.0468 -1.2133 -1.7790
10466SOL    HW232307   4.357   6.979   4.717 -0.1562 -1.3423  0.7041
10467SOL     OW32308   0.675   3.917   2.751 -0.1638  0.0255 -0.1026
10467SOL    HW132309   0.579   3.914   2.752 -0.1396 -0.8918  0.3745
10467SOL    HW232310   0.698   3.965   2.830 -0.2108 -0.9484  0.5202
10468SOL     OW32311   2.086   0.028   4.088  0.5379  0.4637 -0.3148
10468SOL    HW132312   1.990   0.028   4.088  0.5096 -1.1659  0.5657
10468SOL    HW232313   2.110   0.033   3.996 -0.3720  1.6775 -0.5046
10469SOL     OW32314   0.011   6.065   7.483  0.1296 -0.4030 -0.1780
10469SOL    HW132315  -0.072   6.031   7.515  0.9112 -0.0994  2.3775
10469SOL    HW232316   0.005   6.160   7.494  1.8534 -0.5226  3.1537
10470SOL     OW32317   2.696   6.478   6.858  0.3580  0.1472 -0.0868
10470SOL    HW132318   2.638   6.527   6.915 -0.3451 -0.4244 -0.2973
10470SOL    HW232319   2.728   6.542   6.794 -1.2734  0.1732 -0.9261
10471SOL     OW32320   6.620   7.604   1.671  0.2699 -0.0938 -0.0690
10471SOL    HW132321   6.585   7.671   1.729  1.5030  1.8640 -1.4685
10471SOL    HW232322   6.567   7.527   1.690 -0.5881  0.9618  2.2885
10472SOL     OW32323   3.341   0.103   3.175  0.2565  0.2650  0.4843
10472SOL    HW132324   3.295   0.033   3.128 -0.6583  0.9536  0.3064
10472SOL    HW232325   3.402   0.138   3.111 -0.2447  0.5071  0.1264
10473SOL     OW32326   1.253   2.444   4.817  0.3934  0.2019 -0.4616
10473SOL    HW132327   1.189   2.420   4.751 -0.4840  0.5236  0.2601
10473SOL    HW232328   1.333   2.398   4.790 -0.2105 -0.4524 -1.1990
10474SOL     OW32329   6.125   0.740   7.314  0.0692 -0.5678  0.2180
10474SOL    HW132330   6.161   0.782   7.392  0.8761 -1.2909  0.2559
10474SOL    HW232331   6.111   0.812   7.253 -0.0295 -0.0616  0.8274
10475SOL     OW32332   3.335   1.283   4.730  0.0267 -0.5742  0.1440
10475SOL    HW132333   3.373   1.196   4.742 -1.8031 -1.2348  1.5791
10475SOL    HW232334   3.249   1.278   4.773 -0.4310  1.7268 -0.3788
10476SOL     OW32335   0.657   7.487   1.470  0.1878  0.7900 -0.0824
10476SOL    HW132336   0.641   7.494   1.564  1.1587  2.9243 -0.0067
10476SOL    HW232337   0.752   7.480   1.462  0.0252 -4.8379 -0.7772
10477SOL     OW32338   4.533   1.758   4.577 -0.1553  0.6869 -0.4091
10477SOL    HW132339   4.556   1.680   4.629  0.8052  1.0414 -0.2723
10477SOL    HW232340   4.588   1.828   4.613 -0.4133  1.2443 -1.0635
10478SOL     OW32341   3.433   0.909   5.087  0.2832  0.3428  0.0807
10478SOL    HW132342   3.499   0.959   5.134 -1.2173  2.1322  0.4212
10478SOL    HW232343   3.369   0.884   5.154  0.2030 -0.7102 -0.3536
10479SOL     OW32344   4.862   1.845   5.429 -0.1366 -0.4595 -0.2989
10479SOL    HW132345   4.934   1.793   5.393  0.5024 -1.1646  1.8855
10479SOL    HW232346   4.787   1.784   5.430 -0.3571 -0.2168 -1.0492
10480SOL     OW32347   0.413   1.402   3.277 -0.0925  0.0177  0.0073
10480SOL    HW132348   0.444   1.488   3.248  1.2790 -0.5726 -0.3954
10480SOL    HW232349   0.353   1.374   3.208 -3.4775  2.1017  1.8256
10481SOL     OW32350   7.381   1.420   1.674  0.2740  0.7747 -0.1719
10481SOL    HW132351   7.435   1.399   1.749  1.7061  0.9923 -1.1013
10481SOL    HW232352   7.312   1.477   1.709  0.3221  0.0701  1.1255
10482SOL     OW32353   0.475   2.804   5.384  0.2233  0.1203  0.5951
10482SOL    HW132354   0.396   2.831   5.431  0.6370 -0.4377  1.6624
10482SOL    HW232355   0.466   2.709   5.376  1.3108 -0.1094  1.7817
10483SOL     OW32356   6.993   3.589   4.355  0.2687 -0.4051  0.5180
10483SOL    HW132357   6.974   3.561   4.445 -3.6980  2.2447  0.7644
10483SOL    HW232358   7.059   3.658   4.365 -0.2657 -0.0124  1.4609
10484SOL     OW32359   5.818   6.180   5.761 -0.1550  0.1429  0.0775
10484SOL    HW132360   5.899   6.160   5.808 -2.4024 -1.8325  3.5481
10484SOL    HW232361   5.815   6.117   5.689  1.8065  0.9744 -0.8113
10485SOL     OW32362   2.686   5.171   5.211  0.1489  0.0945 -0.1263
10485SOL    HW132363   2.728   5.190   5.127 -0.9066  2.0537 -0.2695
10485SOL    HW232364   2.690   5.076   5.220  2.5337  0.0405 -1.1877
10486SOL     OW32365   5.798   2.025   4.383 -0.1912 -0.2616  0.3440
10486SOL    HW132366   5.865   1.988   4.326 -1.9011 -1.7252 -0.8187
10486SOL    HW232367   5.792   2.117   4.356 -0.6768 -0.8207 -1.6030
10487SOL     OW32368   1.343   2.039   4.168  0.0554  0.6032 -0.0627
10487SOL    HW132369   1.381   2.090   4.095  1.6263 -1.6485 -0.9257
10487SOL    HW232370   1.401   2.058   4.242 -1.7433  3.1718  0.8359
10488SOL     OW32371   3.286   2.944   2.372  0.7953 -0.1900 -0.2390
10488SOL    HW132372   3.370   2.971   2.408  0.5983  2.8732 -1.7392
10488SOL    HW232373   3.308   2.888   2.297  1.3441 -1.7942  1.0732
10489SOL     OW32374   5.694   6.405   3.862 -0.0376  0.3071 -0.1215
10489SOL    HW132375   5.725   6.387   3.773 -0.6724  1.7810 -0.6756
10489SOL    HW232376   5.771   6.440   3.907 -0.1282  1.1621 -0.6123
10490SOL     OW32377   0.571   5.272   3.658  0.1245 -0.5661  0.4676
10490SOL    HW132378   0.582   5.303   3.748  1.3136 -1.6166  0.7085
10490SOL    HW232379   0.617   5.338   3.605 -0.0200 -0.2912  0.6772
10491SOL     OW32380   1.164   2.267   5.063  0.4219 -0.2781 -0.1112
10491SOL    HW132381   1.193   2.182   5.029  1.2214 -0.0569  0.0006
10491SOL    HW232382   1.221   2.331   5.020 -0.8472  0.3088 -0.9890
10492SOL     OW32383   4.746   5.155   2.144 -0.4530 -0.1667  0.0074
10492SOL    HW132384   4.752   5.068   2.106 -0.7638 -0.7325  1.2085
10492SOL    HW232385   4.674   5.149   2.207 -0.1428  0.8074  0.4839
10493SOL     OW32386   2.800   0.273   3.633 -0.3184  0.4522  0.1285
10493SOL    HW132387   2.848   0.351   3.603 -0.6462  1.1854  1.4413
10493SOL    HW232388   2.867   0.207   3.648  0.1234  0.9581  0.4116
10494SOL     OW32389   6.257   7.282   5.040  0.6527  0.0520  0.7224
10494SOL    HW132390   6.207   7.363   5.034  1.4796  0.5665  0.5122
10494SOL    HW232391   6.279   7.274   5.133 -0.7800 -0.7870  1.0049
10495SOL     OW32392   6.114   3.807   0.513  0.1821 -0.3010 -0.2736
10495SOL    HW132393   6.025   3.840   0.528 -0.6481 -2.8334  1.0666
10495SOL    HW232394   6.166   3.845   0.585 -0.5663 -1.1842  0.7764
10496SOL     OW32395   0.510   5.849   5.263  0.5847  0.1942 -0.2107
10496SOL    HW132396   0.487   5.863   5.355  0.6574 -1.7056  0.1458
10496SOL    HW232397   0.570   5.775   5.264  1.7735  1.0891 -1.6886
10497SOL     OW32398   4.616   3.538   2.986  0.4803 -0.6121  0.1564
10497SOL    HW132399   4.597   3.445   2.971  0.4390 -0.8652  1.6547
10497SOL    HW232400   4.537   3.583   2.956 -1.1205 -1.3830  2.8531
10498SOL     OW32401   3.684   3.925   7.209 -0.8120  0.4204 -0.0226
10498SOL    HW132402   3.642   3.889   7.287 -0.3190  0.0565  0.0843
10498SOL    HW232403   3.766   3.875   7.201 -1.6527 -0.7684 -1.7754
10499SOL     OW32404   3.785   6.724   4.585  0.1845  0.2214  0.1783
10499SOL    HW132405   3.785   6.808   4.631 -0.6315  0.0526  0.5080
10499SOL    HW232406   3.801   6.747   4.494 -1.4118  0.9015  0.0280
10500SOL     OW32407   5.317   1.163   1.795  0.3742  0.2930 -0.0593
10500SOL    HW132408   5.342   1.239   1.743 -3.5787  1.8959  0.0266
10500SOL    HW232409   5.375   1.165   1.871  1.8754  1.8329 -1.1874
10501SOL     OW32410   6.678   3.060   2.567 -0.0677 -0.6150  0.0603
10501SOL    HW132411   6.601   3.086   2.516 -0.9451 -2.2651  0.4714
10501SOL    HW232412   6.676   3.118   2.643 -0.3200  0.0253 -0.4257
10502SOL     OW32413   3.199   5.047   0.486  0.4755 -0.0890  0.3172
10502SOL    HW132414   3.106   5.047   0.461  0.5221  1.8040 -0.0464
10502SOL    HW232415   3.198   5.039   0.582  0.0149 -1.4122  0.2135
10503SOL     OW32416   7.275   4.338   1.696  0.8189 -0.2781  0.2098
10503SOL    HW132417   7.222   4.268   1.733 -0.7232  0.0781 -1.1740
10503SOL    HW232418   7.342   4.355   1.761 -0.3607 -1.2420  1.7414
10504SOL     OW32419   2.499   2.264   5.128  0.5251 -0.3341  0.0816
10504SOL    HW132420   2.438   2.255   5.055  1.2587  1.5536 -0.8283
10504SOL    HW232421   2.454   2.319   5.191  0.7075 -0.2112  0.1054
10505SOL     OW32422   6.429   0.620   1.327 -0.1788 -0.3500  0.0825
10505SOL    HW132423   6.469   0.699   1.363  2.4677 -1.3017 -0.5109
10505SOL    HW232424   6.452   0.621   1.234 -0.0806 -1.7721  0.0572
10506SOL     OW32425   3.300   3.100   6.155 -0.0855  0.2453  0.4377
10506SOL    HW132426   3.326   3.008   6.157  0.5684  0.4321  1.2691
10506SOL    HW232427   3.380   3.148   6.179 -0.1825  1.0910 -0.8274
10507SOL     OW32428   5.086   5.564   0.159 -0.1689 -0.0468  0.4594
10507SOL    HW132429   5.087   5.590   0.251 -0.0207 -1.9286  1.0388
10507SOL    HW232430   5.176   5.576   0.129 -0.6020  2.3671 -0.0306
10508SOL     OW32431   1.034   3.910   5.482  0.0410  0.0070 -0.0814
10508SOL    HW132432   0.987   3.869   5.554  0.1571  1.5742  0.9391
10508SOL    HW232433   1.101   3.846   5.457 -0.3243 -0.7667  0.8612
10509SOL     OW32434   4.491   3.023   3.624  0.1539 -0.4573  0.0088
10509SOL    HW132435   4.474   3.116   3.642  0.6633 -0.1660 -0.9438
10509SOL    HW232436   4.407   2.990   3.592  0.1033 -0.1888 -0.1481
10510SOL     OW32437   1.765   4.403   6.938  0.0764 -0.2009  0.6144
10510SOL    HW132438   1.824   4.396   7.013 -0.7609 -0.8778  1.2279
10510SOL    HW232439   1.774   4.318   6.893  0.4175  0.1212  0.0603
10511SOL     OW32440   3.937   7.710   2.159  0.4942 -0.0300 -0.0148
10511SOL    HW132441   3.875   7.724   2.231  0.8758 -0.3616  0.3744
10511SOL    HW232442   4.017   7.755   2.187  0.7707 -0.4956 -0.0608
10512SOL     OW32443   0.983   7.590   6.259 -0.0444  0.7398  0.1547
10512SOL    HW132444   1.076   7.603   6.277 -0.3739  0.6565  2.1908
10512SOL    HW232445   0.955   7.527   6.326 -1.3688 -0.0114 -1.0480
10513SOL     OW32446   4.277   6.250   2.765 -0.6269  0.3260 -0.0982
10513SOL    HW132447   4.209   6.303   2.806  0.1595  2.0694 -0.9206
10513SOL    HW232448   4.348   6.312   2.746  0.5149 -1.1040 -0.7594
10514SOL     OW32449   5.209   2.727   1.973 -0.3950 -0.0687  0.2060
10514SOL    HW132450   5.138   2.676   1.932 -0.7912  0.4460  0.2416
10514SOL    HW232451   5.205   2.703   2.065  0.2919 -0.9878  0.0117
10515SOL     OW32452   0.138   7.387   7.203  0.4757 -0.4346  0.7001
10515SOL    HW132453   0.186   7.459   7.244 -1.0679  1.5629 -0.8491
10515SOL    HW232454   0.046   7.406   7.221 -0.1285 -0.6050 -1.8544
10516SOL     OW32455   4.434   7.017   2.659 -0.0929  0.5347  0.3142
10516SOL    HW132456   4.394   7.005   2.573  0.6543  1.0235 -0.1058
10516SOL    HW232457   4.449   6.928   2.690  1.5932  0.3223 -0.9898
10517SOL     OW32458   2.465   5.437   0.416  0.2462  0.0666  0.1603
10517SOL    HW132459   2.453   5.360   0.472  2.5100  0.7630  1.7215
10517SOL    HW232460   2.447   5.405   0.327 -3.0066 -1.1915  1.1192
10518SOL     OW32461   3.389   5.873   0.003 -0.5149  0.6525 -0.9287
10518SOL    HW132462   3.467   5.825  -0.025  1.4007  2.1586  1.3939
10518SOL    HW232463   3.320   5.807   0.005  1.4124 -1.5202 -0.1614
10519SOL     OW32464   0.918   5.619   1.928  0.2607  0.5366 -0.0883
10519SOL    HW132465   0.908   5.712   1.911  0.1702  0.3536 -1.1295
10519SOL    HW232466   0.841   5.579   1.889 -0.2500  0.1111  1.2953
10520SOL     OW32467   5.095   6.132   1.891  0.4357  0.3429  0.3352
10520SOL    HW132468   5.055   6.170   1.813  0.3202  1.2802  0.8390
10520SOL    HW232469   5.175   6.183   1.904  0.3712  0.2952  0.9245
10521SOL     OW32470   0.219   1.874   1.032 -0.3769  0.2041 -0.0894
10521SOL    HW132471   0.285   1.929   0.990  0.1212 -2.0596 -2.5498
10521SOL    HW232472   0.142   1.880   0.976 -0.6738 -0.7692  0.1928
10522SOL     OW32473   4.324   6.881   2.939  0.2276 -0.0832  0.5622
10522SOL    HW132474   4.357   6.845   3.021 -2.0983 -1.4476  0.9735
10522SOL    HW232475   4.318   6.806   2.880  0.2448  0.5821 -0.3110
10523SOL     OW32476   4.910   1.922   0.425  0.8133 -0.5013 -0.0465
10523SOL    HW132477   4.949   1.995   0.377  0.7192  0.4823  1.3328
10523SOL    HW232478   4.816   1.932   0.412  0.7870 -0.2271  0.3326
10524SOL     OW32479   6.707   2.903   5.470 -0.3081 -0.0004 -0.1688
10524SOL    HW132480   6.745   2.903   5.558  1.2139 -0.3125 -0.7897
10524SOL    HW232481   6.623   2.859   5.480  0.2206 -0.8064  0.9847
10525SOL     OW32482   5.334   2.129   6.360 -0.0735  0.6168  0.0317
10525SOL    HW132483   5.416   2.098   6.398  0.1219 -0.0892 -0.9237
10525SOL    HW232484   5.359   2.208   6.311 -0.0840  0.7778  0.2875
10526SOL     OW32485   2.499   2.564   7.506 -0.2913 -0.6054  0.5939
10526SOL    HW132486   2.530   2.528   7.423 -1.7376  1.2468 -0.8226
10526SOL    HW232487   2.567   2.541   7.569  1.2807 -1.2823 -1.2665
10527SOL     OW32488   5.584   7.094   4.453 -0.1084 -1.1338  0.5574
10527SOL    HW132489   5.548   7.037   4.385 -2.3669 -0.5034  1.1371
10527SOL    HW232490   5.540   7.067   4.533 -0.9601  1.0936  0.9151
10528SOL     OW32491   1.807   2.472   5.576  0.2424  0.0986 -0.1496
10528SOL    HW132492   1.834   2.383   5.550  3.2344  0.8493 -0.0460
10528SOL    HW232493   1.797   2.519   5.493 -4.1418 -0.8855 -0.3804
10529SOL     OW32494   6.060   7.543   0.370  0.1723  0.0674  0.2805
10529SOL    HW132495   6.000   7.523   0.297 -0.0524 -0.2911  0.5573
10529SOL    HW232496   6.030   7.627   0.404  0.3142  0.2640 -0.0783
10530SOL     OW32497   3.618   3.574   4.351 -0.1428  0.6821  0.3015
10530SOL    HW132498   3.710   3.550   4.363 -0.3599  1.1515  4.5345
10530SOL    HW232499   3.572   3.491   4.343  0.3728  0.1978  1.8987
10531SOL     OW32500   3.895   6.575   0.603  0.1279  0.3350  0.5152
10531SOL    HW132501   3.910   6.490   0.562  0.8871  0.9948 -0.6296
10531SOL    HW232502   3.961   6.579   0.673  1.2914  0.6899 -0.5671
10532SOL     OW32503   5.884   2.320   0.399  0.7223 -0.2671  0.1478
10532SOL    HW132504   5.943   2.390   0.428  1.2275 -0.9419  0.7629
10532SOL    HW232505   5.820   2.312   0.469  0.8822 -0.6717  0.2491
10533SOL     OW32506   0.221   3.458   1.992 -0.1534 -0.0559  0.2809
10533SOL    HW132507   0.189   3.503   2.070 -1.9592 -0.4234 -0.1814
10533SOL    HW232508   0.295   3.405   2.022  1.5560  2.5643  0.9865
10534SOL     OW32509   3.214   4.610   2.079  0.6529 -0.4888 -0.0150
10534SOL    HW132510   3.292   4.567   2.113  1.2054 -0.3666 -1.0800
10534SOL    HW232511   3.246   4.666   2.009 -0.0096  1.7453  1.3447
10535SOL     OW32512   2.959   6.257   6.591 -0.3081  0.0807  0.2497
10535SOL    HW132513   3.032   6.300   6.634 -0.8737  0.4673  0.8491
10535SOL    HW232514   2.922   6.324   6.533 -1.2708  0.4775  1.2822
10536SOL     OW32515   5.768   4.006   2.285 -0.1208 -0.0748 -0.1923
10536SOL    HW132516   5.700   3.996   2.352 -0.0768  2.4919  0.3325
10536SOL    HW232517   5.849   4.018   2.334 -0.0577  1.6421 -0.6367
10537SOL     OW32518   3.814   6.220   2.212  0.3247  0.0896  0.1223
10537SOL    HW132519   3.904   6.241   2.190  0.5152 -0.5929  0.2337
10537SOL    HW232520   3.764   6.242   2.134  0.7328 -0.5380 -0.3195
10538SOL     OW32521   4.780   6.541   2.747  0.1876  0.1895 -0.0650
10538SOL    HW132522   4.761   6.477   2.815 -1.0003 -1.2286 -1.6321
10538SOL    HW232523   4.730   6.619   2.771 -2.6605 -1.2937 -0.7625
10539SOL     OW32524   0.369   2.243   4.308 -0.4256 -0.0155 -0.3231
10539SOL    HW132525   0.430   2.290   4.365 -0.3857 -0.8303  0.3286
10539SOL    HW232526   0.344   2.307   4.242  0.4414  0.6023 -0.0769
10540SOL     OW32527   1.463   2.416   3.409  0.0647 -0.2096 -0.0281
10540SOL    HW132528   1.377   2.455   3.392 -1.1536 -2.9646 -0.7121
10540SOL    HW232529   1.521   2.460   3.347 -1.3381  0.0970 -1.1807
10541SOL     OW32530   4.580   7.291   4.720 -0.0175 -0.1476  0.3307
10541SOL    HW132531   4.646   7.312   4.654 -0.0901 -1.0278 -0.0351
10541SOL    HW232532   4.630   7.263   4.796  0.0551  0.4297  0.4999
10542SOL     OW32533   7.286   5.447   4.299  0.2617  0.0851 -0.4049
10542SOL    HW132534   7.325   5.379   4.354  1.1375  0.5531 -0.4411
10542SOL    HW232535   7.346   5.456   4.225  1.1908  2.2149  0.5423
10543SOL     OW32536   1.331   4.807   6.707 -0.0914  0.4895 -0.6068
10543SOL    HW132537   1.416   4.811   6.751 -0.4263 -0.5810  0.1661
10543SOL    HW232538   1.346   4.851   6.623  1.9155 -1.8407 -1.5793
10544SOL     OW32539   7.268   1.881   2.813 -0.4040 -0.2337 -1.0188
10544SOL    HW132540   7.307   1.821   2.749  0.8241  0.7712 -1.2574
10544SOL    HW232541   7.246   1.959   2.762 -0.8410 -0.0083 -0.4958
10545SOL     OW32542   1.048   0.667   5.809  0.4153 -0.3118  0.0668
10545SOL    HW132543   1.051   0.577   5.840  0.4257 -0.4499 -0.3206
10545SOL    HW232544   1.131   0.679   5.762 -0.6720 -0.9759 -2.1946
10546SOL     OW32545   3.201   5.859   5.731  0.0561  0.8155  0.4448
10546SOL    HW132546   3.195   5.777   5.781  2.2966  0.7496  0.7078
10546SOL    HW232547   3.136   5.849   5.662 -1.1140 -0.3200  1.6552
10547SOL     OW32548   0.019   2.460   6.118 -0.3193 -0.1647 -0.3813
10547SOL    HW132549   0.026   2.466   6.214 -0.4035 -0.0137 -0.3830
10547SOL    HW232550  -0.075   2.449   6.102 -0.1410 -2.1545 -0.3530
10548SOL     OW32551   5.465   7.614   1.555 -0.2938  0.0382  0.3027
10548SOL    HW132552   5.401   7.665   1.504 -1.2175  0.0038  1.3904
10548SOL    HW232553   5.541   7.672   1.563 -0.9568  0.8654  0.6884
10549SOL     OW32554   5.168   4.000   4.376 -0.7346  0.1386 -0.4145
10549SOL    HW132555   5.097   3.988   4.312 -1.5883 -2.6029  0.8831
10549SOL    HW232556   5.215   3.917   4.375  1.5315  1.3362 -0.0584
10550SOL     OW32557   4.099   1.586   4.509  0.4821 -0.5721  0.7245
10550SOL    HW132558   4.046   1.512   4.482 -0.4361  0.8354 -1.5952
10550SOL    HW232559   4.188   1.563   4.484 -0.2648  0.5381 -3.7597
10551SOL     OW32560   0.002   3.452   0.630  0.1328 -0.3300  0.1501
10551SOL    HW132561   0.076   3.458   0.691 -0.9385  0.0683  1.4606
10551SOL    HW232562   0.002   3.535   0.584  0.5749 -0.3859  0.0415
10552SOL     OW32563   4.742   5.069   6.922  0.0591 -0.1541  0.6350
10552SOL    HW132564   4.736   5.028   7.009 -2.0156  0.8688  1.0438
10552SOL    HW232565   4.651   5.091   6.900  0.8517  2.6790 -0.2833
10553SOL     OW32566   0.253   4.986   6.746  0.0891 -0.3430  0.5626
10553SOL    HW132567   0.166   5.008   6.714 -0.0214 -0.4486  0.7830
10553SOL    HW232568   0.260   5.031   6.830  1.3246  1.9835 -0.6847
10554SOL     OW32569   4.896   4.277   6.423  0.1743  0.1192  0.1212
10554SOL    HW132570   4.845   4.223   6.484  0.5588 -1.8705 -1.2249
10554SOL    HW232571   4.986   4.267   6.453  0.2650 -0.1465 -0.2318
10555SOL     OW32572   0.969   5.431   2.482  0.3461  0.0073 -0.1411
10555SOL    HW132573   1.043   5.451   2.425  0.5875 -0.1669  0.1040
10555SOL    HW232574   0.912   5.374   2.429 -0.0280  0.8114 -0.6144
10556SOL     OW32575   5.975   5.815   5.735  0.2405  0.4636  0.0193
10556SOL    HW132576   5.936   5.728   5.741 -2.1718  1.4610 -0.1509
10556SOL    HW232577   6.060   5.800   5.694  0.6164 -1.9725  1.4502
10557SOL     OW32578   4.397   0.292   5.737 -0.0460  0.1143  0.4707
10557SOL    HW132579   4.357   0.245   5.810  1.8742  0.5845  1.8930
10557SOL    HW232580   4.344   0.372   5.729 -1.0369 -0.5240  0.4959
10558SOL     OW32581   2.425   3.777   3.002 -0.7461  0.2948  0.0011
10558SOL    HW132582   2.351   3.718   3.015  0.3952 -1.4617 -1.1732
10558SOL    HW232583   2.390   3.846   2.944 -2.3554  1.4160  2.1433
10559SOL     OW32584   0.826   0.457   7.383  0.5093 -0.1041 -0.0243
10559SOL    HW132585   0.890   0.508   7.334 -0.2010 -1.8475 -2.9827
10559SOL    HW232586   0.821   0.501   7.468  2.4548  2.5996 -1.1592
10560SOL     OW32587   6.483   1.861   2.509 -0.2929 -0.4944 -0.5900
10560SOL    HW132588   6.484   1.825   2.420  1.1264 -0.1415 -0.7344
10560SOL    HW232589   6.425   1.938   2.502  0.9530  0.4068 -1.5936
10561SOL     OW32590   5.964   1.331   0.894 -0.0507 -0.6313  0.0215
10561SOL    HW132591   5.953   1.250   0.943  2.8432 -0.5570  1.0167
10561SOL    HW232592   5.975   1.303   0.803  0.2030 -1.3201  0.2565
10562SOL     OW32593   6.865   1.309   4.185 -0.0324 -0.2353 -0.0121
10562SOL    HW132594   6.916   1.346   4.113  0.0811 -0.1926  0.0879
10562SOL    HW232595   6.798   1.375   4.204  1.2863  0.8010  1.3767
10563SOL     OW32596   3.396   0.947   1.242 -0.3417 -0.2221 -0.5494
10563SOL    HW132597   3.387   1.032   1.285  1.0271  0.0237 -0.7244
10563SOL    HW232598   3.455   0.963   1.169  2.4633 -1.9209  1.1771
10564SOL     OW32599   7.375   2.709   6.953 -0.4937 -0.1662 -0.1997
10564SOL    HW132600   7.392   2.803   6.955  0.7644 -0.3843  0.2423
10564SOL    HW232601   7.345   2.691   6.864  1.2895  0.3366 -0.9497
10565SOL     OW32602   0.501   0.866   4.273  0.4439 -0.1133 -0.4684
10565SOL    HW132603   0.542   0.792   4.228  1.2770  0.4421 -0.6414
10565SOL    HW232604   0.422   0.885   4.222  0.9616  0.0004 -1.2274
10566SOL     OW32605   3.431   0.564   4.515 -0.3704  0.1911 -0.1617
10566SOL    HW132606   3.513   0.589   4.473  0.5075 -0.0472  1.3259
10566SOL    HW232607   3.398   0.645   4.554 -0.5765  0.1809 -0.3112
10567SOL     OW32608   3.138   1.680   7.242 -0.1822  0.1405 -0.2281
10567SOL    HW132609   3.144   1.586   7.257 -1.0184  0.3009  1.3281
10567SOL    HW232610   3.193   1.719   7.310 -1.5675  0.8169  0.5573
10568SOL     OW32611   3.271   2.534   2.396  0.4157 -0.4734 -0.1443
10568SOL    HW132612   3.262   2.592   2.472  2.2876  1.3056 -1.1546
10568SOL    HW232613   3.346   2.478   2.418  0.9977  0.0846 -0.6528
10569SOL     OW32614   0.473   1.846   6.081 -0.1987  0.2873 -0.2567
10569SOL    HW132615   0.566   1.868   6.087  0.2881 -1.5964 -0.3045
10569SOL    HW232616   0.428   1.922   6.119  1.5209 -0.1804  3.1547
10570SOL     OW32617   1.633   5.541   4.202  0.0423 -0.2464 -0.7478
10570SOL    HW132618   1.537   5.540   4.199  0.0544  0.4416 -1.9169
10570SOL    HW232619   1.654   5.611   4.264 -0.2220  0.6171 -1.6091
10571SOL     OW32620   5.712   2.654   3.751  0.3940 -0.0324  0.0802
10571SOL    HW132621   5.702   2.623   3.842 -2.7702 -0.1510 -0.2016
10571SOL    HW232622   5.708   2.749   3.758  0.8054 -0.0089  0.0759
10572SOL     OW32623   7.575   5.304   4.873  0.0940 -0.3520  0.5625
10572SOL    HW132624   7.661   5.347   4.874 -0.0101 -0.1496  0.7632
10572SOL    HW232625   7.595   5.210   4.876  0.2960 -0.2936  1.2279
10573SOL     OW32626   4.711   6.216   1.398  0.3209 -0.5557 -0.3897
10573SOL    HW132627   4.759   6.205   1.480 -0.5988 -1.7313  0.0140
10573SOL    HW232628   4.646   6.284   1.417  1.7399  1.0189 -0.9290
10574SOL     OW32629   2.480   2.224   2.470  0.2781  0.2539  0.4356
10574SOL    HW132630   2.467   2.130   2.460  3.1158 -0.3109  1.1744
10574SOL    HW232631   2.495   2.257   2.382  1.2618 -0.3773  0.3549
10575SOL     OW32632   5.347   2.026   0.084  0.4927  0.2681  0.1425
10575SOL    HW132633   5.391   2.094   0.137  1.3024 -0.7175  0.7816
10575SOL    HW232634   5.381   1.944   0.119 -1.9643 -0.5741  0.7233
10576SOL     OW32635   3.526   2.370   4.160 -0.0827  0.1398  0.5245
10576SOL    HW132636   3.577   2.360   4.240 -0.3646 -0.6049  0.6174
10576SOL    HW232637   3.447   2.317   4.175  0.1375 -0.4905 -0.4692
10577SOL     OW32638   4.558   1.339   0.250 -0.0769 -0.5469 -0.9278
10577SOL    HW132639   4.615   1.283   0.197  0.8831 -0.6467  0.1898
10577SOL    HW232640   4.558   1.424   0.204  0.6690 -0.6571 -1.1380
10578SOL     OW32641   7.264   1.707   7.285 -0.1912  0.0512 -0.1689
10578SOL    HW132642   7.311   1.778   7.329  0.3108  0.8241 -1.8601
10578SOL    HW232643   7.329   1.670   7.225 -1.1122 -0.3430 -0.9325
10579SOL     OW32644   2.748   6.535   2.862  0.1009  1.2636 -0.3665
10579SOL    HW132645   2.713   6.518   2.950  0.4920  0.7826 -0.2927
10579SOL    HW232646   2.795   6.454   2.840  0.6619  1.6769 -0.6972
10580SOL     OW32647   5.396   1.188   7.519  0.2218 -0.5354  0.2480
10580SOL    HW132648   5.454   1.163   7.447 -0.5883 -1.0316 -0.2406
10580SOL    HW232649   5.391   1.284   7.512  0.4507 -0.5448 -0.1124
10581SOL     OW32650   3.372   4.952   5.177 -0.3829  0.4554 -0.3030
10581SOL    HW132651   3.360   5.040   5.211  1.2976  0.9837 -0.9643
10581SOL    HW232652   3.466   4.935   5.187 -0.3514 -0.5192 -1.8632
10582SOL     OW32653   4.709   7.132   0.034  0.1325 -0.2447 -0.0268
10582SOL    HW132654   4.673   7.172   0.113 -0.0625 -1.1361  0.3460
10582SOL    HW232655   4.803   7.123   0.052  0.8808  3.1117 -1.4278
10583SOL     OW32656   1.331   4.886   2.070  0.3207  0.1444  0.1149
10583SOL    HW132657   1.297   4.975   2.055 -0.5912 -0.4456 -1.5668
10583SOL    HW232658   1.257   4.829   2.050  1.3570 -1.0545 -0.3686
10584SOL     OW32659   2.803   3.281   3.680 -0.1365 -0.9293  0.2965
10584SOL    HW132660   2.814   3.225   3.756  1.2108  0.0939  0.9106
10584SOL    HW232661   2.885   3.330   3.675 -0.2545 -0.8712 -1.7394
10585SOL     OW32662   7.504   2.500   7.090  0.3537  0.7310  0.1504
10585SOL    HW132663   7.498   2.590   7.123  0.9142  1.2668 -1.1458
10585SOL    HW232664   7.539   2.509   7.002 -1.0494 -0.6578 -0.5928
10586SOL     OW32665   5.154   2.041   1.574 -0.4042  0.5553  0.2159
10586SOL    HW132666   5.226   2.073   1.627  1.1975 -0.6012 -1.1783
10586SOL    HW232667   5.193   1.977   1.515 -2.5035  0.1549 -0.8529
10587SOL     OW32668   7.175   5.402   0.484 -0.2819  0.0740 -0.0953
10587SOL    HW132669   7.148   5.482   0.530 -0.2953 -0.3727  0.6883
10587SOL    HW232670   7.141   5.331   0.538  0.8258 -0.4760 -0.1112
10588SOL     OW32671   6.038   3.423   3.276 -0.0974  0.0491 -0.7344
10588SOL    HW132672   6.028   3.376   3.194 -0.2908 -0.8090 -0.2317
10588SOL    HW232673   5.989   3.371   3.340 -1.3516  1.5693 -0.3840
10589SOL     OW32674   4.945   2.312   1.483  0.4392  0.5435 -0.2848
10589SOL    HW132675   5.026   2.338   1.440  0.0186  0.8722 -0.8829
10589SOL    HW232676   4.943   2.216   1.475  2.0590  0.2330  2.0531
10590SOL     OW32677   4.389   4.846   5.268 -0.2530  0.2111 -0.3529
10590SOL    HW132678   4.338   4.774   5.231  0.6916 -0.4473 -0.4234
10590SOL    HW232679   4.362   4.923   5.218 -1.1794 -0.1148 -0.3670
10591SOL     OW32680   6.064   0.372   1.973  0.2119 -0.4319  0.2130
10591SOL    HW132681   6.114   0.305   1.926 -2.6683 -2.5881 -0.0298
10591SOL    HW232682   6.002   0.323   2.026 -1.2009  2.0667  1.0328
10592SOL     OW32683   1.272   0.103   1.740  0.4868 -0.0959  0.1374
10592SOL    HW132684   1.334   0.169   1.771  0.4828  0.1951 -0.4653
10592SOL    HW232685   1.200   0.153   1.701  0.3862 -0.4473 -0.1404
10593SOL     OW32686   3.486   2.448   5.656 -0.0061  0.0166  0.3065
10593SOL    HW132687   3.405   2.497   5.667  0.7003  1.2203  0.3605
10593SOL    HW232688   3.545   2.484   5.722  0.1737 -1.7781  1.1853
10594SOL     OW32689   5.729   2.979   0.233  0.5125 -0.3488 -0.2290
10594SOL    HW132690   5.786   2.920   0.184  0.2306  1.8350 -3.5512
10594SOL    HW232691   5.680   3.027   0.166 -1.3199  1.6888  2.3107
10595SOL     OW32692   7.733   0.571   7.520  0.2982 -0.2708 -0.0938
10595SOL    HW132693   7.766   0.543   7.435 -1.3251 -0.6310 -0.6274
10595SOL    HW232694   7.655   0.518   7.535 -0.2954  0.8369  0.9314
10596SOL     OW32695   1.274   0.197   3.261 -0.0733  0.3130  0.1081
10596SOL    HW132696   1.365   0.169   3.266  0.4170  1.4640 -1.4642
10596SOL    HW232697   1.276   0.276   3.207 -1.9260  0.7731  0.6193
10597SOL     OW32698   1.422   6.706   6.030  0.8129 -0.0177 -0.0108
10597SOL    HW132699   1.511   6.674   6.044  0.0800 -2.2271 -0.1211
10597SOL    HW232700   1.407   6.696   5.936  0.9729  1.8933 -0.2807
10598SOL     OW32701   5.939   5.706   4.915  0.3330  0.1497 -0.2065
10598SOL    HW132702   5.975   5.787   4.951  3.5482 -0.2289 -2.0984
10598SOL    HW232703   5.891   5.667   4.987  1.5782  2.1164  1.8294
10599SOL     OW32704   3.937   1.265   1.266  0.0934  0.1285 -0.3449
10599SOL    HW132705   3.860   1.317   1.240 -0.2819 -0.0962  0.3079
10599SOL    HW232706   3.995   1.329   1.307  0.9302  0.5996 -2.1558
10600SOL     OW32707   2.252   1.118   5.654 -0.4205  0.2065  0.2732
10600SOL    HW132708   2.283   1.188   5.713 -1.4889  2.6192 -1.8519
10600SOL    HW232709   2.297   1.136   5.571  0.0430 -2.3194 -0.0914
10601SOL     OW32710   7.402   4.629   0.643 -0.1729 -0.0852 -0.1111
10601SOL    HW132711   7.325   4.647   0.590 -0.4501 -0.1756  0.2566
10601SOL    HW232712   7.390   4.540   0.675 -0.8804  0.5363  1.5166
10602SOL     OW32713   2.038   0.345   3.774 -0.6321 -0.0632  0.1219
10602SOL    HW132714   2.023   0.413   3.709  0.3462 -0.6761 -0.7722
10602SOL    HW232715   1.967   0.282   3.760 -1.4794  0.6910  0.8827
10603SOL     OW32716   1.196   3.063   2.929 -0.1793 -0.0091  0.2859
10603SOL    HW132717   1.182   3.144   2.978 -0.2823 -0.0269  0.2863
10603SOL    HW232718   1.202   3.091   2.838 -0.1041  0.0115  0.2980
10604SOL     OW32719   7.075   4.102   1.072  0.0427 -0.4956 -0.4683
10604SOL    HW132720   7.169   4.118   1.061 -0.2070  0.6468 -1.1799
10604SOL    HW232721   7.047   4.064   0.989 -0.3268  0.2726 -0.7068
10605SOL     OW32722   6.680   2.826   2.236  0.1189  0.4709 -0.3126
10605SOL    HW132723   6.602   2.789   2.195  1.0641  0.9317 -2.7652
10605SOL    HW232724   6.664   2.821   2.330 -1.3033 -2.7803 -0.6038
10606SOL     OW32725   4.440   1.123   1.483  0.1360 -0.5003  0.2137
10606SOL    HW132726   4.466   1.183   1.552 -1.9829 -1.1034  1.6166
10606SOL    HW232727   4.346   1.136   1.474  0.1652 -1.3182 -1.7292
10607SOL     OW32728   6.869   3.560   2.858 -0.2721 -0.1806  0.0059
10607SOL    HW132729   6.831   3.604   2.782 -1.8481  0.2565  0.9807
10607SOL    HW232730   6.953   3.603   2.872 -0.0575 -0.1379 -1.3648
10608SOL     OW32731   3.630   7.043   3.292  0.0044  0.4223  0.1155
10608SOL    HW132732   3.709   7.087   3.323  0.7080 -0.5047 -0.2898
10608SOL    HW232733   3.606   6.983   3.363  0.3566 -0.1379 -0.2294
10609SOL     OW32734   6.395   5.056   5.729 -0.6052 -0.5929 -0.6449
10609SOL    HW132735   6.308   5.059   5.690 -0.7206 -0.2075 -0.3668
10609SOL    HW232736   6.383   5.089   5.818 -0.2459 -0.9199 -0.4708
10610SOL     OW32737   1.264   2.349   5.299  0.2400 -0.1501  0.1117
10610SOL    HW132738   1.218   2.318   5.221 -0.3189  1.3234 -0.1822
10610SOL    HW232739   1.339   2.398   5.264  0.0208  0.4683  0.4963
10611SOL     OW32740   7.166   7.417   5.589 -0.0100  0.4279  0.2537
10611SOL    HW132741   7.193   7.505   5.562 -1.6087  1.0759  0.6145
10611SOL    HW232742   7.186   7.361   5.515  0.9106  1.1216 -0.0362
10612SOL     OW32743   6.711   7.425   2.516  0.0404 -0.2562 -0.2128
10612SOL    HW132744   6.697   7.337   2.481 -0.6942 -0.2294  0.0006
10612SOL    HW232745   6.665   7.425   2.600 -0.9963  0.7059 -0.7484
10613SOL     OW32746   7.214   2.929   2.522  0.1808  0.0333 -0.1257
10613SOL    HW132747   7.153   2.857   2.539 -0.5591  0.5102 -0.6641
10613SOL    HW232748   7.163   3.008   2.539  1.5724  0.4789  2.4541
10614SOL     OW32749   2.390   1.793   1.586  0.2348  0.4983 -0.0707
10614SOL    HW132750   2.304   1.773   1.550 -0.0513 -0.0530  0.9099
10614SOL    HW232751   2.390   1.889   1.596 -0.0583  0.5534 -0.5624
10615SOL     OW32752   0.272   7.339   5.475 -0.4712 -0.3317  0.2976
10615SOL    HW132753   0.322   7.264   5.506  1.2324  0.4603 -0.4187
10615SOL    HW232754   0.318   7.415   5.510 -3.1016  0.4520  2.4208
10616SOL     OW32755   2.330   4.999   5.341 -0.2139 -0.2322  0.1301
10616SOL    HW132756   2.262   5.021   5.405 -2.0458  1.7110 -2.2936
10616SOL    HW232757   2.399   5.063   5.357 -0.2180 -0.3844  0.7840
10617SOL     OW32758   3.684   6.068   0.077  0.7831 -0.1113 -0.3536
10617SOL    HW132759   3.600   6.070   0.124  0.7588  1.0270 -0.4318
10617SOL    HW232760   3.749   6.058   0.146  0.5582 -2.1614 -0.3612
10618SOL     OW32761   1.112   0.286   4.891 -0.2675  0.2117  0.0602
10618SOL    HW132762   1.083   0.352   4.828  1.4001  0.4028 -0.5602
10618SOL    HW232763   1.090   0.323   4.976 -0.7395  0.8602 -0.3321
10619SOL     OW32764   6.704   4.890   3.760 -0.7464 -0.2228 -0.1653
10619SOL    HW132765   6.695   4.983   3.780 -0.9685  0.1603 -1.8329
10619SOL    HW232766   6.792   4.881   3.724  0.7997 -1.4339  3.4997
10620SOL     OW32767   7.585   5.662   3.362  0.1804 -0.1129  0.2529
10620SOL    HW132768   7.644   5.681   3.289 -0.1376 -0.1136 -0.0089
10620SOL    HW232769   7.640   5.669   3.440  0.0590  2.1114  0.2025
10621SOL     OW32770   5.022   4.201   4.026  0.6354 -0.2916  0.1366
10621SOL    HW132771   5.052   4.279   4.073  0.6981 -0.8954  1.1292
10621SOL    HW232772   4.972   4.236   3.952  1.9029  0.6999 -0.2911
10622SOL     OW32773   2.960   0.864   3.096  0.2201 -0.1783 -1.0378
10622SOL    HW132774   3.011   0.784   3.109  0.9910  0.1647 -1.8499
10622SOL    HW232775   3.025   0.930   3.071  0.3996  1.9913  3.9963
10623SOL     OW32776   5.413   2.407   5.208  0.1009 -0.7144 -0.2395
10623SOL    HW132777   5.398   2.429   5.116  0.2376 -1.6334 -0.4981
10623SOL    HW232778   5.498   2.444   5.228  0.8546 -1.9666 -1.0005
10624SOL     OW32779   1.048   6.657   6.631  0.2187 -0.6930  0.2542
10624SOL    HW132780   1.026   6.592   6.564  0.1693 -1.2565  0.8056
10624SOL    HW232781   0.984   6.642   6.701 -1.0520  1.2347 -0.4067
10625SOL     OW32782   6.774   7.201   4.786 -0.0956 -0.0888  0.7125
10625SOL    HW132783   6.826   7.269   4.829  0.8018  0.7514 -1.5347
10625SOL    HW232784   6.686   7.240   4.779  0.3971  0.8875 -0.5085
10626SOL     OW32785   3.282   7.474   3.214  0.2590  0.0907  0.1366
10626SOL    HW132786   3.205   7.419   3.207 -0.1934  0.8360 -1.0106
10626SOL    HW232787   3.292   7.490   3.308 -1.2759  0.3904  0.2733
10627SOL     OW32788   3.666   2.598   1.686  0.2301 -0.1005  0.1291
10627SOL    HW132789   3.663   2.642   1.601 -0.6487 -2.8517 -1.3910
10627SOL    HW232790   3.668   2.670   1.749  1.2062  2.0740 -2.1761
10628SOL     OW32791   5.925   3.592   4.255  0.2933  0.0538  0.1479
10628SOL    HW132792   5.911   3.572   4.162 -0.7687 -1.7261  0.6525
10628SOL    HW232793   5.901   3.685   4.263  1.7856  0.6477 -1.5982
10629SOL     OW32794   3.495   6.706   4.471  0.0962 -0.4412 -0.0668
10629SOL    HW132795   3.526   6.694   4.561  1.1358 -1.7184 -0.5680
10629SOL    HW232796   3.401   6.689   4.476 -0.2968  1.6874  1.1481
10630SOL     OW32797   1.619   0.803   5.956 -0.5970  0.2967 -0.3250
10630SOL    HW132798   1.571   0.785   5.876  2.0639  1.9217 -2.4627
10630SOL    HW232799   1.600   0.895   5.975  0.4984  0.5553 -0.4095
10631SOL     OW32800   1.223   5.801   2.960 -0.1712 -0.6902  0.2608
10631SOL    HW132801   1.220   5.896   2.949  1.7478 -0.6692 -0.5404
10631SOL    HW232802   1.294   5.787   3.023 -0.7637 -1.5829  0.7514
10632SOL     OW32803   3.308   0.337   0.023  0.1343 -0.0200  0.4238
10632SOL    HW132804   3.321   0.373   0.111 -2.9345  1.6362  0.3548
10632SOL    HW232805   3.304   0.243   0.036 -1.3584  0.2339  2.3050
10633SOL     OW32806   3.292   3.716   5.509  0.0636  0.2977 -0.4755
10633SOL    HW132807   3.284   3.694   5.417 -0.6503  0.5173 -0.4668
10633SOL    HW232808   3.207   3.693   5.547  0.2625  0.4558  0.0751
10634SOL     OW32809   1.125   7.006   0.658  0.5605 -0.3908 -0.0454
10634SOL    HW132810   1.049   7.054   0.624  0.7016 -0.8609 -1.0469
10634SOL    HW232811   1.115   7.012   0.753 -1.1377 -1.0663 -0.1355
10635SOL     OW32812   0.859   4.508   6.462 -0.4359  0.3752 -0.1079
10635SOL    HW132813   0.945   4.551   6.459 -0.8262  1.1318 -1.1448
10635SOL    HW232814   0.845   4.489   6.555  0.5123  0.9382  0.1697
10636SOL     OW32815   0.068   1.901   2.963  0.0522 -0.0585  0.1056
10636SOL    HW132816   0.123   1.980   2.959 -0.7012  0.4721 -0.0593
10636SOL    HW232817   0.014   1.906   2.884 -0.8745 -0.0833  0.7223
10637SOL     OW32818   2.227   2.194   0.445  0.0553 -0.0783 -0.2329
10637SOL    HW132819   2.235   2.181   0.351 -0.4519 -0.6128 -0.2105
10637SOL    HW232820   2.247   2.287   0.458  1.2361 -0.2489 -0.7221
10638SOL     OW32821   3.483   2.749   1.035 -0.0902  0.3415  0.0324
10638SOL    HW132822   3.553   2.781   0.978  2.3252  0.2365  2.6983
10638SOL    HW232823   3.493   2.799   1.115 -3.9500  1.1615  0.1667
10639SOL     OW32824   1.329   6.650   5.614 -0.2154 -0.2249  0.3293
10639SOL    HW132825   1.297   6.731   5.656  1.3863 -0.4055  2.0590
10639SOL    HW232826   1.295   6.580   5.670  0.1030 -0.6093  0.0433
10640SOL     OW32827   0.312   3.746   5.816 -0.2641  0.0047  0.2287
10640SOL    HW132828   0.343   3.674   5.870 -0.3864  0.9519  1.6067
10640SOL    HW232829   0.364   3.741   5.736 -0.7946 -2.0541 -0.0228
10641SOL     OW32830   1.849   0.161   3.171  0.0948  0.6582  0.3323
10641SOL    HW132831   1.789   0.230   3.143 -0.4752 -0.6502 -1.9363
10641SOL    HW232832   1.846   0.097   3.100  1.2212 -1.3138  1.9660
10642SOL     OW32833   5.339   4.289   3.867  0.2847 -0.5356 -0.2859
10642SOL    HW132834   5.280   4.323   3.934 -0.3556 -0.3419 -0.9384
10642SOL    HW232835   5.295   4.211   3.833  0.4341 -0.4294 -0.7289
10643SOL     OW32836   0.998   5.568   7.076 -0.5443 -0.6838 -0.2238
10643SOL    HW132837   1.048   5.488   7.060  0.4026  0.0844 -1.3207
10643SOL    HW232838   0.953   5.585   6.993 -0.8913 -0.1922  0.0592
10644SOL     OW32839   5.103   3.054   7.000  0.0389 -0.1063 -0.0855
10644SOL    HW132840   5.124   2.981   7.059  2.3621  0.0857 -0.5859
10644SOL    HW232841   5.086   3.012   6.916 -0.4528 -0.1939  0.0580
10645SOL     OW32842   2.917   2.507   2.969  0.1182 -0.1306 -0.0470
10645SOL    HW132843   2.980   2.487   2.899  0.0313  0.0514 -0.1776
10645SOL    HW232844   2.924   2.602   2.980  2.4694 -0.4782  2.3900
10646SOL     OW32845   4.116   2.514   2.950 -0.0575  0.7537 -0.2802
10646SOL    HW132846   4.196   2.515   3.002  0.5084  2.0137 -1.1345
10646SOL    HW232847   4.107   2.603   2.917 -1.2902  0.3961 -0.9896
10647SOL     OW32848   4.435   6.326   6.143 -0.0999  0.0624  0.5712
10647SOL    HW132849   4.368   6.369   6.090  0.0884 -2.6640 -2.1031
10647SOL    HW232850   4.400   6.239   6.161  1.8503 -0.6856  0.9655
10648SOL     OW32851   3.663   3.378   0.914 -0.2008  0.9890  0.1650
10648SOL    HW132852   3.637   3.322   0.986 -2.0746  0.3787 -0.9020
10648SOL    HW232853   3.605   3.454   0.920 -0.8488  0.6180 -1.0511
10649SOL     OW32854   0.141   1.598   6.605  0.0659  0.4618  0.0679
10649SOL    HW132855   0.105   1.576   6.691  1.3783 -0.6594  0.3603
10649SOL    HW232856   0.100   1.535   6.546 -1.3150  1.6268 -0.2798
10650SOL     OW32857   7.505   7.644   0.791 -0.2840 -0.3833 -0.2424
10650SOL    HW132858   7.521   7.551   0.806  2.7070 -0.3366 -2.2072
10650SOL    HW232859   7.446   7.646   0.716  0.5090 -0.7771 -0.9032
10651SOL     OW32860   4.170   0.059   7.500  0.6395 -0.1178 -0.7790
10651SOL    HW132861   4.097   0.013   7.542  1.7760 -1.5399 -0.2976
10651SOL    HW232862   4.129   0.105   7.426 -0.8583 -0.2467 -0.0712
10652SOL     OW32863   6.211   0.476   5.667 -0.0874  0.0033 -0.0490
10652SOL    HW132864   6.120   0.506   5.666  0.1519  0.7769  0.0961
10652SOL    HW232865   6.260   0.552   5.699  0.5315 -0.6362  0.5453
10653SOL     OW32866   4.605   4.411   5.829  0.0883  0.1367 -0.2721
10653SOL    HW132867   4.691   4.369   5.837 -0.7183 -1.8849 -1.4646
10653SOL    HW232868   4.545   4.351   5.873 -1.3809 -1.0989 -3.6005
10654SOL     OW32869   7.164   6.374   0.767 -0.4293 -0.2105  0.2313
10654SOL    HW132870   7.162   6.369   0.862  0.2608 -1.6352  0.2040
10654SOL    HW232871   7.252   6.345   0.743 -0.5012  0.3758 -0.8340
10655SOL     OW32872   7.292   5.268   6.492 -0.4033 -0.0105 -0.3131
10655SOL    HW132873   7.274   5.332   6.561 -0.1988  0.5300 -0.7472
10655SOL    HW232874   7.206   5.246   6.457 -0.4883 -0.0888 -0.0559
10656SOL     OW32875   4.579   2.518   0.679 -0.2558 -0.1040  0.3432
10656SOL    HW132876   4.526   2.517   0.599 -1.2240 -1.8420  0.9552
10656SOL    HW232877   4.520   2.552   0.746 -0.5659 -1.8022  0.9780
10657SOL     OW32878   7.215   1.333   6.140 -0.1518 -0.3990 -0.0024
10657SOL    HW132879   7.230   1.240   6.158  2.1818  0.0143  0.5873
10657SOL    HW232880   7.212   1.339   6.045  0.3381 -1.0005 -0.0625
10658SOL     OW32881   4.643   1.260   3.995  0.5335 -0.0184 -0.2796
10658SOL    HW132882   4.687   1.339   4.026  1.2865 -0.7004  0.4545
10658SOL    HW232883   4.714   1.199   3.975 -0.0418 -0.9621  0.4292
10659SOL     OW32884   0.909   2.290   4.915 -0.2254 -0.1369  0.1543
10659SOL    HW132885   0.897   2.284   4.820 -1.5858  0.5000  0.2662
10659SOL    HW232886   0.996   2.253   4.931 -0.1508 -0.6223 -1.2919
10660SOL     OW32887   4.152   7.654   7.280 -0.4673  0.3668  0.2750
10660SOL    HW132888   4.204   7.672   7.358  0.4126  2.4628 -0.7172
10660SOL    HW232889   4.132   7.741   7.244 -0.5765 -0.5255 -2.0058
10661SOL     OW32890   1.630   4.862   2.420 -0.1731  0.3737  0.0840
10661SOL    HW132891   1.622   4.951   2.455  0.6810  1.3649 -2.0750
10661SOL    HW232892   1.725   4.847   2.415 -0.3010 -0.3477 -0.2950
10662SOL     OW32893   4.819   1.234   1.524  0.3420  0.5575  0.4160
10662SOL    HW132894   4.889   1.294   1.551  0.8984 -0.2210  0.7456
10662SOL    HW232895   4.864   1.152   1.507 -0.2482  0.5306 -1.1471
10663SOL     OW32896   5.964   5.553   2.974  0.1478 -0.4383 -0.1404
10663SOL    HW132897   5.900   5.607   3.021  0.9067 -0.6372  1.1561
10663SOL    HW232898   6.004   5.612   2.911 -1.4342 -0.3521 -1.1416
10664SOL     OW32899   5.367   7.240   3.043 -0.4568  0.0043 -0.5283
10664SOL    HW132900   5.327   7.163   3.003 -0.7641 -0.6079  0.8859
10664SOL    HW232901   5.433   7.269   2.980 -0.9311 -0.8958 -1.4599
10665SOL     OW32902   0.250   2.331   6.069  0.2535 -0.1039 -0.2714
10665SOL    HW132903   0.284   2.331   6.159  0.8921  1.3753 -0.4769
10665SOL    HW232904   0.166   2.376   6.075  1.0972  1.6011 -0.6450
10666SOL     OW32905   6.561   4.774   0.812  0.6136  0.0217 -0.0232
10666SOL    HW132906   6.474   4.814   0.805  0.5116 -0.2017 -0.0720
10666SOL    HW232907   6.550   4.704   0.876  0.0161 -1.8735 -2.0609
10667SOL     OW32908   7.333   3.154   4.196  0.1385 -0.4055 -0.2164
10667SOL    HW132909   7.331   3.222   4.128  0.9519 -0.3085 -0.1538
10667SOL    HW232910   7.242   3.124   4.203 -1.0425  3.0661  2.1763
10668SOL     OW32911   2.683   0.332   0.409 -0.0626 -0.3537 -0.0937
10668SOL    HW132912   2.713   0.248   0.372 -0.9176 -0.8783  0.3838
10668SOL    HW232913   2.618   0.363   0.347 -0.2570 -0.3883  0.0950
10669SOL     OW32914   1.741   6.142   3.561 -0.1151  0.0045 -0.0693
10669SOL    HW132915   1.763   6.220   3.509 -0.8653 -0.7119 -1.5046
10669SOL    HW232916   1.778   6.161   3.648 -0.1099  1.8742 -0.4288
10670SOL     OW32917   2.341   4.563   0.135  0.1202  0.1760  0.2643
10670SOL    HW132918   2.371   4.625   0.068  0.8536 -0.7175 -0.2672
10670SOL    HW232919   2.358   4.477   0.097 -0.3818 -0.3519  1.2017
10671SOL     OW32920   3.770   1.710   5.459  0.2148 -0.0763 -0.7265
10671SOL    HW132921   3.675   1.721   5.456  0.2443  0.2514 -0.4736
10671SOL    HW232922   3.788   1.644   5.392 -0.1677  0.0236 -0.9333
10672SOL     OW32923   7.453   4.435   0.031 -0.2795 -0.3665 -0.5543
10672SOL    HW132924   7.530   4.398   0.074 -0.3242  1.2508  1.0696
10672SOL    HW232925   7.489   4.492  -0.037 -0.0104  0.2608  0.0941
10673SOL     OW32926   6.996   3.321   2.379 -0.3276 -0.2457  0.1699
10673SOL    HW132927   7.056   3.298   2.308 -1.5142 -0.9583 -0.6176
10673SOL    HW232928   6.911   3.289   2.351 -0.9599  0.0828  1.6095
10674SOL     OW32929   5.349   1.950   7.481  0.0464 -0.0474 -0.0784
10674SOL    HW132930   5.325   2.037   7.513 -0.4850 -0.2626  0.1341
10674SOL    HW232931   5.338   1.893   7.558 -0.2958 -0.4104 -0.3879
10675SOL     OW32932   6.606   6.303   0.465  0.5460  0.0309 -0.1023
10675SOL    HW132933   6.674   6.370   0.464  3.4656 -2.6224  1.6434
10675SOL    HW232934   6.614   6.258   0.381  2.1923 -1.2905  0.7092
10676SOL     OW32935   5.655   4.253   2.127 -0.0057  0.0644  0.2563
10676SOL    HW132936   5.733   4.203   2.150  0.1489  0.3897  0.4353
10676SOL    HW232937   5.582   4.201   2.162  0.0308 -0.8860 -1.0060
10677SOL     OW32938   0.919   0.723   5.329  0.0067 -0.0202 -0.1535
10677SOL    HW132939   1.006   0.759   5.314  0.1903 -0.3610  0.0830
10677SOL    HW232940   0.928   0.670   5.408 -0.1148 -1.0790 -0.8320
10678SOL     OW32941   5.700   7.663   7.356  0.2891  0.2317 -0.3383
10678SOL    HW132942   5.731   7.586   7.404  0.2897  0.6159  0.2874
10678SOL    HW232943   5.645   7.627   7.287  0.1926 -0.3295  0.0197
10679SOL     OW32944   3.196   6.187   5.163  0.1029 -0.3945  0.2827
10679SOL    HW132945   3.218   6.253   5.229 -1.0278 -0.1437  0.4264
10679SOL    HW232946   3.173   6.238   5.085  1.7492 -0.6950 -0.4386
10680SOL     OW32947   2.499   6.150   4.768 -0.7227 -0.1229 -0.2469
10680SOL    HW132948   2.508   6.195   4.851 -0.3312  1.0412 -0.8979
10680SOL    HW232949   2.449   6.211   4.713 -0.0711 -0.4223 -1.1880
10681SOL     OW32950   1.666   3.240   4.499 -0.4231  0.1144  0.7953
10681SOL    HW132951   1.601   3.174   4.476  2.3440 -2.2583 -0.8420
10681SOL    HW232952   1.627   3.323   4.470 -2.8125 -1.1240  0.2108
10682SOL     OW32953   4.263   2.266   6.901  0.0324  0.4429 -0.2380
10682SOL    HW132954   4.241   2.200   6.967  0.0521  0.0625 -0.6010
10682SOL    HW232955   4.226   2.231   6.820 -0.3010  1.0732 -0.3648
10683SOL     OW32956   0.032   4.611   4.475  0.4023  0.2900 -0.4556
10683SOL    HW132957  -0.019   4.555   4.416 -0.7210  1.1957 -0.3666
10683SOL    HW232958  -0.021   4.690   4.485  0.8614  0.4225  1.2633
10684SOL     OW32959   4.048   0.976   2.042  0.1691  0.2430  0.1881
10684SOL    HW132960   4.115   0.912   2.068  0.4379  0.6410  0.4998
10684SOL    HW232961   4.095   1.058   2.034 -0.1739  0.4047 -0.2212
10685SOL     OW32962   0.254   0.124   6.055 -0.6016  0.0208 -0.5457
10685SOL    HW132963   0.309   0.054   6.091 -0.1215 -0.2705 -1.8159
10685SOL    HW232964   0.171   0.082   6.036 -1.5351  0.5819  1.9052
10686SOL     OW32965   0.921   0.911   3.810 -0.4368  0.1419  0.2841
10686SOL    HW132966   0.834   0.941   3.834  0.0283 -0.2833  2.7235
10686SOL    HW232967   0.977   0.937   3.883  1.2646 -0.6384 -0.6759
10687SOL     OW32968   5.718   2.740   1.463  0.4916  0.2225  0.1313
10687SOL    HW132969   5.745   2.658   1.421  3.5598  0.9243  0.4869
10687SOL    HW232970   5.710   2.717   1.556  1.5975  0.3442  0.2683
10688SOL     OW32971   4.082   5.813   3.986  0.3563  0.0197 -0.0189
10688SOL    HW132972   4.109   5.796   3.896  0.7634 -0.9634  0.2775
10688SOL    HW232973   4.090   5.908   3.996 -0.0309  0.1837 -1.1161
10689SOL     OW32974   6.498   6.766   5.519 -0.3988 -0.0923 -0.0664
10689SOL    HW132975   6.467   6.684   5.479  0.5530  0.1720 -1.4147
10689SOL    HW232976   6.563   6.738   5.584 -1.0368 -0.4643  0.4206
10690SOL     OW32977   0.230   1.518   7.304  0.0714 -0.1196  0.5637
10690SOL    HW132978   0.214   1.506   7.210 -0.3223  2.2563  0.2705
10690SOL    HW232979   0.175   1.452   7.347 -0.3092 -0.7507 -0.8348
10691SOL     OW32980   3.065   0.685   6.800  0.0215 -0.2716 -0.2805
10691SOL    HW132981   2.975   0.663   6.825  0.7593  0.0617  3.1440
10691SOL    HW232982   3.118   0.617   6.840  1.4809  1.1458  0.2827
10692SOL     OW32983   0.785   0.026   5.245  0.2861  0.0248 -0.0180
10692SOL    HW132984   0.826   0.060   5.324 -0.7374 -0.2207  0.6454
10692SOL    HW232985   0.834   0.065   5.173  0.7190  0.8938  0.7361
10693SOL     OW32986   5.031   3.064   3.864  0.3481  0.0820 -0.5271
10693SOL    HW132987   5.053   2.989   3.810  1.3956 -0.1413  0.1937
10693SOL    HW232988   4.999   3.130   3.802 -0.6071 -0.9450 -1.1616
10694SOL     OW32989   7.164   1.025   3.797 -0.4407  0.4641  0.5545
10694SOL    HW132990   7.186   0.970   3.722  0.9538  0.8079  0.6685
10694SOL    HW232991   7.243   1.077   3.811 -1.0062  1.0377  1.7054
10695SOL     OW32992   6.489   3.375   3.344  0.3006 -0.1803  0.4389
10695SOL    HW132993   6.424   3.315   3.307 -0.4065 -0.6526  2.3431
10695SOL    HW232994   6.490   3.450   3.284 -0.1074 -1.2987 -1.0017
10696SOL     OW32995   1.130   4.897   1.181 -1.0234 -0.1251 -0.2216
10696SOL    HW132996   1.185   4.822   1.160 -0.0456  0.8816 -1.3825
10696SOL    HW232997   1.067   4.863   1.245  1.9759 -0.9472  2.5891
10697SOL     OW32998   1.508   6.694   5.179 -0.3424 -0.2735 -0.4104
10697SOL    HW132999   1.601   6.672   5.188 -0.7796 -1.8343  0.6599
10697SOL    HW233000   1.481   6.650   5.099 -0.4273 -0.8405 -0.0755
10698SOL     OW33001   6.562   7.081   1.115  0.0982 -0.4038 -0.4181
10698SOL    HW133002   6.613   7.155   1.147  1.0735 -0.7455 -1.1342
10698SOL    HW233003   6.625   7.009   1.111 -0.5580 -0.9651 -0.8616
10699SOL     OW33004   5.279   5.043   4.993  0.3579 -0.2143  0.6572
10699SOL    HW133005   5.348   4.978   4.997  0.1981 -0.5251 -0.9238
10699SOL    HW233006   5.323   5.127   5.008  1.1569 -0.3755 -0.6549
10700SOL     OW33007   6.012   2.630   5.628 -0.6987  0.6882 -0.1629
10700SOL    HW133008   6.106   2.630   5.607 -0.0423 -0.8971  2.3075
10700SOL    HW233009   5.974   2.566   5.569  0.4762 -1.2669  1.0653
10701SOL     OW33010   3.316   5.306   4.621 -0.0671 -0.0194 -0.1134
10701SOL    HW133011   3.393   5.347   4.580  1.2336 -2.1887 -0.0238
10701SOL    HW233012   3.350   5.267   4.702 -1.1812 -1.2252 -0.1898
10702SOL     OW33013   4.166   5.798   1.974  0.0868  0.2047  0.3730
10702SOL    HW133014   4.074   5.818   1.989  0.2341  2.5778 -1.3972
10702SOL    HW233015   4.215   5.864   2.023  0.9146 -0.9435  1.1894
10703SOL     OW33016   6.357   3.070   6.547  0.1937 -0.1686 -0.1469
10703SOL    HW133017   6.361   3.079   6.451  0.7013 -0.5806 -0.1645
10703SOL    HW233018   6.300   3.142   6.574 -0.7384 -0.6092 -0.8419
10704SOL     OW33019   0.336   5.021   2.894  0.1682  0.1320  0.2027
10704SOL    HW133020   0.242   5.038   2.897 -0.0670 -1.1257  0.3778
10704SOL    HW233021   0.370   5.083   2.829 -0.9913 -0.2942 -0.8438
10705SOL     OW33022   0.664   2.962   3.797 -0.0783 -0.1095  0.3853
10705SOL    HW133023   0.617   3.038   3.766 -0.1179 -0.1654  0.3085
10705SOL    HW233024   0.624   2.942   3.882  0.2952  0.2818  0.6581
10706SOL     OW33025   4.857   7.140   5.232 -0.0016  0.1422  0.2700
10706SOL    HW133026   4.932   7.082   5.217 -0.0488 -0.1316  1.0635
10706SOL    HW233027   4.800   7.091   5.292 -0.8038  0.3621 -0.2923
10707SOL     OW33028   0.235   0.767   1.800  0.1833  0.3422 -0.2954
10707SOL    HW133029   0.264   0.829   1.866 -0.4613  2.0140 -1.5116
10707SOL    HW233030   0.222   0.685   1.848 -0.9494  1.6572  1.8210
10708SOL     OW33031   4.799   3.943   6.950 -0.3933  0.2150 -0.3514
10708SOL    HW133032   4.874   3.930   6.892  1.0507  0.2433  1.4366
10708SOL    HW233033   4.792   4.037   6.961 -0.2939  0.1825 -0.0065
10709SOL     OW33034   2.135   4.362   3.910  0.5655 -0.1218 -0.2695
10709SOL    HW133035   2.042   4.372   3.930  0.4466 -1.6925  0.1032
10709SOL    HW233036   2.140   4.369   3.814  0.0183 -0.3458 -0.3159
10710SOL     OW33037   1.720   5.052   2.886  0.0700  0.3634 -0.1548
10710SOL    HW133038   1.675   5.065   2.969  0.3002  1.2100 -0.1554
10710SOL    HW233039   1.800   5.005   2.910 -0.0696  0.2263  0.0469
10711SOL     OW33040   5.601   7.189   3.500 -0.4935 -0.6243 -0.4119
10711SOL    HW133041   5.679   7.146   3.464 -0.5037 -0.1781 -0.9755
10711SOL    HW233042   5.604   7.278   3.465 -0.6135 -0.2297  0.5323
10712SOL     OW33043   2.417   0.646   1.757  0.3548  0.4876 -0.2421
10712SOL    HW133044   2.354   0.691   1.812 -0.5263 -0.8497 -0.0928
10712SOL    HW233045   2.479   0.606   1.818 -0.3571 -0.6106 -0.2040
10713SOL     OW33046   1.140   7.472   1.629 -0.0743 -0.2609  1.1945
10713SOL    HW133047   1.228   7.433   1.633  0.5285  0.7338 -0.7293
10713SOL    HW233048   1.138   7.534   1.702  1.9055  1.6388 -0.2131
10714SOL     OW33049   0.599   0.270   0.632 -0.3940 -0.5807  0.3186
10714SOL    HW133050   0.592   0.278   0.727  2.6200 -1.7056  0.7552
10714SOL    HW233051   0.689   0.294   0.612 -0.6171 -1.4561 -2.1251
10715SOL     OW33052   7.039   6.267   2.349 -0.2939  0.3780 -0.2132
10715SOL    HW133053   7.025   6.232   2.437 -1.1833  0.1607 -0.4311
10715SOL    HW233054   7.133   6.256   2.334 -0.3281 -0.7243  0.2381
10716SOL     OW33055   6.451   2.192   2.466 -0.5495 -0.3758  0.2239
10716SOL    HW133056   6.470   2.173   2.558 -1.8872 -2.4783  0.1352
10716SOL    HW233057   6.358   2.214   2.465 -0.0936  1.7004 -0.3929
10717SOL     OW33058   6.651   5.144   3.359 -0.1478  0.5242 -0.5069
10717SOL    HW133059   6.613   5.215   3.412  2.5000  1.1464  0.7000
10717SOL    HW233060   6.745   5.160   3.361  0.4675 -2.4853 -1.0632
10718SOL     OW33061   2.380   1.723   4.759 -0.4726  0.2095 -0.0100
10718SOL    HW133062   2.428   1.702   4.679 -0.9332 -0.4873 -0.1129
10718SOL    HW233063   2.293   1.687   4.745  0.0568 -1.9506  1.6985
10719SOL     OW33064   1.391   0.574   1.440  0.4091  0.1346  0.1462
10719SOL    HW133065   1.350   0.534   1.517 -1.5819  0.0092 -0.9105
10719SOL    HW233066   1.341   0.540   1.366  2.0258  0.5493 -1.1984
10720SOL     OW33067   7.144   7.244   6.364  0.1509  0.7617  0.2170
10720SOL    HW133068   7.146   7.264   6.457  0.1709  2.1788 -0.0637
10720SOL    HW233069   7.111   7.324   6.323 -0.0757  0.0828 -0.9735
10721SOL     OW33070   1.342   3.918   4.181  0.5999  0.3147 -0.0745
10721SOL    HW133071   1.306   3.871   4.257  0.1017  1.5013  0.4611
10721SOL    HW233072   1.342   3.854   4.110  2.0934 -1.1529  1.1737
10722SOL     OW33073   3.924   6.704   3.265 -0.0865 -0.2073  0.5920
10722SOL    HW133074   3.939   6.631   3.324  0.7589 -1.6221 -1.2719
10722SOL    HW233075   3.828   6.711   3.258 -0.1850 -1.8860 -0.0437
10723SOL     OW33076   0.322   5.141   6.969 -0.1198  0.0300  0.2255
10723SOL    HW133077   0.358   5.230   6.966  0.9005 -0.3962 -1.0077
10723SOL    HW233078   0.365   5.101   7.045 -0.2575  0.4515  0.5295
10724SOL     OW33079   2.209   4.435   6.468  0.5027  0.2111  0.5986
10724SOL    HW133080   2.247   4.376   6.533 -1.7194 -0.1201  1.6935
10724SOL    HW233081   2.156   4.496   6.518 -1.2603 -0.0226 -0.8598
10725SOL     OW33082   6.524   5.293   2.452  0.0822  0.4163  0.4134
10725SOL    HW133083   6.604   5.344   2.448 -0.5211  1.3147 -1.5609
10725SOL    HW233084   6.456   5.357   2.472 -0.3503 -0.0386  0.4236
10726SOL     OW33085   0.933   4.570   6.029  0.1947 -0.2357 -0.1755
10726SOL    HW133086   0.875   4.507   6.073 -0.9257 -0.7503 -2.2287
10726SOL    HW233087   0.891   4.655   6.042 -0.5805 -0.4921 -0.8812
10727SOL     OW33088   4.674   5.325   1.780  0.7967  0.0993  0.4573
10727SOL    HW133089   4.622   5.254   1.818  0.1034 -0.4742 -1.4449
10727SOL    HW233090   4.610   5.379   1.734  1.8582 -1.3753 -3.1197
10728SOL     OW33091   3.344   0.512   0.243  0.1269  0.0619  0.5194
10728SOL    HW133092   3.401   0.580   0.279  0.6113  0.6147 -1.1865
10728SOL    HW233093   3.260   0.556   0.230  0.0143 -0.0797  0.7541
10729SOL     OW33094   0.056   6.824   6.377 -0.2089 -0.2167  0.2929
10729SOL    HW133095  -0.023   6.840   6.429 -0.6644  0.0333 -0.4652
10729SOL    HW233096   0.027   6.770   6.304  0.2341  0.2190 -0.2170
10730SOL     OW33097   3.001   5.151   2.894 -0.5974  0.1025 -0.0505
10730SOL    HW133098   2.914   5.182   2.921 -1.4301 -2.9542  1.2463
10730SOL    HW233099   3.053   5.152   2.975 -0.5484 -1.3466 -0.0382
10731SOL     OW33100   2.782   0.573   0.835  0.0217  0.3149 -0.3124
10731SOL    HW133101   2.756   0.532   0.918  0.9133  0.7187  0.1969
10731SOL    HW233102   2.809   0.501   0.780 -1.2732 -0.0237 -0.5268
10732SOL     OW33103   6.450   2.154   4.243 -0.5415 -0.2529  0.0661
10732SOL    HW133104   6.441   2.059   4.242 -1.3933 -0.1722 -0.7152
10732SOL    HW233105   6.499   2.172   4.324  1.7063 -1.5035 -0.9320
10733SOL     OW33106   1.031   2.270   6.842 -0.4255  0.1004 -0.7483
10733SOL    HW133107   0.957   2.330   6.840 -0.9223 -0.4045  0.9933
10733SOL    HW233108   1.001   2.192   6.796 -0.8540  0.0493 -0.3868
10734SOL     OW33109   4.189   7.086   0.193  0.7273  0.0857  0.1367
10734SOL    HW133110   4.183   6.998   0.156  0.3360 -0.0811  0.5923
10734SOL    HW233111   4.145   7.142   0.128  0.2378 -0.1767  0.2346
10735SOL     OW33112   6.788   2.939   5.728 -0.3461  0.1094 -0.0295
10735SOL    HW133113   6.876   2.929   5.763 -0.0784  0.5447 -0.5537
10735SOL    HW233114   6.733   2.884   5.783  0.5649 -1.8428 -0.9565
10736SOL     OW33115   7.654   1.751   3.970  0.0266  0.0580 -0.1374
10736SOL    HW133116   7.629   1.735   3.879 -0.1482  0.0245 -0.0854
10736SOL    HW233117   7.574   1.787   4.010  0.4372  1.1463 -0.2701
10737SOL     OW33118   0.909   1.437   5.836  0.0563 -0.5374 -0.1393
10737SOL    HW133119   0.935   1.518   5.792 -1.0371  0.7692  1.4550
10737SOL    HW233120   0.818   1.453   5.863 -0.5929 -2.8031 -0.8346
10738SOL     OW33121   4.290   7.619   2.713  0.0067 -0.0036  0.8128
10738SOL    HW133122   4.263   7.665   2.633  0.5195 -1.4454 -0.2240
10738SOL    HW233123   4.287   7.527   2.690  1.1250 -0.4111  2.1585
10739SOL     OW33124   0.734   4.776   4.946 -0.2289  0.3131 -0.5516
10739SOL    HW133125   0.674   4.832   4.897 -0.5536  0.9573  0.5522
10739SOL    HW233126   0.820   4.791   4.905 -0.4456  1.0394 -0.7547
10740SOL     OW33127   7.295   6.199   2.244 -0.1773  0.4386 -0.0541
10740SOL    HW133128   7.372   6.210   2.299 -0.3564  0.3400  0.2210
10740SOL    HW233129   7.329   6.191   2.155  0.1831 -0.5237  0.1631
10741SOL     OW33130   2.332   0.317   4.770  0.1819 -0.0321 -0.3797
10741SOL    HW133131   2.408   0.303   4.826  0.0921  1.0599  0.0397
10741SOL    HW233132   2.340   0.251   4.701  0.2239 -1.4938  0.9752
10742SOL     OW33133   1.837   6.952   2.251  0.1188 -0.1949 -0.5322
10742SOL    HW133134   1.754   6.978   2.210 -0.1954  0.2575  0.3612
10742SOL    HW233135   1.901   6.959   2.180 -0.5196 -0.0675 -1.1135
10743SOL     OW33136   6.657   7.261   2.795 -0.6839  0.8353 -0.0227
10743SOL    HW133137   6.613   7.195   2.849 -2.0674 -0.0927 -2.1377
10743SOL    HW233138   6.598   7.336   2.796 -0.9087  0.6697 -0.5310
10744SOL     OW33139   6.123   4.188   4.881  0.2395 -0.0593  0.4049
10744SOL    HW133140   6.125   4.284   4.889  1.1082 -0.0829  0.5707
10744SOL    HW233141   6.121   4.172   4.787 -1.5734  0.1299  0.3882
10745SOL     OW33142   0.844   2.264   2.634 -0.1645  0.5110  0.0446
10745SOL    HW133143   0.812   2.353   2.649 -1.3220  0.0641  0.3376
10745SOL    HW233144   0.891   2.242   2.714 -2.1600 -0.0866  1.1139
10746SOL     OW33145   5.597   5.018   5.172 -0.2541 -0.5007  0.1783
10746SOL    HW133146   5.614   5.000   5.079  0.6738 -2.0755  0.6222
10746SOL    HW233147   5.658   4.962   5.219  0.7064  1.7324  1.7725
10747SOL     OW33148   7.277   1.505   6.852  0.2532  0.5399 -0.0140
10747SOL    HW133149   7.184   1.510   6.830  0.1937  1.1223  0.3700
10747SOL    HW233150   7.312   1.438   6.792 -0.6616 -0.6195  0.7068
10748SOL     OW33151   6.121   4.391   0.274 -0.3564  0.4610  0.2188
10748SOL    HW133152   6.154   4.333   0.206 -0.8992 -1.0954  1.2216
10748SOL    HW233153   6.146   4.479   0.245  0.0998 -0.2128 -1.5736
10749SOL     OW33154   7.320   0.160   3.585  0.2089 -0.1302  0.3844
10749SOL    HW133155   7.317   0.095   3.656  0.3001  0.3597  0.8498
10749SOL    HW233156   7.287   0.240   3.626  0.5248  0.2251 -0.0561
10750SOL     OW33157   2.258   0.974   5.373  0.4882 -0.0306  0.5775
10750SOL    HW133158   2.205   0.916   5.319  2.1620 -0.2521 -0.9301
10750SOL    HW233159   2.195   1.032   5.415 -1.0732 -1.6488  0.5791
10751SOL     OW33160   4.442   7.630   1.570  0.1678  0.5068 -0.4213
10751SOL    HW133161   4.446   7.538   1.544  1.2736  0.3712  0.1683
10751SOL    HW233162   4.352   7.641   1.603  0.6324 -0.9748  1.5526
10752SOL     OW33163   3.115   2.430   2.787 -0.4188  0.4959 -1.0352
10752SOL    HW133164   3.208   2.417   2.764 -0.2047 -1.4986  0.6792
10752SOL    HW233165   3.069   2.421   2.704  0.8681  1.1365 -1.8612
10753SOL     OW33166   2.929   5.808   0.896 -0.9397  0.0197 -0.1585
10753SOL    HW133167   2.834   5.806   0.885 -0.8477 -2.2346 -1.1340
10753SOL    HW233168   2.964   5.810   0.807 -0.0147  1.7829  0.1892
10754SOL     OW33169   7.670   2.569   4.312  0.0162  0.2272  0.1965
10754SOL    HW133170   7.643   2.661   4.307  0.9697  0.5883  1.2565
10754SOL    HW233171   7.704   2.559   4.401 -1.1998 -1.4861  0.5183
10755SOL     OW33172   3.117   6.466   1.675  0.4047 -0.2528 -0.2425
10755SOL    HW133173   3.179   6.417   1.620  1.0027 -0.8798  0.9575
10755SOL    HW233174   3.147   6.450   1.764 -1.3824 -0.3782  0.3593
10756SOL     OW33175   1.985   5.545   2.204  0.0088 -0.7402  0.6410
10756SOL    HW133176   1.929   5.485   2.156  0.7617 -0.7780 -0.2041
10756SOL    HW233177   2.073   5.507   2.199  0.5130  0.4323  0.0532
10757SOL     OW33178   4.604   4.715   5.881  0.7190 -0.2241  0.4667
10757SOL    HW133179   4.630   4.623   5.879  1.0552 -0.1212 -0.3576
10757SOL    HW233180   4.650   4.750   5.957  2.3401 -0.2643 -0.4349
10758SOL     OW33181   4.347   5.830   0.007  0.0288  0.4719  0.7445
10758SOL    HW133182   4.314   5.790   0.088  0.9653  1.7480  1.8077
10758SOL    HW233183   4.376   5.757  -0.046 -2.4806 -0.5704  0.6439
10759SOL     OW33184   3.698   5.646   4.223 -0.0173 -0.0175  0.5253
10759SOL    HW133185   3.632   5.578   4.212  0.1807  0.1327 -2.0775
10759SOL    HW233186   3.734   5.630   4.311 -2.7823 -0.6807  1.6463
10760SOL     OW33187   7.466   6.917   4.463 -0.7872 -0.0920 -0.5249
10760SOL    HW133188   7.492   6.862   4.390  0.9762  0.1851 -0.1656
10760SOL    HW233189   7.390   6.873   4.501 -0.7585 -1.0816 -1.5642
10761SOL     OW33190   2.304   6.615   2.521 -0.6404  0.3193 -0.6189
10761SOL    HW133191   2.251   6.629   2.443  0.2902 -0.0365 -1.3405
10761SOL    HW233192   2.331   6.523   2.516 -0.7591  0.2282  0.2493
10762SOL     OW33193   3.519   7.656   3.564 -0.0555 -0.3033 -0.2176
10762SOL    HW133194   3.540   7.709   3.486  0.2954 -0.3932 -0.1847
10762SOL    HW233195   3.438   7.694   3.597 -0.0018 -0.0171 -0.4078
10763SOL     OW33196   7.664   0.611   3.904 -0.0412  0.3110 -0.3242
10763SOL    HW133197   7.600   0.542   3.921 -0.5821  1.3311  2.3442
10763SOL    HW233198   7.665   0.621   3.809 -1.9491 -1.4824 -0.5924
10764SOL     OW33199   2.987   1.444   6.243 -0.5152 -0.8225  0.2361
10764SOL    HW133200   3.049   1.484   6.303  1.2298 -0.2710 -1.8202
10764SOL    HW233201   2.907   1.496   6.252 -0.2410 -0.6212  1.8462
10765SOL     OW33202   7.613   3.104   4.274 -0.3238 -0.7490  0.2560
10765SOL    HW133203   7.529   3.128   4.236 -0.1500 -0.5493 -0.0009
10765SOL    HW233204   7.671   3.176   4.252 -0.3770 -0.3225  1.4482
10766SOL     OW33205   1.311   3.829   6.896  0.8325 -0.0380  0.0733
10766SOL    HW133206   1.347   3.848   6.809  2.1710  1.5479  0.9011
10766SOL    HW233207   1.366   3.758   6.929  0.1623 -0.8149 -0.4445
10767SOL     OW33208   6.267   0.222   5.748 -0.0393  0.4698  0.4024
10767SOL    HW133209   6.195   0.173   5.708  1.2844 -0.0880 -1.4194
10767SOL    HW233210   6.254   0.312   5.717 -0.1562  0.4481  0.3868
10768SOL     OW33211   2.036   5.020   5.903  0.1954  0.2503 -0.2446
10768SOL    HW133212   1.943   5.031   5.923  0.1504 -0.6093  0.0508
10768SOL    HW233213   2.073   5.107   5.916 -0.6634  0.7288 -0.9194
10769SOL     OW33214   5.792   6.336   3.602  0.0857  0.0561 -0.1071
10769SOL    HW133215   5.732   6.272   3.563  2.7038 -2.2848 -0.5842
10769SOL    HW233216   5.853   6.359   3.532  1.3765  0.2533  1.0391
10770SOL     OW33217   0.538   0.492   2.785  0.2902  0.6161 -0.1895
10770SOL    HW133218   0.531   0.584   2.808 -1.8447  0.2726  0.8268
10770SOL    HW233219   0.494   0.446   2.857  0.1647 -1.1033 -1.2944
10771SOL     OW33220   5.791   3.377   3.142 -0.2962  0.2675 -0.1013
10771SOL    HW133221   5.765   3.466   3.164  0.5081  0.5470 -0.2501
10771SOL    HW233222   5.809   3.380   3.048 -0.9924 -0.2415 -0.2632
10772SOL     OW33223   5.850   0.666   1.876 -0.9886  0.0837  0.6298
10772SOL    HW133224   5.814   0.577   1.872 -0.3769 -0.1642  0.4969
10772SOL    HW233225   5.930   0.656   1.926  0.1108  0.2037 -1.0206
10773SOL     OW33226   2.116   2.069   2.354 -0.2543  0.0450  0.0271
10773SOL    HW133227   2.025   2.053   2.328  0.2595 -1.0914 -1.2167
10773SOL    HW233228   2.110   2.104   2.443 -1.9994  1.8341 -0.7274
10774SOL     OW33229   6.228   7.587   5.297 -0.0433  0.3928 -0.7783
10774SOL    HW133230   6.208   7.579   5.204 -1.5665 -0.0809 -0.4250
10774SOL    HW233231   6.242   7.497   5.327  0.5082  0.5486 -0.5434
10775SOL     OW33232   2.118   4.971   7.526 -0.6314  0.1762  0.2201
10775SOL    HW133233   2.080   5.044   7.477 -1.9252 -0.8393 -0.3624
10775SOL    HW233234   2.043   4.916   7.548  0.3155 -1.0101  0.5845
10776SOL     OW33235   4.325   3.745   2.290 -0.2946 -0.1111 -0.4080
10776SOL    HW133236   4.399   3.691   2.263 -1.1524 -1.0164 -0.9804
10776SOL    HW233237   4.322   3.736   2.385 -1.5190 -2.5818 -0.6061
10777SOL     OW33238   1.742   2.964   3.649 -0.3483  0.0856  0.3743
10777SOL    HW133239   1.819   2.957   3.705 -1.6113  0.6833  2.2996
10777SOL    HW233240   1.776   2.991   3.563  1.7083 -1.4052  0.6597
10778SOL     OW33241   3.172   7.551   7.694 -0.3893 -0.0268 -0.1789
10778SOL    HW133242   3.219   7.468   7.704  0.6890  0.8247  2.7483
10778SOL    HW233243   3.083   7.525   7.668  0.0998 -2.0419 -0.0334
10779SOL     OW33244   0.262   2.788   7.532 -0.1112  0.5361  0.2907
10779SOL    HW133245   0.211   2.820   7.457 -0.1878 -1.3081 -0.5086
10779SOL    HW233246   0.278   2.865   7.585 -2.0536  1.5170 -0.4514
10780SOL     OW33247   4.021   5.257   7.272  1.0681  0.0235 -0.2417
10780SOL    HW133248   3.954   5.198   7.306  2.5702 -0.9247  1.1886
10780SOL    HW233249   4.026   5.327   7.337  1.9789 -0.3146  0.0673
10781SOL     OW33250   2.082   7.038   3.107 -0.4486  0.0889 -0.0534
10781SOL    HW133251   2.121   7.072   3.026  1.2519  3.0384  1.8295
10781SOL    HW233252   2.121   6.952   3.118 -0.9752 -0.5479 -2.4500
10782SOL     OW33253   5.565   6.962   7.274  0.0590 -0.3940  0.2478
10782SOL    HW133254   5.597   7.029   7.213 -2.5839 -0.9182 -1.8958
10782SOL    HW233255   5.529   7.012   7.347 -0.1197  0.4393 -0.3973
10783SOL     OW33256   0.754   3.337   4.208  0.1188  1.0316  0.2180
10783SOL    HW133257   0.742   3.310   4.117  1.8080 -1.7816  0.7218
10783SOL    HW233258   0.666   3.333   4.245 -0.3067  0.2560 -0.8103
10784SOL     OW33259   6.540   6.345   2.741 -0.4154 -0.2304  0.1555
10784SOL    HW133260   6.565   6.311   2.655  0.9423  0.9944  0.0223
10784SOL    HW233261   6.471   6.408   2.723 -0.5444 -0.4091  0.0282
10785SOL     OW33262   3.758   5.003   2.717  0.2729  0.6060  0.1763
10785SOL    HW133263   3.676   4.970   2.753 -0.2518  2.6864  1.0205
10785SOL    HW233264   3.801   4.926   2.680 -2.8653 -0.3304 -1.9683
10786SOL     OW33265   3.402   6.103   3.357 -0.0753  0.3178 -0.2237
10786SOL    HW133266   3.404   6.079   3.265  0.5863  1.0908 -0.4282
10786SOL    HW233267   3.481   6.063   3.394 -1.2577 -1.5189  0.4359
10787SOL     OW33268   0.355   1.583   2.127 -0.1420  0.2050 -0.3236
10787SOL    HW133269   0.350   1.488   2.119  1.1157  0.2644 -2.8497
10787SOL    HW233270   0.378   1.599   2.218 -2.2468 -1.7808  0.6469
10788SOL     OW33271   0.408   5.846   3.037  0.0260 -0.2377  0.2193
10788SOL    HW133272   0.354   5.792   3.094 -0.2186  0.5396  0.7451
10788SOL    HW233273   0.455   5.784   2.982  0.7046 -1.0521  1.6570
10789SOL     OW33274   7.576   3.566   3.768 -0.1894 -0.3838 -0.1360
10789SOL    HW133275   7.570   3.482   3.814  0.1156 -1.2309 -1.5688
10789SOL    HW233276   7.661   3.601   3.793  1.5553 -2.4835 -2.6108
10790SOL     OW33277   0.314   5.522   0.163 -0.1452 -0.3370 -0.2285
10790SOL    HW133278   0.242   5.569   0.206 -2.3202 -2.1779 -1.5947
10790SOL    HW233279   0.362   5.590   0.116 -0.5301  1.0645  1.2965
10791SOL     OW33280   4.058   0.887   7.658 -0.3849 -0.1744  0.1562
10791SOL    HW133281   4.063   0.943   7.736  0.2131  0.0369 -0.0280
10791SOL    HW233282   4.122   0.925   7.597 -1.1797 -0.0560 -0.6245
10792SOL     OW33283   3.697   6.943   3.008 -0.0165  0.1571  0.2080
10792SOL    HW133284   3.631   6.988   3.060 -0.1559  0.4740 -0.2453
10792SOL    HW233285   3.780   6.986   3.032 -0.0470  0.1376  0.3502
10793SOL     OW33286   1.761   5.289   3.971 -0.2915 -0.0326  0.2868
10793SOL    HW133287   1.690   5.249   4.022 -1.2706  0.6790 -0.4592
10793SOL    HW233288   1.729   5.378   3.952  0.0221 -0.2583 -1.5401
10794SOL     OW33289   3.257   0.865   3.550 -0.5360 -0.2027 -0.3822
10794SOL    HW133290   3.215   0.943   3.588 -0.0434 -0.3904  0.5669
10794SOL    HW233291   3.304   0.898   3.473 -1.7875  0.1331 -1.0314
10795SOL     OW33292   7.198   1.284   5.877  0.1335 -0.3289 -0.1099
10795SOL    HW133293   7.103   1.278   5.872  0.1012 -1.7610  1.2453
10795SOL    HW233294   7.221   1.360   5.823 -1.8818  0.9350  0.7018
10796SOL     OW33295   0.732   4.337   5.949  0.0656  0.5607  0.0925
10796SOL    HW133296   0.645   4.297   5.957  0.8072 -1.4104 -0.8789
10796SOL    HW233297   0.770   4.329   6.037  0.3122 -1.3386 -0.1286
10797SOL     OW33298   3.738   7.639   3.362 -0.1391  0.3536  0.0082
10797SOL    HW133299   3.672   7.604   3.302  0.4835 -1.2748  0.2176
10797SOL    HW233300   3.772   7.717   3.318 -1.6148  0.7687 -0.4664
10798SOL     OW33301   4.004   7.164   5.823 -0.3967  0.2383  0.1732
10798SOL    HW133302   4.069   7.217   5.778 -0.5640  0.8003  0.5735
10798SOL    HW233303   3.973   7.220   5.895  0.0164 -0.7037  1.1138
10799SOL     OW33304   2.873   4.585   5.151  0.6115 -0.5763  0.2478
10799SOL    HW133305   2.880   4.490   5.164  0.2220 -0.6531 -0.1045
10799SOL    HW233306   2.817   4.595   5.074  0.2698 -0.0479  0.5624
10800SOL     OW33307   3.525   6.213   2.763  0.1010 -0.7422 -0.2856
10800SOL    HW133308   3.470   6.137   2.745 -0.4074 -0.5499  0.4094
10800SOL    HW233309   3.614   6.182   2.748  0.0522 -2.0538  1.7091
10801SOL     OW33310   6.017   3.701   7.258 -0.3292  0.4071 -0.5984
10801SOL    HW133311   5.949   3.735   7.315  0.2692  2.6157 -1.1205
10801SOL    HW233312   6.097   3.704   7.312 -0.5435 -2.1627  0.0126
10802SOL     OW33313   7.155   0.839   3.542 -0.4057  0.1834 -0.0101
10802SOL    HW133314   7.144   0.759   3.491  1.0152  0.5275 -0.8821
10802SOL    HW233315   7.067   0.877   3.545 -0.9904 -1.1234 -0.0382
10803SOL     OW33316   2.708   1.733   3.568 -0.1471  0.3612 -0.0986
10803SOL    HW133317   2.727   1.712   3.660  0.6724 -0.9986 -0.5532
10803SOL    HW233318   2.767   1.677   3.518 -1.4513  0.1654 -1.4877
10804SOL     OW33319   5.863   7.319   6.651  0.4299 -0.3172  0.0432
10804SOL    HW133320   5.939   7.287   6.698  1.5742  1.3203 -0.5910
10804SOL    HW233321   5.790   7.266   6.684  1.6544 -1.2093  1.4430
10805SOL     OW33322   3.844   4.418   6.810 -0.2053  0.0274  0.3831
10805SOL    HW133323   3.938   4.434   6.807  0.0147 -1.1949  0.3142
10805SOL    HW233324   3.804   4.503   6.792  0.8880  0.3448 -0.6379
10806SOL     OW33325   5.874   2.077   5.036 -0.1780 -0.1263 -0.5100
10806SOL    HW133326   5.858   2.014   4.965  2.9551 -0.4893 -1.0365
10806SOL    HW233327   5.849   2.030   5.115  0.9911 -1.6638 -0.9956
10807SOL     OW33328   5.851   5.211   5.464 -0.0584 -0.2313 -0.2441
10807SOL    HW133329   5.836   5.117   5.452 -0.9979 -0.0372 -0.6497
10807SOL    HW233330   5.764   5.249   5.470  0.2460  0.3119  2.4676
10808SOL     OW33331   1.460   4.915   2.782  0.3631  0.3557 -0.0341
10808SOL    HW133332   1.545   4.905   2.825 -0.3363  1.7941  1.7785
10808SOL    HW233333   1.464   5.003   2.742  0.1712 -0.0851 -1.0645
10809SOL     OW33334   1.820   4.454   1.957 -0.2791  0.2475 -0.4466
10809SOL    HW133335   1.800   4.433   1.866  1.7171 -0.1250 -0.8504
10809SOL    HW233336   1.735   4.472   1.997 -1.1594  0.9964 -2.5142
10810SOL     OW33337   1.996   5.391   0.338 -0.2532 -0.3594 -0.5921
10810SOL    HW133338   1.954   5.326   0.394  0.8004  0.1567  0.8738
10810SOL    HW233339   2.005   5.469   0.394  0.6647  0.2508 -1.5363
10811SOL     OW33340   3.095   7.702   5.109  0.1460 -0.0550  0.4391
10811SOL    HW133341   3.154   7.690   5.184  1.2189  0.2869 -0.3230
10811SOL    HW233342   3.051   7.785   5.126  0.7677  0.2786  0.4516
10812SOL     OW33343   2.366   0.027   5.678  0.1568 -0.2391 -0.0738
10812SOL    HW133344   2.410   0.093   5.625  0.7763 -0.9332 -0.4446
10812SOL    HW233345   2.293  -0.002   5.624  0.0360 -0.0389 -0.0181
10813SOL     OW33346   6.991   3.511   7.599 -0.1053 -0.3093 -0.1730
10813SOL    HW133347   6.922   3.571   7.569 -2.0106 -2.0695  0.5185
10813SOL    HW233348   7.042   3.563   7.661 -0.8342  1.0085 -0.6276
10814SOL     OW33349   4.562   2.279   5.895 -0.5945  0.1659 -0.4314
10814SOL    HW133350   4.528   2.194   5.924  1.7064 -0.5012  0.4839
10814SOL    HW233351   4.530   2.341   5.960  0.2829 -0.5277  0.7026
10815SOL     OW33352   2.910   1.455   0.388  0.3609 -0.2441  0.0928
10815SOL    HW133353   2.994   1.422   0.419 -0.4777 -0.2936  2.5159
10815SOL    HW233354   2.896   1.537   0.436  0.0139  1.0026 -1.9620
10816SOL     OW33355   0.011   7.547   6.740 -0.2736  0.0946  0.0978
10816SOL    HW133356  -0.082   7.567   6.728  0.4183  2.7969 -1.7135
10816SOL    HW233357   0.044   7.532   6.651  1.2007  0.1661  0.6087
10817SOL     OW33358   7.037   2.125   7.400 -0.0209 -0.4190 -0.3820
10817SOL    HW133359   7.052   2.150   7.491 -0.9156 -0.3606 -0.2409
10817SOL    HW233360   7.032   2.030   7.402 -0.8138 -0.3845 -0.2311
10818SOL     OW33361   4.921   3.090   2.564  0.1206 -0.1164  0.3497
10818SOL    HW133362   4.901   3.149   2.492  1.4210  0.2493  0.2580
10818SOL    HW233363   4.875   3.127   2.639 -0.1076  0.2859  0.0129
10819SOL     OW33364   7.502   2.080   3.229 -0.1081  0.5925 -0.2430
10819SOL    HW133365   7.455   2.018   3.173 -3.4093  0.1716  2.6133
10819SOL    HW233366   7.507   2.161   3.178 -2.5353  0.1002 -1.4096
10820SOL     OW33367   5.774   5.538   5.659 -0.4123 -0.9719  0.1524
10820SOL    HW133368   5.744   5.509   5.572 -0.3642 -0.3769 -0.0694
10820SOL    HW233369   5.708   5.504   5.719 -0.4177 -1.4390 -0.1064
10821SOL     OW33370   7.248   2.135   5.122 -0.2575  0.3645 -0.3681
10821SOL    HW133371   7.197   2.132   5.203  0.2816 -0.1385 -0.0408
10821SOL    HW233372   7.272   2.227   5.113 -0.5942  0.4791 -0.1332
10822SOL     OW33373   5.404   3.706   3.173 -0.0785  0.1729  0.0723
10822SOL    HW133374   5.404   3.769   3.245  1.7708  1.3581 -0.8860
10822SOL    HW233375   5.313   3.705   3.142 -0.1730  2.4130  0.1203
10823SOL     OW33376   4.289   0.123   6.960  0.4609 -0.3359 -0.5131
10823SOL    HW133377   4.356   0.127   6.892 -1.1576  0.0455 -2.1704
10823SOL    HW233378   4.259   0.213   6.969 -1.6265 -0.8495 -1.7499
10824SOL     OW33379   4.186   0.593   2.387  0.3188 -0.3741 -0.3155
10824SOL    HW133380   4.270   0.568   2.424  1.6952 -0.6387 -3.3589
10824SOL    HW233381   4.196   0.686   2.366 -0.2616 -0.3511 -0.5138
10825SOL     OW33382   5.735   0.572   4.597  0.0720 -0.2075  0.6135
10825SOL    HW133383   5.715   0.607   4.684  0.5573  0.4429  0.4745
10825SOL    HW233384   5.671   0.503   4.583 -1.6659  1.3364  0.4791
10826SOL     OW33385   5.002   2.151   0.340  0.1312 -0.7644 -0.1034
10826SOL    HW133386   5.087   2.187   0.367  0.0108 -1.8710  1.9279
10826SOL    HW233387   4.949   2.228   0.322  1.1726 -0.0156 -0.1011
10827SOL     OW33388   3.260   4.174   4.954 -0.1126 -0.0357  0.0377
10827SOL    HW133389   3.224   4.089   4.978  0.2847 -0.1500  0.2397
10827SOL    HW233390   3.195   4.238   4.984  0.1480 -0.1985  0.9825
10828SOL     OW33391   4.971   6.670   4.559  0.9366 -0.1220 -0.2214
10828SOL    HW133392   5.063   6.663   4.537  1.1221  1.7283 -0.1610
10828SOL    HW233393   4.946   6.759   4.535 -1.2321 -1.0128 -1.6255
10829SOL     OW33394   6.576   4.949   5.390  0.8340 -0.0693 -0.6778
10829SOL    HW133395   6.597   4.861   5.358 -0.5402 -0.4263 -0.6304
10829SOL    HW233396   6.608   5.007   5.321  1.7321 -0.5894 -0.7201
10830SOL     OW33397   7.405   6.532   3.362  0.4866 -0.2887 -0.3310
10830SOL    HW133398   7.327   6.568   3.319  0.2688 -1.2309 -0.7473
10830SOL    HW233399   7.399   6.437   3.347  0.6049 -0.6128  1.4463
10831SOL     OW33400   5.983   2.823   1.834 -0.0543 -0.0756  0.2023
10831SOL    HW133401   5.895   2.806   1.868  0.4592  0.3428  1.8137
10831SOL    HW233402   6.040   2.764   1.884  0.4262 -1.8044 -2.1676
10832SOL     OW33403   6.523   0.552   7.263  0.2685  0.3654 -0.2507
10832SOL    HW133404   6.513   0.460   7.287  0.4113  0.4622  0.1910
10832SOL    HW233405   6.514   0.553   7.168  2.0592 -0.3654 -0.4819
10833SOL     OW33406   2.143   5.915   1.973  0.0679  0.3188 -0.3953
10833SOL    HW133407   2.065   5.969   1.988  0.0368  0.1630  0.0264
10833SOL    HW233408   2.176   5.898   2.061  0.5082  0.2811 -0.5684
10834SOL     OW33409   7.466   7.518   7.492  0.1065 -0.0647  0.0049
10834SOL    HW133410   7.557   7.537   7.517 -0.3466  0.8663  1.0464
10834SOL    HW233411   7.415   7.583   7.539 -0.9939  0.4793 -1.8330
10835SOL     OW33412   0.632   5.800   3.204  0.3932 -0.1552 -0.2487
10835SOL    HW133413   0.544   5.836   3.203  0.3937 -0.1390  0.3897
10835SOL    HW233414   0.659   5.801   3.112 -0.4520 -0.6059 -0.5083
10836SOL     OW33415   0.309   0.873   5.351  0.6591  0.6939  0.4285
10836SOL    HW133416   0.215   0.886   5.360  0.6354  1.6432 -0.9439
10836SOL    HW233417   0.319   0.829   5.266  1.5365  2.0846 -0.2326
10837SOL     OW33418   2.257   7.693   1.473 -0.6979 -0.2093 -0.1715
10837SOL    HW133419   2.349   7.715   1.485 -0.7897 -0.5031  1.3102
10837SOL    HW233420   2.210   7.751   1.534 -1.4155 -0.6750 -0.2638
10838SOL     OW33421   1.920   6.034   0.608  0.1478  0.2888  0.2653
10838SOL    HW133422   1.987   5.968   0.593  0.9774  1.0456  0.5845
10838SOL    HW233423   1.882   6.050   0.521  0.0988 -0.4237  0.1493
10839SOL     OW33424   3.351   6.022   2.026  0.1596  0.2973  0.0777
10839SOL    HW133425   3.348   6.030   1.931 -1.3483  1.2633  0.1747
10839SOL    HW233426   3.329   5.931   2.043 -0.2231  0.2777 -0.4896
10840SOL     OW33427   0.353   5.642   5.047  0.1323 -0.6580 -0.5043
10840SOL    HW133428   0.389   5.673   5.129 -0.1089  0.9626 -0.9875
10840SOL    HW233429   0.372   5.548   5.047  0.7940 -0.5544  1.0425
10841SOL     OW33430   5.113   0.141   0.649 -0.0083 -0.1366 -0.1496
10841SOL    HW133431   5.180   0.154   0.582  1.3850 -1.9633  0.7964
10841SOL    HW233432   5.073   0.057   0.628  1.6883 -1.6411  2.2107
10842SOL     OW33433   5.517   1.556   2.930  0.7586 -0.2380 -0.1950
10842SOL    HW133434   5.606   1.588   2.947  0.7388 -0.8415  1.1244
10842SOL    HW233435   5.526   1.461   2.925  0.4950 -0.2045 -2.1375
10843SOL     OW33436   7.342   3.714   3.054 -0.1774  0.3610  0.0564
10843SOL    HW133437   7.384   3.779   3.110  1.8350 -0.9299  0.1608
10843SOL    HW233438   7.336   3.636   3.109 -0.1333 -0.2995 -0.8552
10844SOL     OW33439   5.368   3.479   4.300  0.5069 -0.2818  0.1458
10844SOL    HW133440   5.280   3.445   4.312 -0.2312  1.9557  1.6291
10844SOL    HW233441   5.402   3.430   4.224 -2.5294 -0.1751 -1.4474
10845SOL     OW33442   3.054   6.383   4.978  0.1781  0.1069  0.2124
10845SOL    HW133443   2.959   6.390   4.988  0.2808  0.4847  1.0557
10845SOL    HW233444   3.068   6.370   4.885 -0.6177  1.8143 -0.1735
10846SOL     OW33445   5.053   4.309   0.594  0.2541 -0.0686 -0.5807
10846SOL    HW133446   5.132   4.346   0.634  1.6924 -3.9004  0.5922
10846SOL    HW233447   4.981   4.342   0.649  0.9867  2.9224 -1.2340
10847SOL     OW33448   1.445   6.242   4.346  0.0451  0.3021  0.1485
10847SOL    HW133449   1.363   6.193   4.334  0.5710 -0.3987 -0.7093
10847SOL    HW233450   1.466   6.230   4.439  0.3908 -1.4918 -0.1361
10848SOL     OW33451   1.927   4.521   4.092  0.1059 -0.1936 -0.1869
10848SOL    HW133452   1.947   4.561   4.008 -0.2770 -1.5605 -0.9545
10848SOL    HW233453   1.837   4.489   4.083  1.3657 -4.1115 -0.8535
10849SOL     OW33454   3.064   1.191   4.468 -0.2425 -0.2313  0.0644
10849SOL    HW133455   2.996   1.250   4.499 -1.1825 -1.3665  0.2114
10849SOL    HW233456   3.032   1.104   4.488  2.0366 -0.7937  1.7424
10850SOL     OW33457   2.277   6.950   7.419 -0.3414 -0.6053 -0.1559
10850SOL    HW133458   2.229   6.926   7.498 -1.2258 -0.6322 -0.6921
10850SOL    HW233459   2.325   6.870   7.396 -2.1656 -1.4696 -1.1328
10851SOL     OW33460   2.929   4.051   0.698  0.0342 -0.5438 -0.3451
10851SOL    HW133461   2.963   4.108   0.628 -1.4909 -0.1443 -0.8061
10851SOL    HW233462   2.895   4.112   0.763  0.9111 -0.9258  0.4892
10852SOL     OW33463   0.074   7.480   2.356  0.0313  0.0516  0.1855
10852SOL    HW133464   0.146   7.542   2.345  0.8302 -0.7629  0.6092
10852SOL    HW233465   0.007   7.529   2.402 -0.3454  1.2906 -1.6090
10853SOL     OW33466   5.844   1.838   3.612  0.0282  0.5423 -0.2605
10853SOL    HW133467   5.792   1.760   3.632 -0.5160  1.2130  1.0125
10853SOL    HW233468   5.902   1.810   3.541 -1.5439 -0.4292 -1.2239
10854SOL     OW33469   4.531   2.218   0.527  0.5732 -0.2460 -0.3553
10854SOL    HW133470   4.445   2.241   0.561  0.8511  1.1747 -0.5320
10854SOL    HW233471   4.589   2.287   0.560  1.7672 -1.4834  0.2410
10855SOL     OW33472   7.203   3.498   0.242 -0.1064  0.5395 -0.3499
10855SOL    HW133473   7.198   3.557   0.318  1.6959  1.3208 -0.7988
10855SOL    HW233474   7.194   3.410   0.280  1.2087  0.8866  0.8601
10856SOL     OW33475   2.771   0.779   1.108 -0.4193 -0.1910 -0.6975
10856SOL    HW133476   2.759   0.718   1.036  3.3459 -0.4886 -1.2189
10856SOL    HW233477   2.756   0.726   1.187 -2.8820 -0.2602 -1.1361
10857SOL     OW33478   4.150   5.572   5.680  0.0381 -0.1528 -0.5000
10857SOL    HW133479   4.128   5.529   5.762 -0.2210 -0.2597 -0.6237
10857SOL    HW233480   4.205   5.509   5.634 -0.0906 -0.2288 -0.5504
10858SOL     OW33481   3.836   3.790   7.602 -0.4489 -0.4888  0.3912
10858SOL    HW133482   3.872   3.815   7.687 -0.9598  1.1088  0.1708
10858SOL    HW233483   3.881   3.845   7.539 -1.0118 -0.7184 -0.2271
10859SOL     OW33484   5.010   3.963   4.146  0.6298 -0.1703  0.0937
10859SOL    HW133485   5.008   4.053   4.113  0.2211  0.1994  1.0948
10859SOL    HW233486   4.960   3.913   4.081  0.0893  0.4885 -0.0079
10860SOL     OW33487   4.675   2.233   3.366  0.2968 -0.5462  0.7290
10860SOL    HW133488   4.660   2.153   3.416  0.4095 -0.6230  0.6418
10860SOL    HW233489   4.691   2.203   3.277  1.3045 -0.5022  0.8752
10861SOL     OW33490   4.050   7.399   7.232  0.7416  0.2354 -0.3518
10861SOL    HW133491   4.073   7.490   7.251 -1.3202  1.1935 -2.0487
10861SOL    HW233492   4.003   7.403   7.149 -0.6544 -2.1903  0.2265
10862SOL     OW33493   6.508   2.146   5.386 -0.5045 -0.6091  0.0087
10862SOL    HW133494   6.416   2.121   5.379 -0.2838 -0.9332 -2.4762
10862SOL    HW233495   6.516   2.223   5.331  0.5794 -0.0953  0.8526
10863SOL     OW33496   6.405   7.170   4.154 -0.5218  0.1479 -0.1342
10863SOL    HW133497   6.438   7.220   4.228 -1.2776  0.1272  0.2244
10863SOL    HW233498   6.483   7.153   4.100 -0.0732  0.7092  0.3215
10864SOL     OW33499   5.185   6.051   1.081  0.2962  0.0516 -0.2008
10864SOL    HW133500   5.187   6.111   1.156 -0.2612  0.3072 -0.3874
10864SOL    HW233501   5.135   6.098   1.014 -0.6838 -0.8713 -0.1303
10865SOL     OW33502   2.866   0.910   5.478  0.0667  0.3551 -0.3186
10865SOL    HW133503   2.816   0.833   5.451  1.0613 -0.4105 -0.0813
10865SOL    HW233504   2.910   0.939   5.398  1.1182 -0.4498 -0.0580
10866SOL     OW33505   6.238   5.673   7.254  0.4621  0.4599 -0.3038
10866SOL    HW133506   6.244   5.765   7.229 -1.1163  0.4920 -0.6579
10866SOL    HW233507   6.287   5.626   7.187  0.2146  0.9470 -0.8283
10867SOL     OW33508   5.568   2.911   4.673 -0.0369  0.3942 -0.2106
10867SOL    HW133509   5.593   2.869   4.755  1.1608  1.5699  0.0573
10867SOL    HW233510   5.555   2.839   4.612  0.9727 -0.4072  0.4960
10868SOL     OW33511   4.694   5.900   3.863 -0.1234 -0.1821  0.0060
10868SOL    HW133512   4.682   5.994   3.852 -1.8959 -0.4921 -1.1228
10868SOL    HW233513   4.743   5.872   3.785 -0.0529 -0.2612  0.0783
10869SOL     OW33514   5.547   3.925   6.782 -0.1765  0.1473 -0.1581
10869SOL    HW133515   5.487   3.898   6.713  0.0259 -0.5000 -0.0897
10869SOL    HW233516   5.555   3.848   6.839  0.3578  0.3718  0.0857
10870SOL     OW33517   5.540   2.959   6.086 -0.7669 -0.7286 -0.1197
10870SOL    HW133518   5.446   2.974   6.076 -0.7151  0.7189  1.2644
10870SOL    HW233519   5.548   2.910   6.168 -0.2269  0.6677  0.6918
10871SOL     OW33520   4.804   5.220   6.668  0.0110 -0.6615  0.3205
10871SOL    HW133521   4.817   5.165   6.745  0.0765 -2.2373 -0.7724
10871SOL    HW233522   4.824   5.308   6.698  1.8994 -1.4796  1.6386
10872SOL     OW33523   0.151   6.321   1.468  0.5363 -0.0248  0.0864
10872SOL    HW133524   0.231   6.350   1.510  1.2828 -0.3846 -1.0330
10872SOL    HW233525   0.081   6.366   1.516  1.5102  1.9777 -0.2487
10873SOL     OW33526   7.539   0.325   5.593  0.1904  0.3919 -0.1408
10873SOL    HW133527   7.561   0.284   5.510  1.3347 -0.6650  0.6325
10873SOL    HW233528   7.472   0.268   5.631  1.6654 -0.7392  0.8634
10874SOL     OW33529   3.427   1.576   7.142  0.5086 -0.8424 -0.1741
10874SOL    HW133530   3.393   1.530   7.219  1.8367  0.8269  1.5078
10874SOL    HW233531   3.515   1.542   7.131  0.1963 -1.3484 -1.2466
10875SOL     OW33532   0.149   2.822   5.787 -0.5482 -0.2825  0.1468
10875SOL    HW133533   0.117   2.911   5.794 -0.2952 -0.1819  0.0386
10875SOL    HW233534   0.122   2.780   5.869  0.7231  0.3499  0.9194
10876SOL     OW33535   2.341   0.362   2.754  0.3527 -0.2958  0.2229
10876SOL    HW133536   2.278   0.369   2.826  0.3307  1.6579  0.0711
10876SOL    HW233537   2.292   0.320   2.683 -0.8637  1.3085  0.0650
10877SOL     OW33538   4.895   7.730   0.421 -0.1943  0.8747 -0.1275
10877SOL    HW133539   4.884   7.698   0.511  0.1426  0.9749 -0.0462
10877SOL    HW233540   4.808   7.758   0.394 -0.1534  1.6370  0.4747
10878SOL     OW33541   6.676   0.482   4.194  0.1383 -0.0360 -0.2430
10878SOL    HW133542   6.689   0.388   4.178 -1.1379 -0.7037  2.2234
10878SOL    HW233543   6.587   0.489   4.226  1.1627  1.5336  2.6143
10879SOL     OW33544   2.923   2.659   2.237 -0.7560 -0.2552  0.1095
10879SOL    HW133545   2.917   2.738   2.291 -1.2119 -0.2939  0.1148
10879SOL    HW233546   2.943   2.692   2.149 -0.6703 -0.1516  0.1679
10880SOL     OW33547   7.234   3.309   5.174 -0.3023 -0.0950 -0.3662
10880SOL    HW133548   7.234   3.304   5.269  1.6733 -2.1322 -0.3919
10880SOL    HW233549   7.321   3.277   5.148 -0.8155  0.3031 -2.8599
10881SOL     OW33550   3.943   7.506   2.622  0.3546  0.9078 -0.1678
10881SOL    HW133551   3.980   7.466   2.543  1.3537  0.1526  0.6594
10881SOL    HW233552   3.948   7.438   2.688  1.1466  2.0459  1.0022
10882SOL     OW33553   4.631   4.725   5.614 -0.3687 -0.6285  0.4559
10882SOL    HW133554   4.602   4.737   5.704 -0.0796  2.0045  0.2777
10882SOL    HW233555   4.694   4.795   5.600 -0.3701 -1.0105 -1.7911
10883SOL     OW33556   0.541   0.624   3.099 -0.2850  0.5488 -0.1346
10883SOL    HW133557   0.541   0.661   3.011 -1.4218  1.5809  0.2689
10883SOL    HW233558   0.489   0.543   3.091 -1.3314  1.2105 -0.2058
10884SOL     OW33559   6.035   0.189   6.670 -0.6536 -0.2284 -0.3412
10884SOL    HW133560   6.071   0.101   6.660 -0.1715 -0.0662 -0.0894
10884SOL    HW233561   5.953   0.187   6.621 -1.3245 -1.2048  0.7717
10885SOL     OW33562   1.586   6.693   3.593 -0.4384 -0.4794 -0.1591
10885SOL    HW133563   1.657   6.733   3.541 -0.2819 -0.1404  0.3096
10885SOL    HW233564   1.620   6.693   3.683 -0.0905 -2.4238 -0.2540
10886SOL     OW33565   2.229   6.253   7.569  0.6099 -0.0919 -0.4276
10886SOL    HW133566   2.319   6.232   7.593  0.5689 -0.0372 -0.2247
10886SOL    HW233567   2.187   6.277   7.652  0.4791  0.1427 -0.5616
10887SOL     OW33568   5.094   1.873   2.956  0.2022 -0.4340  0.0869
10887SOL    HW133569   5.152   1.886   3.031  1.7414  2.9983 -1.4744
10887SOL    HW233570   5.143   1.815   2.898  1.5106  1.1314 -0.4842
10888SOL     OW33571   0.918   3.189   0.402 -0.6361 -0.0511  0.1416
10888SOL    HW133572   0.868   3.167   0.480  0.4650 -0.4401  0.7487
10888SOL    HW233573   0.923   3.107   0.353 -1.7488  0.3038 -0.6018
10889SOL     OW33574   5.854   0.698   2.420  0.0066  0.0012 -0.4818
10889SOL    HW133575   5.837   0.748   2.500  2.0529  0.3035 -0.1750
10889SOL    HW233576   5.822   0.754   2.349 -3.7139 -1.1307  0.1183
10890SOL     OW33577   6.458   0.286   1.234 -0.0821  0.0431  0.0579
10890SOL    HW133578   6.419   0.199   1.246  0.0444 -0.3043 -1.6667
10890SOL    HW233579   6.512   0.299   1.311 -1.1523 -0.8193  1.0023
10891SOL     OW33580   4.509   6.552   3.955 -0.0560 -0.1393 -0.1132
10891SOL    HW133581   4.519   6.611   3.880 -0.8502 -0.2377 -0.3075
10891SOL    HW233582   4.484   6.609   4.027  2.2581  0.1748  0.4974
10892SOL     OW33583   4.426   4.875   5.530  0.3206  0.0789 -0.6356
10892SOL    HW133584   4.409   4.851   5.439 -0.2965 -2.8847  0.1701
10892SOL    HW233585   4.492   4.812   5.560 -2.6498 -2.0537  2.1287
10893SOL     OW33586   6.982   1.646   6.684  0.2970  0.5513  0.3078
10893SOL    HW133587   7.026   1.694   6.614  0.1297  0.5203  0.1785
10893SOL    HW233588   7.004   1.554   6.667  0.6939  0.5898  0.6105
10894SOL     OW33589   2.091   6.673   5.682 -0.1308  0.0712 -0.8915
10894SOL    HW133590   2.055   6.758   5.655 -0.6602  0.3168  0.5117
10894SOL    HW233591   2.027   6.639   5.745  0.6172 -0.8872 -0.6314
10895SOL     OW33592   7.716   7.399   4.214  0.2854 -0.0612 -0.0729
10895SOL    HW133593   7.672   7.321   4.180 -0.8187  0.4462  0.1543
10895SOL    HW233594   7.801   7.399   4.170 -0.6579 -0.0335 -2.0492
10896SOL     OW33595   6.841   4.952   7.243  0.8646  0.3357 -0.0571
10896SOL    HW133596   6.764   5.009   7.244 -0.5671 -1.4254  3.1147
10896SOL    HW233597   6.891   4.981   7.166 -2.5380  2.0774 -1.8475
10897SOL     OW33598   3.324   6.263   7.034  0.2415  0.0356 -0.4732
10897SOL    HW133599   3.295   6.176   7.061 -2.6898  0.6637 -1.2774
10897SOL    HW233600   3.394   6.246   6.971  0.5944 -1.6676  0.3155
10898SOL     OW33601   3.598   4.899   0.239 -0.1609 -0.7898  0.6216
10898SOL    HW133602   3.580   4.819   0.188  0.8591  0.4386 -1.8207
10898SOL    HW233603   3.691   4.915   0.226 -0.4854  1.1691  0.4900
10899SOL     OW33604   6.554   3.044   4.713  0.6599  0.4915  0.1883
10899SOL    HW133605   6.529   3.113   4.653  0.6200 -0.1879 -0.5873
10899SOL    HW233606   6.649   3.038   4.704  0.6702  0.4778  0.3004
10900SOL     OW33607   6.851   6.385   6.994 -0.1415  0.2106  0.4155
10900SOL    HW133608   6.929   6.399   7.047 -0.6465  2.1386  0.7290
10900SOL    HW233609   6.788   6.449   7.026 -0.7834  0.8600 -1.9184
10901SOL     OW33610   7.341   6.368   3.742 -0.0204  0.5578 -0.5157
10901SOL    HW133611   7.406   6.319   3.792  1.3592  3.3431  0.6052
10901SOL    HW233612   7.259   6.355   3.791 -0.0660 -1.7257 -1.0812
10902SOL     OW33613   1.241   1.743   1.684 -0.0391 -0.6087 -0.3937
10902SOL    HW133614   1.162   1.723   1.734 -0.2957 -2.1057 -1.3238
10902SOL    HW233615   1.270   1.828   1.717 -2.6645  0.5367 -0.7882
10903SOL     OW33616   6.178   6.478   6.871  0.1949 -0.3641  0.4548
10903SOL    HW133617   6.100   6.450   6.919  0.0035  0.5690  0.7014
10903SOL    HW233618   6.155   6.564   6.836 -0.1004 -1.4725 -2.3153
10904SOL     OW33619   2.311   0.043   6.678 -0.0297 -0.0096  0.0116
10904SOL    HW133620   2.341   0.091   6.755 -0.4796  1.4811 -0.7003
10904SOL    HW233621   2.216   0.057   6.676 -0.1836 -1.0360 -0.1471
10905SOL     OW33622   2.988   4.684   3.504 -0.6967 -0.2903 -0.5098
10905SOL    HW133623   2.971   4.769   3.543 -0.4748 -0.0707 -0.8843
10905SOL    HW233624   2.979   4.622   3.576 -0.5146  0.0829 -0.1627
10906SOL     OW33625   7.707   6.631   0.711  0.0642 -0.3252 -0.3035
10906SOL    HW133626   7.728   6.662   0.800 -0.9180 -1.3839  0.3188
10906SOL    HW233627   7.784   6.655   0.659  1.6081 -1.5890  1.2976
10907SOL     OW33628   4.002   6.303   1.031  0.3870 -0.0933  0.1109
10907SOL    HW133629   3.961   6.231   0.984 -1.0855  0.5850  0.3151
10907SOL    HW233630   4.074   6.262   1.079  0.8292 -1.0792 -1.3364
10908SOL     OW33631   4.753   2.924   5.728 -0.1403 -0.5114 -0.5189
10908SOL    HW133632   4.711   2.928   5.642 -0.9277 -0.3787 -0.1381
10908SOL    HW233633   4.708   2.990   5.780  0.1933 -0.7305  0.0546
10909SOL     OW33634   4.810   5.615   5.386 -0.4000  0.0303  0.1568
10909SOL    HW133635   4.754   5.690   5.404 -0.3415 -0.3837  2.2932
10909SOL    HW233636   4.777   5.545   5.442  1.7609 -0.4347  0.9652
10910SOL     OW33637   1.045   3.463   6.678  0.1659  0.2912 -0.6118
10910SOL    HW133638   0.956   3.431   6.692 -0.2608  1.7309  0.2566
10910SOL    HW233639   1.101   3.399   6.723 -0.4287 -0.5322 -1.0217
10911SOL     OW33640   0.353   4.478   2.301 -0.6978 -0.0623  0.4004
10911SOL    HW133641   0.394   4.452   2.218 -0.4732 -0.2905  0.5790
10911SOL    HW233642   0.262   4.496   2.279 -0.8888 -1.1065  0.2799
10912SOL     OW33643   5.120   4.516   3.743  0.3445  0.2048  0.2933
10912SOL    HW133644   5.161   4.487   3.661 -0.6330  0.9298 -0.4775
10912SOL    HW233645   5.054   4.450   3.762  0.4508  0.1288  0.3965
10913SOL     OW33646   2.372   7.010   6.330  0.0271  0.3676 -0.2470
10913SOL    HW133647   2.324   6.959   6.395 -2.2192 -1.5521 -3.1176
10913SOL    HW233648   2.321   7.090   6.320 -0.6783 -0.1410 -0.8559
10914SOL     OW33649   0.780   6.374   4.292  0.5404 -0.2160  0.3111
10914SOL    HW133650   0.740   6.290   4.314 -1.5251  0.4847 -0.4616
10914SOL    HW233651   0.840   6.355   4.220 -0.9695 -0.8787 -0.8378
10915SOL     OW33652   6.019   0.776   5.242  0.3658  0.3121 -0.3829
10915SOL    HW133653   6.111   0.800   5.237  0.4307  0.0810 -0.3090
10915SOL    HW233654   5.987   0.819   5.321  0.4813  0.1567 -0.2518
10916SOL     OW33655   4.591   3.233   4.048  0.4823  0.1762 -0.3155
10916SOL    HW133656   4.655   3.169   4.019 -1.0376 -2.1174  1.0613
10916SOL    HW233657   4.622   3.262   4.133 -0.1250 -0.7937  0.2650
10917SOL     OW33658   7.282   0.163   0.237 -0.2473  0.2908 -0.3879
10917SOL    HW133659   7.232   0.087   0.205 -1.4312  0.7543  0.2892
10917SOL    HW233660   7.355   0.125   0.285 -1.3991 -0.4530  0.8414
10918SOL     OW33661   5.816   0.167   2.007 -0.2403  0.1571 -0.1350
10918SOL    HW133662   5.722   0.183   2.012  0.2061  3.1140  1.1836
10918SOL    HW233663   5.845   0.164   2.099  0.7715 -2.5248 -0.4561
10919SOL     OW33664   4.990   6.660   1.017  0.0056  0.2349 -0.7905
10919SOL    HW133665   4.956   6.741   1.053  1.9256  0.1395  1.5432
10919SOL    HW233666   5.074   6.685   0.977  0.8185 -0.5793  0.3192
10920SOL     OW33667   3.506   2.560   3.937 -0.2583 -0.2394  0.2781
10920SOL    HW133668   3.487   2.520   4.022  1.0504 -1.3378  0.0694
10920SOL    HW233669   3.536   2.488   3.882 -0.2306  0.6155 -0.8616
10921SOL     OW33670   6.272   0.616   7.572 -0.0112 -0.2137 -0.5176
10921SOL    HW133671   6.186   0.576   7.565 -0.7802  1.5033 -1.5439
10921SOL    HW233672   6.254   0.706   7.600  1.5513 -0.1889  0.5393
10922SOL     OW33673   3.479   5.541   4.009  0.5601 -0.0917  0.7876
10922SOL    HW133674   3.523   5.616   3.968 -0.2484  0.8937  1.6709
10922SOL    HW233675   3.463   5.480   3.937  1.6152  0.3843  0.1258
10923SOL     OW33676   1.473   7.438   2.614  0.0064 -0.3400 -0.2426
10923SOL    HW133677   1.495   7.530   2.605  0.7406 -0.3205  1.3896
10923SOL    HW233678   1.523   7.408   2.690 -3.1421 -1.1068  1.7493
10924SOL     OW33679   2.317   1.208   1.892  0.4142 -0.1285  0.0237
10924SOL    HW133680   2.395   1.184   1.842  0.4179  0.3124 -0.1854
10924SOL    HW233681   2.244   1.188   1.834  0.3420 -0.9724  0.3919
10925SOL     OW33682   7.372   4.693   3.692 -0.2172  0.3568  0.0272
10925SOL    HW133683   7.322   4.666   3.769 -1.2041  1.7026 -0.1115
10925SOL    HW233684   7.328   4.772   3.661 -0.0959 -0.3958 -2.2057
10926SOL     OW33685   6.065   0.393   3.972 -0.1585 -0.2437 -0.2098
10926SOL    HW133686   5.970   0.376   3.975 -0.2889  0.5644  0.5986
10926SOL    HW233687   6.074   0.485   3.996  0.6954  0.3109 -2.4464
10927SOL     OW33688   4.224   1.810   5.679 -0.6218  0.5305  0.3875
10927SOL    HW133689   4.193   1.786   5.592  0.1105  0.4962  0.1281
10927SOL    HW233690   4.145   1.835   5.727 -1.3536 -1.7088  0.4670
10928SOL     OW33691   2.056   1.887   5.734  0.6318  0.0542 -0.3998
10928SOL    HW133692   2.027   1.970   5.695  0.1840  0.2079  0.2193
10928SOL    HW233693   2.122   1.913   5.798 -1.9809  0.4379  2.4263
10929SOL     OW33694   1.007   2.850   5.809  0.0131  0.2631  0.5213
10929SOL    HW133695   1.070   2.861   5.880  1.0049  1.4415 -0.4982
10929SOL    HW233696   1.050   2.888   5.732 -1.2296 -0.5143 -0.6113
10930SOL     OW33697   1.479   6.833   0.607 -0.2486 -0.0291 -0.1208
10930SOL    HW133698   1.443   6.799   0.525 -0.0139 -0.3368 -0.0999
10930SOL    HW233699   1.455   6.925   0.607 -1.0565 -0.2288 -0.0985
10931SOL     OW33700   6.661   5.607   7.004 -0.1796 -0.2094 -0.5116
10931SOL    HW133701   6.743   5.651   6.980 -0.6035 -0.2451 -2.1726
10931SOL    HW233702   6.634   5.650   7.085  1.4567 -0.1826  0.0505
10932SOL     OW33703   2.750   6.476   2.323 -0.3185  0.4413 -0.4268
10932SOL    HW133704   2.786   6.437   2.403  0.6305  0.3221 -0.8984
10932SOL    HW233705   2.778   6.418   2.253  1.0472  1.8591 -1.1301
10933SOL     OW33706   2.288   7.463   6.606  0.0066 -0.0597  1.1021
10933SOL    HW133707   2.362   7.425   6.558 -1.6308 -0.2204 -1.4953
10933SOL    HW233708   2.310   7.556   6.613  0.1070  0.0582 -0.4281
10934SOL     OW33709   6.722   3.554   1.410 -0.0929 -0.3759  0.3546
10934SOL    HW133710   6.684   3.532   1.325 -2.4903  1.7652  0.7512
10934SOL    HW233711   6.807   3.510   1.410 -1.0526 -2.5246 -2.0884
10935SOL     OW33712   0.920   3.310   2.410  0.2571  0.0611  0.0251
10935SOL    HW133713   0.897   3.370   2.481  0.5067 -0.7416  0.7972
10935SOL    HW233714   0.942   3.368   2.337  1.2313  0.9388  0.9697
10936SOL     OW33715   1.515   1.319   1.379  0.6692  0.5811 -0.0354
10936SOL    HW133716   1.587   1.279   1.330 -0.7855  0.7222 -2.4500
10936SOL    HW233717   1.475   1.247   1.426  1.3739  0.2116  0.0156
10937SOL     OW33718   3.512   7.683   4.702  0.0822  0.1055 -0.2117
10937SOL    HW133719   3.535   7.756   4.758 -0.0792 -0.4574  0.6064
10937SOL    HW233720   3.595   7.641   4.680 -0.0104 -1.3198  1.9066
10938SOL     OW33721   7.119   6.750   5.231  0.1048 -0.3672 -0.8569
10938SOL    HW133722   7.182   6.797   5.175  0.1118  1.1800  0.3890
10938SOL    HW233723   7.043   6.807   5.235 -0.3903 -1.0504 -0.2813
10939SOL     OW33724   5.886   6.112   1.289  0.0371  0.9057 -0.6249
10939SOL    HW133725   5.794   6.087   1.288  0.4508 -1.1358  2.0184
10939SOL    HW233726   5.896   6.165   1.369  1.3107  0.2814 -0.3416
10940SOL     OW33727   4.461   7.446   2.491 -0.1872 -0.5460  0.4493
10940SOL    HW133728   4.435   7.413   2.405 -0.0549 -1.1426  0.6352
10940SOL    HW233729   4.386   7.427   2.548 -0.3803  0.0821  0.4160
10941SOL     OW33730   2.681   0.741   5.391  0.6328  0.3270  0.4109
10941SOL    HW133731   2.715   0.672   5.335  0.2395 -1.2028  1.9847
10941SOL    HW233732   2.616   0.786   5.337  1.5521  0.0815 -0.9443
10942SOL     OW33733   2.830   5.814   4.044  0.2488 -0.6027 -0.5229
10942SOL    HW133734   2.840   5.721   4.025  0.8916 -0.6583  0.0570
10942SOL    HW233735   2.915   5.841   4.079 -0.2317 -0.0142  0.2115
10943SOL     OW33736   6.124   6.443   5.331  0.0076  0.0624  0.2272
10943SOL    HW133737   6.172   6.362   5.347 -0.5450  0.0389  2.0868
10943SOL    HW233738   6.117   6.450   5.236 -0.1948 -2.2308  0.0211
10944SOL     OW33739   1.021   5.323   7.479  0.3980 -0.4276 -0.0214
10944SOL    HW133740   0.931   5.295   7.460  0.9720 -2.8159  0.4251
10944SOL    HW233741   1.016   5.366   7.564 -0.5046  0.7600 -0.6355
10945SOL     OW33742   7.185   0.576   6.016 -0.2637  0.0682  0.3584
10945SOL    HW133743   7.215   0.589   6.106 -0.0913  1.5935  0.1044
10945SOL    HW233744   7.140   0.491   6.018 -2.8110  1.3054  2.5780
10946SOL     OW33745   3.614   7.492   5.081 -0.4785  0.2546  0.5826
10946SOL    HW133746   3.626   7.445   4.999  0.0833  1.1854  0.1123
10946SOL    HW233747   3.683   7.458   5.138  0.8548  1.4660 -0.2230
10947SOL     OW33748   0.252   4.959   4.693 -0.2769  0.4937 -0.0754
10947SOL    HW133749   0.279   4.982   4.604 -2.9674 -0.0503 -1.1093
10947SOL    HW233750   0.163   4.926   4.684 -0.9734  1.2222  2.9630
10948SOL     OW33751   1.846   4.366   7.586  0.1953  0.4451 -0.3618
10948SOL    HW133752   1.857   4.418   7.506 -0.5126  0.2326 -0.6101
10948SOL    HW233753   1.923   4.385   7.638  0.2042  1.3328 -0.6795
10949SOL     OW33754   6.098   5.139   1.111  0.7057  0.5065  0.2612
10949SOL    HW133755   6.102   5.221   1.159 -0.3406 -0.1929  1.6351
10949SOL    HW233756   6.124   5.072   1.175  1.5866 -0.2422 -0.8389
10950SOL     OW33757   3.100   0.650   4.402  0.7013  0.2842 -0.2678
10950SOL    HW133758   3.026   0.590   4.403  1.0791 -0.1900 -0.1801
10950SOL    HW233759   3.075   0.718   4.340  0.0558  0.3088  0.0106
10951SOL     OW33760   3.722   7.354   3.816 -0.1230  0.5870  0.2932
10951SOL    HW133761   3.709   7.323   3.906 -3.2918 -0.4334 -0.3983
10951SOL    HW233762   3.776   7.286   3.775  1.8568  1.3429  1.4775
10952SOL     OW33763   4.122   1.645   2.954  0.0571  0.0235  0.0987
10952SOL    HW133764   4.050   1.666   2.896 -1.7031 -3.5415  0.7309
10952SOL    HW233765   4.116   1.710   3.025 -0.9288  1.2715 -1.0907
10953SOL     OW33766   5.810   3.922   4.752  0.4672  0.2783 -0.6204
10953SOL    HW133767   5.843   3.895   4.667  0.2314 -0.3677 -0.5065
10953SOL    HW233768   5.889   3.935   4.805  0.5664 -0.6085 -0.5465
10954SOL     OW33769   5.461   1.247   3.540  0.2877  0.0470 -0.5373
10954SOL    HW133770   5.420   1.164   3.519 -2.3283  1.3662 -1.0658
10954SOL    HW233771   5.481   1.287   3.456  1.6604 -0.0583 -0.2904
10955SOL     OW33772   2.230   1.980   6.396  0.1754  0.2724  0.1457
10955SOL    HW133773   2.199   1.940   6.315  0.4629  0.3142  0.0115
10955SOL    HW233774   2.312   2.023   6.371  0.2981  0.2299  0.4739
10956SOL     OW33775   1.296   7.680   1.492  0.0903 -0.0608  0.0379
10956SOL    HW133776   1.256   7.609   1.543 -0.5568  0.5983  0.4542
10956SOL    HW233777   1.294   7.756   1.550  1.1642  0.2070 -0.2549
10957SOL     OW33778   6.246   6.837   4.454 -0.2129  0.3047  0.4529
10957SOL    HW133779   6.230   6.923   4.493 -1.3934 -0.5081  1.8820
10957SOL    HW233780   6.177   6.825   4.390 -0.2547  0.2829  0.5020
10958SOL     OW33781   7.114   5.811   0.095 -0.0412 -0.4271  0.1557
10958SOL    HW133782   7.154   5.897   0.091 -0.3364 -0.3350 -1.4950
10958SOL    HW233783   7.054   5.816   0.170 -1.0318  1.2546 -0.6945
10959SOL     OW33784   6.853   1.519   7.259  0.5395  0.1057 -0.4883
10959SOL    HW133785   6.843   1.485   7.170 -1.9720 -1.3118  0.2443
10959SOL    HW233786   6.946   1.507   7.278  1.2951  0.9895 -3.0611
10960SOL     OW33787   1.683   2.372   6.860  0.0455  0.0542 -0.1391
10960SOL    HW133788   1.647   2.365   6.771 -0.9262 -0.2655  0.2686
10960SOL    HW233789   1.710   2.463   6.868  1.0073 -0.1186 -1.0758
10961SOL     OW33790   4.816   1.990   2.696 -0.4495  0.2992 -0.0483
10961SOL    HW133791   4.776   2.075   2.716 -0.8723  0.0101  0.3406
10961SOL    HW233792   4.851   1.959   2.779 -0.3719  0.0439 -0.1740
10962SOL     OW33793   5.393   2.910   6.803  0.6095  0.5549 -0.1511
10962SOL    HW133794   5.331   2.843   6.833  1.7520 -0.2902  0.3702
10962SOL    HW233795   5.368   2.988   6.852  0.6019 -0.0497  0.8377
10963SOL     OW33796   2.719   1.407   7.591 -0.1636  0.1872  0.0429
10963SOL    HW133797   2.719   1.498   7.561 -0.7829  0.4873  0.9120
10963SOL    HW233798   2.776   1.361   7.529 -1.8362  0.6553 -1.9829
10964SOL     OW33799   2.710   5.810   6.069 -0.3948  0.0521  0.0389
10964SOL    HW133800   2.758   5.795   5.987 -0.4218  0.6337 -0.0875
10964SOL    HW233801   2.628   5.851   6.041 -1.3322 -1.6097  0.1853
10965SOL     OW33802   0.289   3.027   7.339 -0.0664 -0.5956 -0.3938
10965SOL    HW133803   0.384   3.038   7.346 -0.2723  0.8732  0.6489
10965SOL    HW233804   0.259   3.104   7.291 -0.6331 -1.6222 -1.7236
10966SOL     OW33805   2.493   1.578   4.509  0.2353  0.3221 -0.6840
10966SOL    HW133806   2.507   1.663   4.468 -0.6610  0.8816  0.1162
10966SOL    HW233807   2.464   1.521   4.438  1.1096  0.6061 -1.2795
10967SOL     OW33808   0.419   0.861   0.012 -0.1694 -0.2137  0.1941
10967SOL    HW133809   0.363   0.939   0.007 -1.5612 -1.2149 -0.2625
10967SOL    HW233810   0.372   0.801   0.069  0.7326 -0.8521  0.2833
10968SOL     OW33811   3.895   4.959   2.390 -0.2361 -0.4687  0.0407
10968SOL    HW133812   3.960   4.985   2.325 -0.0535 -1.4061 -0.1703
10968SOL    HW233813   3.862   5.041   2.426 -0.9246  0.1029 -1.8080
10969SOL     OW33814   5.069   0.087   4.669  0.0193 -0.2014 -0.0700
10969SOL    HW133815   4.975   0.087   4.687  0.2162 -3.2686  1.6727
10969SOL    HW233816   5.084   0.008   4.616  1.6812 -0.3177  0.4859
10970SOL     OW33817   0.849   5.046   1.720  0.1712  0.5760 -0.1361
10970SOL    HW133818   0.789   5.118   1.703 -0.7538 -0.4687 -1.5812
10970SOL    HW233819   0.813   5.003   1.798  0.6044  1.5230  0.5973
10971SOL     OW33820   5.844   0.292   0.232 -0.1655  0.1601  0.0886
10971SOL    HW133821   5.771   0.246   0.274  0.6768 -0.4257  0.9709
10971SOL    HW233822   5.843   0.261   0.142 -0.5465 -0.4297  0.2908
10972SOL     OW33823   6.727   0.400   6.940  0.3051  0.0099 -0.4840
10972SOL    HW133824   6.639   0.438   6.937  1.0406  1.7385 -1.6475
10972SOL    HW233825   6.733   0.346   6.862  0.4779  0.3837 -0.7312
10973SOL     OW33826   1.987   6.193   2.609  0.0341 -0.1791 -0.1989
10973SOL    HW133827   1.972   6.255   2.538 -0.9309  1.0142  0.9775
10973SOL    HW233828   1.983   6.246   2.689  1.8276 -1.3421  0.7360
10974SOL     OW33829   4.906   0.629   2.600  0.2018 -0.5693 -0.1229
10974SOL    HW133830   4.860   0.548   2.576  0.9742 -0.9790 -0.2737
10974SOL    HW233831   4.848   0.699   2.572 -0.8035 -1.0698  0.6344
10975SOL     OW33832   5.581   2.933   3.115 -0.8718 -0.5418  0.5326
10975SOL    HW133833   5.611   2.996   3.180 -3.3510 -0.1695  1.3977
10975SOL    HW233834   5.657   2.876   3.101  1.0148  1.7755  0.6965
10976SOL     OW33835   1.958   6.175   2.932 -0.1348  0.1532  0.3974
10976SOL    HW133836   1.883   6.235   2.930 -0.4362 -0.2395 -0.2909
10976SOL    HW233837   2.033   6.230   2.909 -0.5888  0.0411 -1.5317
10977SOL     OW33838   2.060   4.445   4.378 -0.1694 -0.2096 -0.0579
10977SOL    HW133839   2.017   4.433   4.294  1.0679 -0.0224 -0.7316
10977SOL    HW233840   2.096   4.359   4.399 -1.7408 -0.6435  1.0242
10978SOL     OW33841   2.754   0.356   6.319  0.2957 -0.1511 -0.5120
10978SOL    HW133842   2.724   0.332   6.232 -0.7579  0.6113 -0.3841
10978SOL    HW233843   2.674   0.381   6.366  1.0307  1.2983  0.0534
10979SOL     OW33844   4.739   0.288   6.773 -0.4288  0.3311  0.2314
10979SOL    HW133845   4.671   0.351   6.751  0.1095  1.4006  1.4629
10979SOL    HW233846   4.737   0.284   6.869  0.6369 -0.2981  0.2433
10980SOL     OW33847   5.779   6.492   2.953 -0.4023 -0.0441  0.5039
10980SOL    HW133848   5.762   6.400   2.975  1.4886 -0.4252  0.6142
10980SOL    HW233849   5.838   6.522   3.023  0.2654  0.7679 -0.3865
10981SOL     OW33850   0.520   7.480   2.548  0.0279  0.1802 -0.0458
10981SOL    HW133851   0.454   7.502   2.614  0.6849  0.1462  0.6430
10981SOL    HW233852   0.576   7.415   2.592  2.0931  2.1229  0.3825
10982SOL     OW33853   6.127   4.648   6.298  0.6469  0.1063 -0.0716
10982SOL    HW133854   6.182   4.725   6.278  2.8415 -0.8455  1.8301
10982SOL    HW233855   6.118   4.649   6.393  0.8212 -2.0401  0.0110
10983SOL     OW33856   1.678   4.992   3.406  0.6793 -0.2921  0.2489
10983SOL    HW133857   1.769   5.009   3.385  0.6426  0.2544  0.4909
10983SOL    HW233858   1.647   5.074   3.446 -0.0448 -0.3067 -0.2583
10984SOL     OW33859   3.200   4.299   0.759 -0.0581 -0.0430  0.5084
10984SOL    HW133860   3.188   4.228   0.822  1.4147 -0.5934  0.2000
10984SOL    HW233861   3.287   4.334   0.776 -0.0838  0.5719 -0.4646
10985SOL     OW33862   5.593   7.422   2.634  0.3170 -0.4635  0.0337
10985SOL    HW133863   5.660   7.491   2.636  0.5502 -0.6848 -0.0735
10985SOL    HW233864   5.529   7.449   2.699  1.1891 -0.9329  1.1281
10986SOL     OW33865   4.868   1.240   2.840  0.5376 -0.3986  0.5497
10986SOL    HW133866   4.920   1.223   2.762  0.8049 -0.1574  0.6748
10986SOL    HW233867   4.872   1.335   2.852 -1.8700 -0.0381 -0.7823
10987SOL     OW33868   1.434   5.742   3.889 -0.1608  0.4038 -0.2389
10987SOL    HW133869   1.383   5.819   3.865 -0.1015  0.0239 -1.6965
10987SOL    HW233870   1.379   5.694   3.949 -0.2743  1.4832  0.5418
10988SOL     OW33871   0.762   0.866   6.434 -0.0180  0.1750 -0.5727
10988SOL    HW133872   0.694   0.900   6.377 -1.0149 -0.5814  0.1349
10988SOL    HW233873   0.836   0.926   6.422 -0.9019  1.1792 -1.1274
10989SOL     OW33874   0.825   6.278   0.919  0.3870 -0.1741  0.3042
10989SOL    HW133875   0.895   6.329   0.877  0.8796  0.2463  1.5944
10989SOL    HW233876   0.865   6.195   0.940 -0.0821 -0.6810 -0.7170
10990SOL     OW33877   0.846   0.424   0.334 -0.5762 -0.0374 -0.3996
10990SOL    HW133878   0.858   0.409   0.428 -1.9150  0.3055 -0.1508
10990SOL    HW233879   0.837   0.519   0.326 -0.6388 -0.0781 -0.8466
10991SOL     OW33880   1.120   3.912   7.518 -0.8340 -0.0381  0.4061
10991SOL    HW133881   1.208   3.926   7.484 -0.6142  0.2089  1.0612
10991SOL    HW233882   1.075   3.865   7.449 -1.2334  2.7698 -1.4211
10992SOL     OW33883   7.502   7.688   7.071  0.6131 -0.2216  0.2696
10992SOL    HW133884   7.408   7.679   7.087  0.6424 -0.6966  0.1822
10992SOL    HW233885   7.519   7.782   7.081 -0.5978  0.5825 -3.7223
10993SOL     OW33886   0.988   3.917   6.726 -0.0092  1.0056  0.2664
10993SOL    HW133887   1.014   3.988   6.785  1.2073 -0.6407  1.8255
10993SOL    HW233888   1.070   3.873   6.705 -1.0103 -1.8770  1.9748
10994SOL     OW33889   6.462   6.117   3.406 -0.1838 -0.5316  0.2777
10994SOL    HW133890   6.400   6.159   3.346 -0.8197 -0.3199  1.0641
10994SOL    HW233891   6.514   6.059   3.350  1.3321  1.9305 -1.0025
10995SOL     OW33892   5.339   5.919   0.894  0.2440  0.4851  0.4599
10995SOL    HW133893   5.358   5.978   0.821  2.2682 -0.1449  0.4036
10995SOL    HW233894   5.290   5.972   0.956 -0.8992  1.2360 -1.0216
10996SOL     OW33895   7.686   6.246   1.278  0.4825  0.6587 -0.5544
10996SOL    HW133896   7.673   6.195   1.358  2.1776  1.3908  0.2570
10996SOL    HW233897   7.777   6.277   1.284  1.3716 -0.9063 -3.7459
10997SOL     OW33898   7.510   5.539   1.282  0.5923 -0.1053 -0.2080
10997SOL    HW133899   7.422   5.509   1.257 -0.1626  1.1357  0.8105
10997SOL    HW233900   7.531   5.605   1.216  1.3111 -1.2449 -1.1603
10998SOL     OW33901   3.259   6.560   1.013 -0.1370 -0.3853  0.0436
10998SOL    HW133902   3.283   6.481   1.061  1.3296  0.2579  0.4336
10998SOL    HW233903   3.235   6.528   0.925 -1.9209 -1.4704  0.8693
10999SOL     OW33904   4.952   0.506   0.574 -0.1732  0.2735 -0.1570
10999SOL    HW133905   5.043   0.483   0.593 -0.3592 -0.5694 -0.2444
10999SOL    HW233906   4.901   0.464   0.643 -0.7321 -1.6103 -1.6107
11000SOL     OW33907   7.146   5.449   5.931 -0.0118 -0.3139  0.1793
11000SOL    HW133908   7.137   5.488   5.845  0.6629  0.1808  0.3197
11000SOL    HW233909   7.234   5.410   5.930 -0.2080 -0.7802  0.4600
11001SOL     OW33910   3.033   2.320   7.546 -0.2928 -0.6356 -0.5645
11001SOL    HW133911   2.970   2.324   7.618  0.0230  0.3681 -0.3208
11001SOL    HW233912   3.115   2.352   7.585 -0.3954  1.0762 -1.6538
11002SOL     OW33913   4.324   6.242   5.106 -0.2507 -0.5050 -0.2002
11002SOL    HW133914   4.326   6.302   5.031  0.5177  0.4376  0.5548
11002SOL    HW233915   4.416   6.224   5.125 -0.2936  1.2515  2.0535
11003SOL     OW33916   6.899   1.082   4.312 -0.4819  0.0769  0.4844
11003SOL    HW133917   6.907   1.170   4.275 -0.3574 -0.3619 -0.5724
11003SOL    HW233918   6.902   1.024   4.236 -0.0675 -0.8677  1.2006
11004SOL     OW33919   1.142   2.916   3.806 -0.5731 -0.0586 -0.2707
11004SOL    HW133920   1.158   2.950   3.895  0.1739  0.2674 -0.5244
11004SOL    HW233921   1.179   2.828   3.807 -2.3611 -0.8592  0.3360
11005SOL     OW33922   2.699   1.661   7.504  0.1785 -0.9318 -0.2896
11005SOL    HW133923   2.639   1.638   7.433 -0.0909 -0.8606 -0.0861
11005SOL    HW233924   2.742   1.742   7.476 -3.8675  2.3425  1.8934
11006SOL     OW33925   7.663   6.901   3.518  0.1883 -0.4036  0.1646
11006SOL    HW133926   7.713   6.975   3.482 -1.1004 -0.8245 -2.7735
11006SOL    HW233927   7.639   6.849   3.441 -5.6373  0.3102  1.0957
11007SOL     OW33928   4.830   4.483   5.599  0.4535 -0.0620  0.6126
11007SOL    HW133929   4.758   4.470   5.660 -0.4228 -0.0196 -0.3688
11007SOL    HW233930   4.797   4.548   5.537  1.4272  0.1226  0.2721
11008SOL     OW33931   2.181   3.622   4.449  0.4596  0.0675 -0.1002
11008SOL    HW133932   2.141   3.651   4.531 -0.0466 -1.2642  0.1519
11008SOL    HW233933   2.145   3.681   4.382 -2.5309 -1.4308  0.0103
11009SOL     OW33934   6.842   5.498   4.205 -0.5910  0.1922 -0.1574
11009SOL    HW133935   6.856   5.593   4.211 -1.1277  0.1896  2.0110
11009SOL    HW233936   6.930   5.462   4.192 -0.3025  0.9397 -0.3543
11010SOL     OW33937   3.310   2.169   0.464 -0.1025 -0.2703 -0.2667
11010SOL    HW133938   3.342   2.245   0.512  0.3889 -1.0688  0.7181
11010SOL    HW233939   3.379   2.151   0.399  0.3134 -0.5214  0.2331
11011SOL     OW33940   5.384   2.481   4.956 -0.5085  0.2921 -0.2992
11011SOL    HW133941   5.444   2.554   4.940 -0.3253  0.5991  1.6242
11011SOL    HW233942   5.413   2.413   4.895 -0.5988  1.7350 -2.0336
11012SOL     OW33943   3.401   4.580   6.511 -0.3172  0.0082  0.0409
11012SOL    HW133944   3.444   4.606   6.429  0.9827 -0.0010  0.6955
11012SOL    HW233945   3.412   4.485   6.515  1.3242  0.1824  1.0913
11013SOL     OW33946   0.036   1.039   1.929  0.5701  0.3283 -0.1480
11013SOL    HW133947   0.027   1.079   1.842  1.2874  1.6291  0.3491
11013SOL    HW233948   0.031   0.945   1.913  1.0436  0.5328 -1.6436
11014SOL     OW33949   2.259   4.489   6.191  0.1236 -0.1231 -0.3205
11014SOL    HW133950   2.353   4.500   6.173  0.0530  1.9462  0.2924
11014SOL    HW233951   2.253   4.479   6.286 -0.2853 -0.3941 -0.3703
11015SOL     OW33952   7.080   1.592   5.907  0.1231 -0.0874  0.0778
11015SOL    HW133953   7.123   1.581   5.822  0.6232  1.0314  0.1674
11015SOL    HW233954   6.991   1.619   5.886 -0.0366 -0.7284 -0.0908
11016SOL     OW33955   3.465   2.927   6.527 -0.1684 -0.0571  0.2110
11016SOL    HW133956   3.429   2.905   6.613  1.5675  1.4290  1.3891
11016SOL    HW233957   3.560   2.919   6.537  0.2168  2.2634 -0.8767
11017SOL     OW33958   1.912   3.252   2.502  0.1748 -0.1230  0.3763
11017SOL    HW133959   1.857   3.173   2.497 -0.5420  0.3517  0.5386
11017SOL    HW233960   1.930   3.274   2.411  1.8251 -1.4330  0.3390
11018SOL     OW33961   1.970   5.995   5.382  0.4037 -0.4346  0.2968
11018SOL    HW133962   1.963   6.089   5.400  1.1010 -0.0334 -1.3096
11018SOL    HW233963   2.019   5.991   5.299  1.2834 -2.2568  0.8653
11019SOL     OW33964   3.130   0.767   1.896 -0.3726  0.2339 -0.2022
11019SOL    HW133965   3.129   0.862   1.908 -1.8310 -0.0203  2.3554
11019SOL    HW233966   3.073   0.733   1.965 -0.8030 -2.4562 -1.7244
11020SOL     OW33967   4.700   1.850   2.509 -0.6056 -0.7736  0.3683
11020SOL    HW133968   4.756   1.776   2.483 -0.8507 -0.7609 -0.2039
11020SOL    HW233969   4.751   1.896   2.576 -0.2420 -1.1801  0.3768
11021SOL     OW33970   0.005   6.660   0.982  0.6669  0.0668 -0.3625
11021SOL    HW133971   0.006   6.634   1.074 -1.1279  0.3852 -0.2179
11021SOL    HW233972   0.075   6.725   0.975  1.1522 -0.3280  0.6582
11022SOL     OW33973   1.145   5.822   7.628  0.2207  0.2664 -0.2766
11022SOL    HW133974   1.122   5.891   7.690 -1.2863 -0.1127 -0.3819
11022SOL    HW233975   1.182   5.869   7.553  2.0073  0.7300  0.8279
11023SOL     OW33976   0.790   7.137   5.911  0.2286 -0.3310 -0.1722
11023SOL    HW133977   0.737   7.189   5.851  1.5788 -1.7384 -2.7557
11023SOL    HW233978   0.877   7.179   5.909  0.4628 -0.7846  0.3006
11024SOL     OW33979   6.795   7.616   2.834  0.2931 -0.1713 -0.4525
11024SOL    HW133980   6.865   7.559   2.864  1.0977  1.4523  0.9114
11024SOL    HW233981   6.715   7.567   2.851  0.9423 -0.7755  1.0008
11025SOL     OW33982   7.147   6.047   6.677 -0.7652  0.0603 -0.3846
11025SOL    HW133983   7.179   5.958   6.660  0.4496 -0.0952  2.1498
11025SOL    HW233984   7.059   6.035   6.712 -0.0494 -0.3307  1.3751
11026SOL     OW33985   5.051   6.921   6.826 -0.0788  0.1304  0.6933
11026SOL    HW133986   5.014   6.935   6.739  1.5757 -0.0061 -0.0707
11026SOL    HW233987   5.000   6.977   6.883 -0.9041  0.5684 -0.4436
11027SOL     OW33988   6.383   5.246   3.699  0.1355  0.1793  0.1157
11027SOL    HW133989   6.360   5.313   3.634  0.5292  0.4203  0.2196
11027SOL    HW233990   6.474   5.266   3.723 -0.2111  0.5117  1.2386
11028SOL     OW33991   4.484   2.772   7.168  0.0470  0.0134  0.3755
11028SOL    HW133992   4.397   2.781   7.128 -0.0513  0.0278  0.5914
11028SOL    HW233993   4.524   2.858   7.158  0.5247 -0.3374 -0.8602
11029SOL     OW33994   4.695   3.234   2.179 -0.2691 -0.2219  0.0969
11029SOL    HW133995   4.700   3.276   2.264  1.2465 -1.0448  0.4615
11029SOL    HW233996   4.603   3.208   2.169 -0.3757 -0.5050  1.6718
11030SOL     OW33997   2.032   3.532   3.992 -0.1166  0.3769  0.0792
11030SOL    HW133998   2.058   3.440   3.996  2.3125  0.9371 -0.7170
11030SOL    HW233999   1.984   3.547   4.073  0.7133 -1.2489  0.9258
11031SOL     OW34000   0.904   4.110   5.851  0.0874 -0.2011  0.7683
11031SOL    HW134001   0.993   4.096   5.885  0.3876 -0.1601  0.0113
11031SOL    HW234002   0.903   4.202   5.825  0.0749 -0.3992  0.0564
11032SOL     OW34003   3.980   2.886   4.294 -0.0392 -0.7388  0.1266
11032SOL    HW134004   3.975   2.790   4.286 -0.2823 -0.6187 -1.5886
11032SOL    HW234005   3.893   2.916   4.268 -0.6086 -0.1040  2.5342
11033SOL     OW34006   2.865   2.271   3.855  0.3826  0.5242 -0.5037
11033SOL    HW134007   2.790   2.214   3.868 -1.4160  2.9148  0.0939
11033SOL    HW234008   2.873   2.278   3.759  0.3421 -0.2946 -0.5782
11034SOL     OW34009   1.743   3.420   7.219 -0.2070 -0.2002 -0.2067
11034SOL    HW134010   1.805   3.444   7.150 -0.5218 -0.3802 -0.5521
11034SOL    HW234011   1.797   3.414   7.298  0.3296 -0.9286 -0.6081
11035SOL     OW34012   4.571   5.125   5.216 -0.1147  0.0423  0.1193
11035SOL    HW134013   4.624   5.122   5.136 -0.6989 -1.9155 -0.2350
11035SOL    HW234014   4.482   5.106   5.186 -0.3485 -0.6697  1.2152
11036SOL     OW34015   4.279   2.413   4.071 -0.4914 -0.8727 -0.4114
11036SOL    HW134016   4.352   2.474   4.082  0.8940 -2.3187 -1.1165
11036SOL    HW234017   4.308   2.333   4.115 -2.0596 -1.2101  0.0822
11037SOL     OW34018   6.042   0.319   7.291  0.5460 -0.2553  0.1866
11037SOL    HW134019   6.043   0.341   7.384 -0.0445  0.3574  0.0588
11037SOL    HW234020   6.046   0.224   7.288 -0.7268 -0.3497  0.8829
11038SOL     OW34021   1.096   6.681   4.266  0.5180 -0.0178  0.1390
11038SOL    HW134022   1.170   6.622   4.254  0.4012  0.0456 -0.9817
11038SOL    HW234023   1.036   6.661   4.194 -0.1290  0.5642  0.4933
11039SOL     OW34024   0.006   6.153   4.717  0.2503 -0.1215  0.1984
11039SOL    HW134025   0.031   6.087   4.652 -0.2852 -0.1014 -0.0291
11039SOL    HW234026   0.071   6.144   4.786  1.3739  0.4724 -0.7428
11040SOL     OW34027   7.457   5.931   2.388  0.2336  0.2624 -0.0792
11040SOL    HW134028   7.551   5.950   2.394  0.1120  0.7883  0.2963
11040SOL    HW234029   7.429   5.975   2.308  0.3051  0.1083 -0.1896
11041SOL     OW34030   0.806   0.625   6.309  0.0803 -0.1591 -0.1803
11041SOL    HW134031   0.758   0.627   6.391  0.6755 -1.7698  0.2423
11041SOL    HW234032   0.884   0.678   6.325 -0.2486  0.2847 -0.0227
11042SOL     OW34033   6.312   3.550   2.148 -0.2677  0.2049 -0.1169
11042SOL    HW134034   6.264   3.605   2.086 -0.1074  0.1411 -0.3002
11042SOL    HW234035   6.333   3.609   2.221 -0.8708  0.1603  0.0984
11043SOL     OW34036   1.289   6.409   4.528  0.0620 -0.5523  0.2110
11043SOL    HW134037   1.380   6.439   4.519  0.2013 -1.5703 -2.6099
11043SOL    HW234038   1.239   6.488   4.546  1.0854  0.5851 -1.6788
11044SOL     OW34039   2.302   6.422   0.436 -0.7220 -0.2575  0.2563
11044SOL    HW134040   2.259   6.433   0.351  0.5070  2.9395 -0.0959
11044SOL    HW234041   2.263   6.489   0.492  0.0619 -0.8135  1.5250
11045SOL     OW34042   4.148   0.827   3.900  0.2502 -0.2231 -0.0540
11045SOL    HW134043   4.084   0.756   3.889  0.1819  0.0468 -1.6811
11045SOL    HW234044   4.098   0.897   3.941 -0.5945  0.0413 -1.4397
11046SOL     OW34045   1.196   6.174   0.647 -0.1306 -0.1304  0.6984
11046SOL    HW134046   1.241   6.095   0.619 -1.2940 -1.5953  2.6515
11046SOL    HW234047   1.266   6.238   0.663  0.9703 -1.2835  0.6042
11047SOL     OW34048   4.763   1.974   4.968 -0.0658 -0.2581 -0.2649
11047SOL    HW134049   4.836   2.002   5.024  1.5146 -0.7380 -1.9704
11047SOL    HW234050   4.699   2.045   4.976  1.0305  0.7007  0.5095
11048SOL     OW34051   0.990   3.940   4.865 -0.2420  0.5373 -0.2018
11048SOL    HW134052   1.060   3.901   4.917 -0.9377 -1.2404 -0.5252
11048SOL    HW234053   1.031   3.964   4.782  0.0710 -0.0705 -0.2216
11049SOL     OW34054   5.118   1.762   0.271  0.0285 -0.7597  0.1046
11049SOL    HW134055   5.138   1.793   0.183 -0.7939  0.3455  0.2890
11049SOL    HW234056   5.033   1.800   0.291  0.2723 -0.8747  1.4461
11050SOL     OW34057   4.737   5.883   6.704 -0.2995 -0.4162  0.3855
11050SOL    HW134058   4.795   5.959   6.717 -0.3991 -0.2593 -0.0647
11050SOL    HW234059   4.719   5.883   6.610 -1.0411 -0.4565  0.5224
11051SOL     OW34060   1.229   6.485   3.379 -0.0987 -0.2647  0.2129
11051SOL    HW134061   1.260   6.514   3.293 -0.0436  1.9166  0.9174
11051SOL    HW234062   1.309   6.454   3.423  0.0261 -0.5116 -0.1778
11052SOL     OW34063   0.042   3.143   2.619 -0.0669  0.5568  0.2315
11052SOL    HW134064   0.131   3.126   2.649 -0.1944 -0.9548 -0.1924
11052SOL    HW234065   0.044   3.122   2.525 -1.0080 -0.0471  0.3412
11053SOL     OW34066   5.005   2.742   0.141 -0.1143  0.1241  0.1171
11053SOL    HW134067   5.027   2.825   0.098  0.4677 -0.8091 -1.4612
11053SOL    HW234068   4.937   2.704   0.086  1.3206 -1.5427 -0.5736
11054SOL     OW34069   4.884   3.983   7.694  0.2093  0.1139  0.1788
11054SOL    HW134070   4.821   3.953   7.629  0.5664 -1.4671  0.5228
11054SOL    HW234071   4.832   4.032   7.758 -0.5464 -0.4968  0.0413
11055SOL     OW34072   1.205   6.913   0.096  0.2872 -0.3593  0.0796
11055SOL    HW134073   1.270   6.843   0.086  1.8097  0.8247  1.0393
11055SOL    HW234074   1.154   6.887   0.173 -0.6912 -1.5075 -0.9289
11056SOL     OW34075   5.455   2.111   0.895  0.6159 -0.3573 -0.3384
11056SOL    HW134076   5.372   2.155   0.912  0.9338  0.7227 -1.5273
11056SOL    HW234077   5.502   2.168   0.835  2.4196 -0.7292  0.6403
11057SOL     OW34078   3.764   2.000   2.270  0.1820 -0.0254 -0.3878
11057SOL    HW134079   3.853   1.966   2.265  0.0451 -0.3241 -0.8227
11057SOL    HW234080   3.746   2.033   2.182 -0.1424  0.0103 -0.3086
11058SOL     OW34081   1.137   5.707   2.734  0.3133 -0.1570 -0.3545
11058SOL    HW134082   1.171   5.721   2.822  0.5502  0.0959 -0.4852
11058SOL    HW234083   1.150   5.614   2.716  2.7127  0.2743 -1.1442
11059SOL     OW34084   5.197   3.859   2.918  0.3580  0.0581 -0.0960
11059SOL    HW134085   5.209   3.770   2.953  0.7219 -0.2158 -0.9003
11059SOL    HW234086   5.274   3.873   2.863 -2.1660 -1.2484 -4.4189
11060SOL     OW34087   0.633   6.984   7.290  0.1022  0.8758 -0.1075
11060SOL    HW134088   0.596   7.011   7.206  1.7218  1.8558 -0.5341
11060SOL    HW234089   0.591   7.042   7.354 -0.4415  0.7498 -0.3430
11061SOL     OW34090   1.309   6.886   1.914  0.2198 -0.1120 -0.3821
11061SOL    HW134091   1.314   6.976   1.881  0.5800  0.6334  1.5619
11061SOL    HW234092   1.322   6.895   2.009  2.2273 -2.4291 -0.3686
11062SOL     OW34093   1.373   7.481   5.263  0.2504 -0.0386 -0.1632
11062SOL    HW134094   1.407   7.421   5.197 -0.3875 -0.3893 -0.1830
11062SOL    HW234095   1.296   7.436   5.299 -0.5836  0.9994 -0.5704
11063SOL     OW34096   4.220   0.496   6.290 -0.1521  0.0561 -0.6549
11063SOL    HW134097   4.310   0.492   6.322 -0.8376 -2.2855  1.3510
11063SOL    HW234098   4.206   0.413   6.246 -1.5782 -0.0501 -0.0728
11064SOL     OW34099   4.991   1.453   0.295 -0.6449 -0.2166 -0.9991
11064SOL    HW134100   5.060   1.473   0.233  0.4463 -2.1962 -0.5017
11064SOL    HW234101   5.019   1.494   0.377  0.2970 -1.5360 -0.6363
11065SOL     OW34102   3.731   2.067   5.841  0.1354  0.1244  0.2901
11065SOL    HW134103   3.647   2.102   5.813 -0.1460 -0.5573  0.2514
11065SOL    HW234104   3.740   2.095   5.932 -0.4328 -0.3272  0.4928
11066SOL     OW34105   5.051   3.548   5.607  0.6679  0.1552 -1.1333
11066SOL    HW134106   4.991   3.608   5.650  1.5001  0.3545 -0.2073
11066SOL    HW234107   5.040   3.566   5.513  0.1756  1.0317 -0.9145
11067SOL     OW34108   4.968   3.543   1.837  0.0608  0.2910 -0.6032
11067SOL    HW134109   5.027   3.606   1.878 -0.0359  0.0990 -0.1699
11067SOL    HW234110   4.897   3.596   1.801  1.0584  0.6636 -2.1645
11068SOL     OW34111   0.705   4.281   4.104 -0.2618 -0.0831  0.2954
11068SOL    HW134112   0.623   4.252   4.143 -0.3275  0.0687  0.2733
11068SOL    HW234113   0.712   4.232   4.022 -0.0511 -0.5107  0.5661
11069SOL     OW34114   7.581   7.102   0.970  0.3048 -0.2560  0.1714
11069SOL    HW134115   7.521   7.165   0.931  0.9692  0.4046  0.1942
11069SOL    HW234116   7.668   7.139   0.956  0.6582 -0.7783  0.8847
11070SOL     OW34117   3.079   1.708   7.572  0.6380  0.1924 -0.4117
11070SOL    HW134118   3.132   1.668   7.640  0.6279 -1.1098 -1.1213
11070SOL    HW234119   3.008   1.752   7.619  1.0441 -0.0537  0.4443
11071SOL     OW34120   6.570   4.793   6.285  0.0059 -0.1103 -0.9650
11071SOL    HW134121   6.630   4.859   6.318  0.6046 -1.5814  1.1012
11071SOL    HW234122   6.506   4.782   6.355  0.0325 -1.8109 -1.1719
11072SOL     OW34123   6.295   3.395   2.923 -0.0212  0.3262 -0.1589
11072SOL    HW134124   6.229   3.460   2.947  0.3539  0.6036  0.1323
11072SOL    HW234125   6.316   3.351   3.005 -2.2055 -2.0252 -0.7332
11073SOL     OW34126   4.231   1.902   1.483  0.3961  0.5759 -0.7037
11073SOL    HW134127   4.178   1.836   1.527 -0.4154  2.0293  0.6159
11073SOL    HW234128   4.289   1.936   1.551 -0.1075  2.1046 -0.9842
11074SOL     OW34129   2.012   4.562   2.407  0.6231 -0.3208 -0.1153
11074SOL    HW134130   2.093   4.550   2.356  1.9146  1.8437  1.2569
11074SOL    HW234131   2.025   4.507   2.485 -0.1002 -1.4254 -0.7493
11075SOL     OW34132   2.479   6.111   1.198 -0.1733 -0.4226  0.3780
11075SOL    HW134133   2.466   6.077   1.109  2.4441 -0.3600 -0.1076
11075SOL    HW234134   2.473   6.034   1.254  1.9577 -1.1962 -0.3320
11076SOL     OW34135   0.212   4.908   6.080 -0.4514  0.2191  0.4103
11076SOL    HW134136   0.189   4.909   5.987  0.4064 -0.3152  0.1841
11076SOL    HW234137   0.234   4.817   6.098  0.4176  0.5164  0.8773
11077SOL     OW34138   4.903   4.289   5.362  0.6532 -0.5689  0.0193
11077SOL    HW134139   4.862   4.348   5.426  1.3423 -0.7989  0.6889
11077SOL    HW234140   4.834   4.227   5.339  0.7859 -1.4553  1.7518
11078SOL     OW34141   4.264   4.010   1.181 -0.2516 -0.0184 -0.2375
11078SOL    HW134142   4.177   3.974   1.162  0.0796 -1.8962  1.5136
11078SOL    HW234143   4.315   3.990   1.103 -0.2800 -2.8396  0.3944
11079SOL     OW34144   5.679   5.174   3.022 -0.1372  0.4775 -0.3264
11079SOL    HW134145   5.748   5.127   2.974 -1.0398 -0.6035 -0.5901
11079SOL    HW234146   5.658   5.249   2.966 -1.4178 -0.9464 -1.8651
11080SOL     OW34147   2.930   0.178   4.174  0.4602  0.0690 -0.2317
11080SOL    HW134148   2.902   0.124   4.248  0.1170 -1.0001 -1.1088
11080SOL    HW234149   2.990   0.242   4.212  0.0399 -0.2526  1.0138
11081SOL     OW34150   5.853   6.784   3.873 -0.7120  0.1944 -0.0658
11081SOL    HW134151   5.910   6.708   3.889 -0.9301 -0.3388 -1.6810
11081SOL    HW234152   5.914   6.854   3.849 -0.5957  0.2290  0.3147
11082SOL     OW34153   0.973   5.958   6.310  0.1313 -0.1814 -0.4559
11082SOL    HW134154   0.915   5.962   6.234  0.6887  0.1877 -0.8640
11082SOL    HW234155   0.954   6.037   6.359 -1.3498 -1.1525  0.6344
11083SOL     OW34156   7.218   5.199   0.029  0.3547 -0.0539 -0.2660
11083SOL    HW134157   7.307   5.214  -0.005  0.9573 -0.2186  1.1565
11083SOL    HW234158   7.225   5.220   0.122 -1.4817  1.4034 -0.4063
11084SOL     OW34159   5.447   2.622   5.967  0.4769  0.0374  0.1481
11084SOL    HW134160   5.376   2.591   6.023  0.8984  0.7958  1.1479
11084SOL    HW234161   5.403   2.667   5.895 -0.0697 -0.0652  0.4086
11085SOL     OW34162   3.034   0.067   1.076 -0.0271  0.0819  0.3187
11085SOL    HW134163   2.951   0.039   1.117 -0.1242  0.3800  0.3267
11085SOL    HW234164   3.021   0.050   0.983 -0.7060  1.6027  0.1123
11086SOL     OW34165   4.257   4.680   5.101 -0.2395 -0.6153 -0.2679
11086SOL    HW134166   4.226   4.721   5.020 -0.9665  1.8931  1.1948
11086SOL    HW234167   4.178   4.650   5.145  0.2504 -3.6296 -1.1807
11087SOL     OW34168   2.864   5.490   0.068  0.1683 -0.6331 -0.1307
11087SOL    HW134169   2.935   5.427   0.076  0.1665 -0.6162  0.0241
11087SOL    HW234170   2.811   5.458  -0.005 -0.1008 -1.0797  0.2521
11088SOL     OW34171   5.443   2.358   6.202 -0.2009 -0.2069  0.0310
11088SOL    HW134172   5.451   2.414   6.125 -2.0872  1.1519  0.7418
11088SOL    HW234173   5.444   2.419   6.276  0.5127 -1.3843  1.0195
11089SOL     OW34174   6.601   5.613   2.271 -0.2310 -0.0175 -0.1823
11089SOL    HW134175   6.516   5.656   2.265 -0.2184  0.0978  0.4437
11089SOL    HW234176   6.634   5.635   2.358 -0.1912 -1.2183  0.1317
11090SOL     OW34177   1.094   1.832   5.061  0.2199  0.5494  0.0816
11090SOL    HW134178   1.168   1.773   5.075 -0.6130 -0.5601 -0.0381
11090SOL    HW234179   1.021   1.774   5.037 -0.2590  1.7640 -1.5216
11091SOL     OW34180   1.552   1.319   5.188 -0.1902  0.2018  0.2991
11091SOL    HW134181   1.508   1.238   5.214 -0.6139 -0.0880 -1.1649
11091SOL    HW234182   1.626   1.327   5.248  1.8405 -3.0241 -1.4433
11092SOL     OW34183   7.541   6.405   1.931 -0.0959 -0.0539  0.2435
11092SOL    HW134184   7.573   6.491   1.903 -0.3356  0.7690  2.2753
11092SOL    HW234185   7.463   6.426   1.984 -0.8818 -1.6297 -0.2375
11093SOL     OW34186   0.922   4.827   1.360 -0.3587  0.1460  0.1431
11093SOL    HW134187   0.891   4.758   1.419  1.8884  0.0340  1.2676
11093SOL    HW234188   0.845   4.884   1.348 -1.5842 -1.2373  1.0853
11094SOL     OW34189   4.711   0.297   7.725  0.3939  0.3154  0.6338
11094SOL    HW134190   4.799   0.310   7.692  0.3177 -0.4423  0.1272
11094SOL    HW234191   4.691   0.379   7.771  0.2357  1.7184 -1.7717
11095SOL     OW34192   2.298   0.818   0.260  0.1066 -0.4709  0.7903
11095SOL    HW134193   2.210   0.784   0.277 -0.5772 -0.3581 -2.0168
11095SOL    HW234194   2.352   0.740   0.250 -1.0925 -1.0077 -3.8072
11096SOL     OW34195   3.605   5.989   3.492  0.1056 -0.2238  0.2365
11096SOL    HW134196   3.680   6.042   3.518  0.9584 -1.7773  1.0668
11096SOL    HW234197   3.564   5.962   3.574  0.4129 -1.8129 -0.0859
11097SOL     OW34198   2.440   5.921   4.876  0.1769  0.3744 -0.2540
11097SOL    HW134199   2.507   5.891   4.938  0.1975 -0.9688 -0.8890
11097SOL    HW234200   2.464   6.011   4.857  0.6539  0.5437  1.0447
11098SOL     OW34201   2.815   0.474   4.746 -0.2260  0.2806 -0.0948
11098SOL    HW134202   2.763   0.549   4.718 -0.1451  0.7930  1.0632
11098SOL    HW234203   2.829   0.488   4.840 -0.4509 -1.3316  0.2126
11099SOL     OW34204   0.748   7.387   6.191 -0.8416 -0.0131 -0.2463
11099SOL    HW134205   0.715   7.449   6.255  1.2924  0.6155  0.3098
11099SOL    HW234206   0.758   7.438   6.111 -4.1259 -0.9391 -1.4123
11100SOL     OW34207   5.713   2.939   0.490 -0.0566  0.3630 -0.0457
11100SOL    HW134208   5.719   2.956   0.396 -0.7831  0.5748 -0.0618
11100SOL    HW234209   5.731   3.023   0.532 -3.8628  1.4261 -0.1307
11101SOL     OW34210   7.072   6.718   4.392  0.2425 -0.1052 -0.0886
11101SOL    HW134211   7.153   6.724   4.441  1.2085  2.5657 -1.7772
11101SOL    HW234212   7.008   6.766   4.444  0.6332  0.6259 -0.2678
11102SOL     OW34213   7.067   2.128   5.332 -0.3823 -0.0372  0.4050
11102SOL    HW134214   6.987   2.089   5.297 -1.2457  1.9174  0.0845
11102SOL    HW234215   7.046   2.146   5.424 -1.4074  3.0315 -0.3337
11103SOL     OW34216   2.146   4.884   3.297 -0.2297 -0.0526 -0.6255
11103SOL    HW134217   2.195   4.803   3.282 -2.1113 -1.0713 -1.5794
11103SOL    HW234218   2.177   4.916   3.382  0.4564 -1.8416 -0.1639
11104SOL     OW34219   5.648   7.338   2.915 -0.0831 -0.2838 -0.1297
11104SOL    HW134220   5.667   7.398   2.843  1.4920 -0.0907  0.4085
11104SOL    HW234221   5.624   7.256   2.873 -2.0246  0.5972 -0.8820
11105SOL     OW34222   7.048   7.613   5.799  0.0304  0.2730 -0.1567
11105SOL    HW134223   6.980   7.665   5.758 -1.0115 -0.3089  0.7688
11105SOL    HW234224   7.118   7.609   5.734 -1.8390 -1.2865 -2.2617
11106SOL     OW34225   6.192   0.091   5.017  0.0099 -0.5690 -0.2181
11106SOL    HW134226   6.201   0.132   5.103  1.1064 -1.6602  0.2329
11106SOL    HW234227   6.246   0.144   4.959 -1.9148  1.0529 -0.6021
11107SOL     OW34228   6.826   1.842   2.466  0.2691 -0.3249 -0.1069
11107SOL    HW134229   6.805   1.934   2.449  0.5207 -0.2204  0.1324
11107SOL    HW234230   6.751   1.809   2.515 -0.5833 -0.7021 -1.6104
11108SOL     OW34231   0.470   1.647   3.168  0.7766 -0.2429  0.5121
11108SOL    HW134232   0.401   1.709   3.192 -0.7805 -2.0298  0.8254
11108SOL    HW234233   0.458   1.634   3.074  0.0613 -1.2537  0.7309
11109SOL     OW34234   0.822   4.448   6.728 -0.2146 -0.6797 -0.0746
11109SOL    HW134235   0.864   4.499   6.797 -0.4283  0.3779 -0.7043
11109SOL    HW234236   0.728   4.458   6.745 -0.2919  0.1298 -0.8647
11110SOL     OW34237   4.897   6.045   1.612  0.3857 -0.0394 -0.5131
11110SOL    HW134238   4.845   5.966   1.605  1.5421 -0.8308 -0.5047
11110SOL    HW234239   4.853   6.099   1.678 -1.2279 -0.0056 -1.5805
11111SOL     OW34240   6.105   0.677   6.832  0.0629 -0.3176 -0.1626
11111SOL    HW134241   6.119   0.758   6.881  1.9996  0.0058 -1.1646
11111SOL    HW234242   6.149   0.610   6.885  0.3274 -0.3286 -0.3928
11112SOL     OW34243   1.686   7.665   3.097  0.3598  0.2235 -0.0270
11112SOL    HW134244   1.756   7.619   3.050 -0.7165 -0.5198 -0.9748
11112SOL    HW234245   1.613   7.664   3.036 -0.1833  1.8652  0.5625
11113SOL     OW34246   7.153   5.462   6.655  0.0669  0.2026  0.2694
11113SOL    HW134247   7.139   5.518   6.578  0.1264  1.0899  0.8915
11113SOL    HW234248   7.138   5.519   6.730  1.1816 -0.3412  0.9363
11114SOL     OW34249   1.830   6.172   0.863 -0.1169 -0.0946 -0.5360
11114SOL    HW134250   1.873   6.250   0.829  0.8664 -0.3690  0.0526
11114SOL    HW234251   1.868   6.100   0.813 -1.7428 -0.1413 -1.7870
11115SOL     OW34252   1.401   1.814   6.716 -0.5032 -0.9570 -0.5519
11115SOL    HW134253   1.334   1.752   6.687 -1.5348 -0.3191  0.4406
11115SOL    HW234254   1.463   1.760   6.764 -2.3505 -1.0215  1.9203
11116SOL     OW34255   6.708   2.987   0.678  0.3265  0.0538 -0.0538
11116SOL    HW134256   6.629   3.024   0.637 -0.1669 -0.2753  0.5857
11116SOL    HW234257   6.763   2.961   0.605 -1.5663 -2.7912 -0.6184
11117SOL     OW34258   4.623   0.354   1.728 -0.2012  0.2790 -0.0105
11117SOL    HW134259   4.605   0.371   1.820  3.7416 -0.7160  1.1135
11117SOL    HW234260   4.664   0.268   1.726 -1.7803 -0.5735 -3.0202
11118SOL     OW34261   5.260   3.687   0.829  0.2009  0.0859 -0.5998
11118SOL    HW134262   5.321   3.735   0.885  0.0559 -0.1766 -0.2059
11118SOL    HW234263   5.249   3.743   0.752  1.2609 -0.0679 -0.8700
11119SOL     OW34264   2.888   5.428   5.803  0.3333  0.6514 -0.1078
11119SOL    HW134265   2.935   5.511   5.793 -1.3629  1.5114 -1.2812
11119SOL    HW234266   2.949   5.372   5.852  1.5525  2.5337  0.6374
11120SOL     OW34267   7.425   3.152   4.515 -0.1497  0.0733  0.2554
11120SOL    HW134268   7.388   3.118   4.434  2.7455 -1.8322 -0.4368
11120SOL    HW234269   7.489   3.217   4.487  0.9647 -0.6841  0.9193
11121SOL     OW34270   0.273   5.459   3.693  0.0989  0.2258 -0.3473
11121SOL    HW134271   0.235   5.547   3.685 -0.1161  0.1652 -0.0300
11121SOL    HW234272   0.340   5.455   3.625 -1.4224 -0.1630 -1.8871
11122SOL     OW34273   7.092   0.560   7.541  0.2430  0.9965 -0.7099
11122SOL    HW134274   7.184   0.562   7.516  0.3378 -0.4521 -0.5366
11122SOL    HW234275   7.054   0.637   7.498  1.3075  1.0265 -1.6339
11123SOL     OW34276   0.522   7.689   5.331  0.1871 -0.3270 -0.1706
11123SOL    HW134277   0.494   7.750   5.263  1.3774 -1.0232 -1.3136
11123SOL    HW234278   0.617   7.699   5.335  0.0018  1.6554  3.3094
11124SOL     OW34279   7.446   0.381   3.383 -0.3244 -0.0203 -0.4649
11124SOL    HW134280   7.430   0.325   3.459 -1.8304  1.3609  0.3247
11124SOL    HW234281   7.536   0.362   3.357 -0.5248 -2.1761  0.2430
11125SOL     OW34282   7.487   2.543   6.696 -0.0989  0.4524 -0.0623
11125SOL    HW134283   7.437   2.470   6.732  0.5064 -0.4091 -0.9190
11125SOL    HW234284   7.425   2.616   6.697 -0.7279 -0.0656  0.7803
11126SOL     OW34285   0.346   0.620   6.474  0.9593  0.4640  0.2413
11126SOL    HW134286   0.431   0.648   6.507  0.7776  0.0036  1.1060
11126SOL    HW234287   0.358   0.528   6.452  0.6311  0.3489  0.5436
11127SOL     OW34288   6.779   3.939   2.349 -0.1943  0.4016 -0.3605
11127SOL    HW134289   6.745   3.896   2.428  0.2837  0.0313 -0.3479
11127SOL    HW234290   6.825   3.869   2.302  0.8218  0.9536 -0.2131
11128SOL     OW34291   6.001   4.857   4.326 -0.0721  0.0468 -0.2259
11128SOL    HW134292   5.934   4.858   4.394 -1.4802  0.3749 -1.5636
11128SOL    HW234293   6.015   4.764   4.307 -0.6800 -0.0059 -0.4295
11129SOL     OW34294   6.039   2.531   4.532  0.7232  0.0341 -0.3719
11129SOL    HW134295   6.083   2.448   4.549 -1.5489 -1.6334 -1.9847
11129SOL    HW234296   6.009   2.561   4.618 -0.1437 -1.9223  0.0677
11130SOL     OW34297   4.722   6.294   5.617 -0.9905 -0.1022 -0.3004
11130SOL    HW134298   4.780   6.261   5.549 -1.3384 -1.3531 -0.0095
11130SOL    HW234299   4.660   6.223   5.633 -1.4209  0.4808  0.7464
11131SOL     OW34300   4.965   3.645   3.323 -0.1526 -0.4735  0.0803
11131SOL    HW134301   4.976   3.722   3.379  1.7653 -1.8619  1.7646
11131SOL    HW234302   4.877   3.655   3.285 -1.2785  0.9145  2.7807
11132SOL     OW34303   2.027   3.392   0.362 -0.3415  0.2263  0.4263
11132SOL    HW134304   1.934   3.409   0.380 -0.7552 -1.6406  0.2807
11132SOL    HW234305   2.047   3.312   0.411  1.0185  0.2645 -0.0226
11133SOL     OW34306   4.817   2.835   4.649  0.9049 -0.2894 -0.0034
11133SOL    HW134307   4.867   2.755   4.668  0.2834 -0.4982  0.8258
11133SOL    HW234308   4.876   2.906   4.672  0.4800 -0.5342  2.0379
11134SOL     OW34309   1.973   2.602   4.667  0.2278  0.5536  0.0638
11134SOL    HW134310   2.009   2.681   4.708  1.0134  0.6751 -0.8071
11134SOL    HW234311   2.051   2.551   4.643 -0.0569  1.3055 -2.8530
11135SOL     OW34312   3.809   4.831   3.682 -0.1917  0.5598  0.1940
11135SOL    HW134313   3.801   4.915   3.727  1.6408 -0.5401  2.8689
11135SOL    HW234314   3.860   4.850   3.604 -1.7781  2.2596 -0.4826
11136SOL     OW34315   1.399   2.810   3.142  0.4032  0.4444 -0.0053
11136SOL    HW134316   1.362   2.897   3.157  0.8533  0.6485 -0.0516
11136SOL    HW234317   1.432   2.814   3.053 -0.6376 -0.1716 -0.4362
11137SOL     OW34318   6.543   0.449   5.250 -0.5545 -0.6525 -0.5880
11137SOL    HW134319   6.587   0.411   5.326 -1.9379 -0.0022  0.6013
11137SOL    HW234320   6.531   0.542   5.273 -2.5493 -0.8127 -0.7924
11138SOL     OW34321   2.362   7.061   2.343  0.0166 -0.0720  0.1303
11138SOL    HW134322   2.427   7.129   2.329 -0.4280  0.4437  0.5455
11138SOL    HW234323   2.406   6.995   2.396  0.8007 -0.6515 -1.1860
11139SOL     OW34324   1.435   7.526   0.356  0.3362  0.4211  0.1556
11139SOL    HW134325   1.430   7.559   0.266 -2.3475 -0.5719 -0.1582
11139SOL    HW234326   1.433   7.431   0.347 -0.8118  0.3022  1.2400
11140SOL     OW34327   4.156   6.674   6.054 -0.8052 -0.1002 -0.1955
11140SOL    HW134328   4.196   6.752   6.093 -2.0897 -0.1791  1.4024
11140SOL    HW234329   4.170   6.684   5.960  2.1387  0.2891  0.1978
11141SOL     OW34330   2.486   5.276   5.399 -0.4587 -0.0557  0.0747
11141SOL    HW134331   2.565   5.249   5.353 -0.3250 -0.5957  0.5986
11141SOL    HW234332   2.516   5.293   5.489 -1.2703 -2.3856  0.8606
11142SOL     OW34333   2.712   3.234   2.495  0.2287 -0.0390 -0.0649
11142SOL    HW134334   2.729   3.153   2.544  2.1083 -0.1689 -0.8441
11142SOL    HW234335   2.743   3.303   2.554 -0.6895  0.0733  0.2980
11143SOL     OW34336   1.585   4.065   0.639  0.0701  0.0619 -0.0011
11143SOL    HW134337   1.618   4.020   0.561  0.6682  1.7345 -0.7538
11143SOL    HW234338   1.530   4.135   0.604 -0.7314  0.0216  1.1424
11144SOL     OW34339   6.059   6.335   3.442  0.2079  0.0230  0.2618
11144SOL    HW134340   6.098   6.272   3.504 -2.7574 -1.3931  0.8837
11144SOL    HW234341   6.068   6.293   3.357  0.9297  0.2131  0.2347
11145SOL     OW34342   6.314   5.082   6.362  0.5847 -0.0048  0.0406
11145SOL    HW134343   6.326   4.994   6.397 -1.4281  0.0555  0.9810
11145SOL    HW234344   6.381   5.135   6.407  0.1958 -0.5855  1.3516
11146SOL     OW34345   2.814   3.331   4.630  0.2916  0.1483 -0.1009
11146SOL    HW134346   2.879   3.359   4.566  0.2074  1.5504  0.3897
11146SOL    HW234347   2.863   3.279   4.693  0.7447  0.3530 -0.2835
11147SOL     OW34348   2.194   5.316   4.165  0.2606  0.0783 -0.2171
11147SOL    HW134349   2.108   5.329   4.203  0.3365  1.4486 -0.4602
11147SOL    HW234350   2.203   5.221   4.158 -1.4638 -0.0829 -0.7321
11148SOL     OW34351   2.254   1.615   6.629  0.4083  0.2494  0.0185
11148SOL    HW134352   2.262   1.541   6.569  2.3153  0.4893 -0.0836
11148SOL    HW234353   2.232   1.690   6.573  2.0528  0.4469 -0.4087
11149SOL     OW34354   2.814   3.220   0.191 -0.0363  0.0210  0.5483
11149SOL    HW134355   2.897   3.180   0.166 -1.2152 -2.4555  0.2931
11149SOL    HW234356   2.789   3.273   0.115  1.1471  0.5589  0.5150
11150SOL     OW34357   4.390   5.212   4.556 -0.5051  0.1526  0.5338
11150SOL    HW134358   4.322   5.193   4.491  0.6292  0.3662 -0.7823
11150SOL    HW234359   4.374   5.304   4.580 -0.5084  0.3044 -0.0155
11151SOL     OW34360   7.087   5.828   0.366  0.1134  0.1721 -0.3519
11151SOL    HW134361   7.180   5.845   0.381  0.6422 -2.2283 -0.4623
11151SOL    HW234362   7.049   5.825   0.453  0.1260  1.1361 -0.3040
11152SOL     OW34363   0.840   2.351   3.573 -0.3320 -0.4172 -0.0554
11152SOL    HW134364   0.762   2.364   3.519 -0.4470  1.2552  0.4718
11152SOL    HW234365   0.823   2.269   3.620 -2.1863  0.3651  0.7265
11153SOL     OW34366   1.992   0.248   1.194  0.6447 -0.1365 -0.0779
11153SOL    HW134367   2.072   0.200   1.177  0.6394 -0.5366  0.9114
11153SOL    HW234368   2.020   0.337   1.216  1.0541 -0.8150  2.4925
11154SOL     OW34369   2.751   1.444   0.148  0.5526 -0.0637 -0.0553
11154SOL    HW134370   2.743   1.398   0.064  0.2338  0.1034 -0.1158
11154SOL    HW234371   2.842   1.428   0.175  0.4544 -0.7070 -0.0869
11155SOL     OW34372   4.839   0.353   4.307  0.2755  0.1149 -0.0429
11155SOL    HW134373   4.760   0.337   4.359 -0.4523 -1.7779 -1.6048
11155SOL    HW234374   4.816   0.429   4.252  0.0219  0.3701  0.4058
11156SOL     OW34375   4.424   5.097   5.814  0.8549 -0.7409  0.1685
11156SOL    HW134376   4.396   5.145   5.892  1.3753 -1.5416  0.8738
11156SOL    HW234377   4.353   5.109   5.751  0.2827 -0.3392  0.8761
11157SOL     OW34378   7.417   5.751   7.665  0.0772  0.0047  0.2815
11157SOL    HW134379   7.447   5.745   7.755 -1.3404  0.5597  0.8271
11157SOL    HW234380   7.376   5.667   7.647  0.1730 -0.0298  0.2238
11158SOL     OW34381   3.300   1.884   3.748  0.5489 -0.0983  0.1421
11158SOL    HW134382   3.337   1.813   3.800 -0.7117 -0.6056  0.3905
11158SOL    HW234383   3.215   1.902   3.788 -0.9796 -1.2446 -2.3015
11159SOL     OW34384   7.074   2.123   0.200 -0.3131  0.5830  0.2075
11159SOL    HW134385   7.078   2.190   0.268  1.2444  0.5534  0.1794
11159SOL    HW234386   7.068   2.040   0.248  0.9982  0.5479  0.3385
11160SOL     OW34387   2.885   2.620   6.315 -0.1557 -0.3813  0.5183
11160SOL    HW134388   2.890   2.606   6.220  0.3040  1.9073  0.1392
11160SOL    HW234389   2.796   2.596   6.338 -1.4935  2.3577 -1.2250
11161SOL     OW34390   3.733   2.235   3.945  0.4635 -0.0717 -0.5494
11161SOL    HW134391   3.681   2.162   3.913  0.4641 -0.1337 -0.4090
11161SOL    HW234392   3.676   2.279   4.009  0.6731 -0.2797 -0.2201
11162SOL     OW34393   6.010   5.632   0.034  0.0290 -0.0096 -0.0963
11162SOL    HW134394   6.053   5.548   0.024 -1.1434 -0.7654  0.9123
11162SOL    HW234395   6.035   5.682  -0.044 -0.0036 -1.6278 -1.1810
11163SOL     OW34396   6.814   5.105   7.548 -0.1022  0.1018 -0.3075
11163SOL    HW134397   6.869   5.098   7.626 -1.7746 -1.1192  0.8313
11163SOL    HW234398   6.874   5.136   7.479  1.2847  1.8437  1.5633
11164SOL     OW34399   6.323   4.308   6.393  0.3283 -0.6130  0.0546
11164SOL    HW134400   6.350   4.387   6.346 -1.1052 -1.0756 -1.6753
11164SOL    HW234401   6.338   4.328   6.485 -1.7139  2.4554 -0.1267
11165SOL     OW34402   0.306   4.382   2.640  0.3887  0.4046 -0.5934
11165SOL    HW134403   0.234   4.338   2.595  0.5980  1.1622 -1.6874
11165SOL    HW234404   0.264   4.431   2.710 -0.1274  0.6078 -1.0419
11166SOL     OW34405   3.500   1.254   1.769  0.4107 -0.4159  0.0944
11166SOL    HW134406   3.506   1.191   1.841 -0.1016  0.3736  0.8511
11166SOL    HW234407   3.471   1.335   1.811  1.2075  0.3773 -0.8274
11167SOL     OW34408   0.750   0.100   7.037 -0.6287  0.5013  0.5627
11167SOL    HW134409   0.793   0.132   6.958 -0.1351 -2.0585 -0.2991
11167SOL    HW234410   0.817   0.107   7.105  0.5038 -1.4394 -0.2946
11168SOL     OW34411   5.954   3.033   2.388 -0.1658  0.2316  0.2978
11168SOL    HW134412   5.868   3.025   2.346  0.4964  0.2624 -1.1517
11168SOL    HW234413   5.996   3.105   2.341  0.9948 -0.3994  0.3465
11169SOL     OW34414   3.211   4.334   0.325 -0.5447  0.5642 -0.4028
11169SOL    HW134415   3.164   4.411   0.292 -2.2504 -0.7298 -1.1879
11169SOL    HW234416   3.198   4.337   0.420  0.4962  1.8853 -0.2736
11170SOL     OW34417   5.537   0.790   4.360  0.6689 -0.2828  0.1673
11170SOL    HW134418   5.459   0.810   4.412 -0.4222 -1.0593 -1.1136
11170SOL    HW234419   5.610   0.818   4.415 -0.4956  0.2913  1.4830
11171SOL     OW34420   7.122   6.087   3.991  0.1925 -0.3061 -0.1991
11171SOL    HW134421   7.030   6.099   4.014  0.2323 -0.3885  0.0066
11171SOL    HW234422   7.151   6.174   3.964 -0.4226 -0.6385 -2.0172
11172SOL     OW34423   1.010   4.826   7.058 -0.1339 -0.2324 -0.6671
11172SOL    HW134424   1.102   4.800   7.055 -0.3563 -1.1017 -0.1852
11172SOL    HW234425   1.013   4.921   7.067  0.7618 -0.3699  0.9892
11173SOL     OW34426   2.496   0.511   5.100 -0.1440 -0.6750  0.2173
11173SOL    HW134427   2.444   0.586   5.070 -0.6152 -1.3638 -0.7547
11173SOL    HW234428   2.575   0.550   5.136 -1.0300  0.3644  1.1183
11174SOL     OW34429   3.861   4.272   0.503 -0.4516  0.2090  0.5330
11174SOL    HW134430   3.801   4.198   0.512  1.4456 -1.4748 -0.0248
11174SOL    HW234431   3.883   4.274   0.410 -0.7747  1.7765  0.4562
11175SOL     OW34432   6.094   5.143   7.739  0.2902  0.1295 -0.3202
11175SOL    HW134433   6.150   5.181   7.672  1.6926 -1.0381  0.1456
11175SOL    HW234434   6.107   5.048   7.731 -0.6870 -0.1123  0.6077
11176SOL     OW34435   2.507   5.556   3.415 -0.0399 -0.0319 -0.2030
11176SOL    HW134436   2.569   5.554   3.342  0.9553 -0.7231  0.6412
11176SOL    HW234437   2.427   5.593   3.377  0.4920 -0.2690 -1.6135
11177SOL     OW34438   6.154   6.961   5.204  0.0241  0.2533  0.0584
11177SOL    HW134439   6.149   6.904   5.127  1.5143 -0.0158  0.1402
11177SOL    HW234440   6.091   7.031   5.186  0.9184  0.6439 -1.8138
11178SOL     OW34441   5.559   7.101   6.431 -0.2465 -0.0479 -0.1479
11178SOL    HW134442   5.474   7.060   6.417  0.0356  0.0020 -2.4185
11178SOL    HW234443   5.548   7.190   6.397  0.8635 -0.2425 -1.0694
11179SOL     OW34444   6.383   1.358   4.990 -0.0756  0.2677  0.1856
11179SOL    HW134445   6.390   1.320   5.077  0.4762 -0.5006 -0.1844
11179SOL    HW234446   6.310   1.420   4.996 -0.9745 -0.8291  0.8188
11180SOL     OW34447   2.222   6.322   1.026  0.8231  0.4621  0.2374
11180SOL    HW134448   2.186   6.353   1.109  2.2486 -0.2257  1.1433
11180SOL    HW234449   2.225   6.227   1.036  1.2783  0.3973 -0.4910
11181SOL     OW34450   2.335   6.131   1.617  0.7892  0.3178  0.0530
11181SOL    HW134451   2.285   6.120   1.697  1.2462  0.0714  0.3076
11181SOL    HW234452   2.336   6.225   1.601  1.0428  0.3987  0.5559
11182SOL     OW34453   0.198   1.351   1.595  0.2108 -0.0633 -0.4748
11182SOL    HW134454   0.237   1.428   1.635  3.0743 -2.0989  1.0251
11182SOL    HW234455   0.256   1.329   1.523 -0.6574 -0.7136 -0.9975
11183SOL     OW34456   6.204   3.770   3.588  0.2238  0.3463  0.4982
11183SOL    HW134457   6.200   3.866   3.582  1.9753  0.4598  0.7201
11183SOL    HW234458   6.113   3.742   3.582 -0.2843  2.0023 -0.0436
11184SOL     OW34459   6.110   2.543   0.575  0.2772 -0.5140  0.1385
11184SOL    HW134460   6.029   2.594   0.579 -0.4415 -1.1863 -3.1279
11184SOL    HW234461   6.178   2.606   0.601 -1.0641  0.6940  0.8774
11185SOL     OW34462   3.332   5.605   1.606  0.0056  0.1056 -0.0863
11185SOL    HW134463   3.280   5.678   1.571 -0.5314 -1.2911 -2.4456
11185SOL    HW234464   3.420   5.620   1.571  0.0490 -0.0121 -0.0271
11186SOL     OW34465   2.254   3.406   2.223  0.6840  0.0045 -0.2838
11186SOL    HW134466   2.291   3.421   2.136  1.2590 -1.4917 -0.3233
11186SOL    HW234467   2.322   3.358   2.271 -0.9765 -2.5638 -0.2600
11187SOL     OW34468   2.166   0.724   1.306 -0.4360  0.0762  0.2577
11187SOL    HW134469   2.073   0.717   1.284  0.1737  0.4000 -2.8076
11187SOL    HW234470   2.195   0.633   1.316 -1.0699 -0.0235  1.4009
11188SOL     OW34471   3.999   6.441   6.615 -0.9376 -0.4227  0.2604
11188SOL    HW134472   4.023   6.512   6.674 -3.0958  0.6109  0.0037
11188SOL    HW234473   3.988   6.365   6.673  0.5706 -0.3771  0.6460
11189SOL     OW34474   0.008   5.378   3.770  0.3140  0.0803  0.1145
11189SOL    HW134475   0.100   5.375   3.744  0.7263 -0.7247  1.5689
11189SOL    HW234476  -0.002   5.461   3.817 -0.0957  0.8807 -1.3349
11190SOL     OW34477   5.222   0.479   0.602  0.0752 -0.2685 -0.1989
11190SOL    HW134478   5.215   0.442   0.691  0.9063 -0.0710 -0.0421
11190SOL    HW234479   5.207   0.573   0.614  1.9677  0.0593  0.0434
11191SOL     OW34480   2.585   7.652   6.375  0.3844  0.3795  0.2654
11191SOL    HW134481   2.571   7.557   6.374 -1.7545  0.6446 -0.8329
11191SOL    HW234482   2.640   7.669   6.298 -0.7223  0.1843 -0.5913
11192SOL     OW34483   5.202   2.363   5.584 -0.7526 -0.6085  0.0989
11192SOL    HW134484   5.290   2.333   5.609 -0.6575 -0.3463  0.0902
11192SOL    HW234485   5.153   2.362   5.666 -0.6782 -0.5521  0.1457
11193SOL     OW34486   3.613   3.539   7.149  0.3392  0.9021 -0.4222
11193SOL    HW134487   3.568   3.471   7.098 -0.6891  0.7770  0.6124
11193SOL    HW234488   3.694   3.498   7.178  0.4583  0.6425 -1.1133
11194SOL     OW34489   4.091   3.309   4.629  0.0101  0.3649  0.2958
11194SOL    HW134490   4.180   3.333   4.604  0.3921 -1.4506 -0.1863
11194SOL    HW234491   4.043   3.307   4.546 -0.4403  1.1085  0.5264
11195SOL     OW34492   4.847   5.782   0.490 -0.6187  0.2045 -0.2479
11195SOL    HW134493   4.917   5.732   0.450 -1.4513  0.0459 -1.5687
11195SOL    HW234494   4.790   5.716   0.529 -0.9807  0.2041 -0.7684
11196SOL     OW34495   1.694   7.270   0.634 -0.8720  0.3933  0.2765
11196SOL    HW134496   1.691   7.265   0.538 -0.9501 -0.5664  0.3249
11196SOL    HW234497   1.732   7.356   0.652 -1.9382  1.0758 -0.6084
11197SOL     OW34498   5.860   4.487   0.565 -0.1603 -0.2039 -0.2082
11197SOL    HW134499   5.912   4.434   0.504  0.0569 -0.4272  0.1673
11197SOL    HW234500   5.825   4.558   0.511  1.6505  0.7444 -0.1956
11198SOL     OW34501   0.854   7.713   3.857  0.1093 -0.0601 -0.1745
11198SOL    HW134502   0.853   7.639   3.917  0.7723 -0.4921 -0.6745
11198SOL    HW234503   0.934   7.701   3.805 -0.5268  0.2088 -1.2540
11199SOL     OW34504   0.731   7.261   6.917  0.5501  0.0762 -0.3740
11199SOL    HW134505   0.691   7.329   6.971  0.5001  0.7220 -1.2039
11199SOL    HW234506   0.802   7.306   6.870  1.4499 -0.7677  0.1262
11200SOL     OW34507   3.270   3.845   5.190  0.6876  0.0139  0.2373
11200SOL    HW134508   3.360   3.824   5.162  0.6757  0.7292 -0.3659
11200SOL    HW234509   3.225   3.867   5.109  0.0347 -0.0688  0.5751
11201SOL     OW34510   4.620   3.172   5.784  0.4504 -0.1036 -0.0546
11201SOL    HW134511   4.609   3.260   5.747 -0.2434 -0.4348 -0.6485
11201SOL    HW234512   4.552   3.119   5.742  0.3093 -0.7324  0.9299
11202SOL     OW34513   4.147   4.019   0.275 -0.3389  0.0097  0.0391
11202SOL    HW134514   4.197   3.965   0.336 -0.6968  0.9950  1.2516
11202SOL    HW234515   4.056   4.010   0.305 -0.4784  0.7458 -0.1451
11203SOL     OW34516   0.528   4.857   2.508 -0.1067  0.2059  0.7283
11203SOL    HW134517   0.477   4.778   2.527 -1.4547  0.6259 -0.8816
11203SOL    HW234518   0.543   4.853   2.414  1.5508  0.9048  0.9313
11204SOL     OW34519   0.081   1.272   0.684  0.1767  0.1362  0.0137
11204SOL    HW134520   0.132   1.316   0.753  1.0173 -1.0044  0.1493
11204SOL    HW234521   0.145   1.251   0.617 -0.4740  0.3683 -0.6893
11205SOL     OW34522   1.280   4.398   1.189 -0.3830 -0.6905 -0.4432
11205SOL    HW134523   1.202   4.399   1.245 -2.0550 -2.0282 -2.6149
11205SOL    HW234524   1.336   4.331   1.228 -0.4664 -0.0299  0.8811
11206SOL     OW34525   7.476   6.370   3.069  0.2285 -0.1890 -0.2086
11206SOL    HW134526   7.552   6.422   3.097  0.6275 -0.9025  0.0721
11206SOL    HW234527   7.422   6.431   3.020  0.8526  0.4055 -0.1757
11207SOL     OW34528   3.861   4.859   3.404 -1.1740 -0.3876 -0.1506
11207SOL    HW134529   3.927   4.918   3.440 -1.1916 -0.8088  0.5610
11207SOL    HW234530   3.781   4.913   3.400 -1.3216 -0.5062  0.9890
11208SOL     OW34531   1.775   3.881   7.347 -0.3448  0.2481 -0.1528
11208SOL    HW134532   1.743   3.960   7.389  1.1346  0.9270 -0.2170
11208SOL    HW234533   1.742   3.809   7.401 -0.1448  1.0081  1.0064
11209SOL     OW34534   5.936   1.613   0.272 -0.6169  0.9065 -0.0763
11209SOL    HW134535   5.984   1.686   0.311  1.6110  0.3265 -1.5493
11209SOL    HW234536   5.967   1.609   0.181 -1.5168 -1.1732 -0.3624
11210SOL     OW34537   7.487   3.448   0.024 -0.0062  0.4186  0.2473
11210SOL    HW134538   7.480   3.506  -0.051  0.2402 -0.0146 -0.1168
11210SOL    HW234539   7.578   3.420   0.024 -0.1192  0.0453  0.4276
11211SOL     OW34540   0.351   2.345   1.297  0.2357  0.5838 -0.0914
11211SOL    HW134541   0.263   2.377   1.320  0.9534  1.5287  1.5336
11211SOL    HW234542   0.410   2.393   1.355  1.8694  0.1118 -1.2821
11212SOL     OW34543   7.637   3.956   0.304  0.0069 -0.2129 -0.1682
11212SOL    HW134544   7.633   3.913   0.219 -1.1346  0.9915 -0.7486
11212SOL    HW234545   7.629   4.049   0.285  0.5432  0.1424  1.2047
11213SOL     OW34546   2.134   7.109   1.373 -0.1875 -0.0121 -0.1430
11213SOL    HW134547   2.194   7.095   1.447 -1.8394 -0.9749  1.0786
11213SOL    HW234548   2.118   7.203   1.373  1.8270  0.3782 -0.9411
11214SOL     OW34549   6.179   3.572   4.025 -0.1026 -0.0644  0.6830
11214SOL    HW134550   6.172   3.627   4.103 -0.7305 -0.5548  0.9818
11214SOL    HW234551   6.091   3.535   4.014 -0.5823  1.4211 -1.3030
11215SOL     OW34552   4.440   2.837   1.644 -0.2928  0.1262  0.3815
11215SOL    HW134553   4.345   2.848   1.640 -0.2247  0.4369 -0.4901
11215SOL    HW234554   4.476   2.912   1.596  0.3145 -1.1678 -1.2732
11216SOL     OW34555   2.763   0.762   6.476 -0.3689 -0.4069 -0.0673
11216SOL    HW134556   2.671   0.771   6.502 -0.6298 -0.1368 -1.0551
11216SOL    HW234557   2.784   0.670   6.495  0.0304  0.1984  2.8302
11217SOL     OW34558   4.371   0.658   1.262 -0.1296  0.2742  0.6175
11217SOL    HW134559   4.356   0.564   1.263  1.4117  0.0010  0.5934
11217SOL    HW234560   4.461   0.668   1.231 -0.2215  1.7541  0.7266
11218SOL     OW34561   5.408   1.829   6.256  0.4023  0.5129 -0.3007
11218SOL    HW134562   5.371   1.911   6.289  1.1383  1.1403 -0.9695
11218SOL    HW234563   5.360   1.760   6.301  0.9869  1.3104  1.6386
11219SOL     OW34564   7.266   5.038   0.772 -0.2161 -0.2268  0.0583
11219SOL    HW134565   7.242   4.949   0.797 -0.7737  0.0920  0.6990
11219SOL    HW234566   7.226   5.051   0.686 -0.3423 -0.5172  0.0734
11220SOL     OW34567   4.650   5.649   3.626  0.4685 -0.5490  0.7907
11220SOL    HW134568   4.706   5.723   3.601  0.5097 -0.4095  1.2899
11220SOL    HW234569   4.659   5.588   3.553 -0.1230  0.2321  0.0293
11221SOL     OW34570   2.801   0.014   7.501  0.0926  0.2802  0.3931
11221SOL    HW134571   2.894   0.008   7.520 -0.1294 -1.7477  1.0272
11221SOL    HW234572   2.759   0.011   7.586 -0.5710  1.1196  0.1087
11222SOL     OW34573   4.756   3.134   6.928  0.3067  0.0242 -0.3110
11222SOL    HW134574   4.700   3.058   6.912  0.4682 -0.1729  0.0521
11222SOL    HW234575   4.700   3.196   6.974 -0.1276  0.5475 -1.5111
11223SOL     OW34576   5.084   3.524   5.321  0.1222  0.1279 -0.2496
11223SOL    HW134577   5.142   3.571   5.260  1.0166 -1.3308 -0.5815
11223SOL    HW234578   5.144   3.482   5.383 -0.7665  1.4721  1.6190
11224SOL     OW34579   1.930   2.731   5.504 -0.4477  0.4938  0.0567
11224SOL    HW134580   1.981   2.658   5.470  0.4085  1.0676  0.0619
11224SOL    HW234581   1.930   2.718   5.599 -0.8633  0.1423  0.0084
11225SOL     OW34582   3.800   2.905   0.226 -0.4140  0.6538  0.1976
11225SOL    HW134583   3.722   2.851   0.229  0.1346 -0.3186 -1.4108
11225SOL    HW234584   3.846   2.876   0.147  0.8091  2.2448  0.2701
11226SOL     OW34585   5.252   2.982   2.000 -0.5545  0.4965 -0.2948
11226SOL    HW134586   5.221   2.892   2.005 -1.9222  0.9127 -0.7942
11226SOL    HW234587   5.328   2.985   2.059  1.7051 -1.8129 -2.7646
11227SOL     OW34588   7.224   7.617   0.144 -0.2890 -0.5955  0.0564
11227SOL    HW134589   7.207   7.526   0.170  0.2585 -0.8843 -0.5656
11227SOL    HW234590   7.143   7.664   0.165 -0.0915 -0.9199  1.7237
11228SOL     OW34591   7.584   6.468   5.087 -0.0848 -1.0630  0.0153
11228SOL    HW134592   7.543   6.391   5.127 -1.3594 -0.4615 -0.0867
11228SOL    HW234593   7.533   6.542   5.121  2.1395 -0.0858  1.4457
11229SOL     OW34594   6.244   5.202   2.680 -0.8746 -0.5874 -0.0931
11229SOL    HW134595   6.326   5.155   2.696 -0.8044  0.0326  1.5364
11229SOL    HW234596   6.179   5.133   2.665 -0.2156 -1.1011 -0.6556
11230SOL     OW34597   4.646   6.923   4.420  0.1080 -0.3497 -0.3112
11230SOL    HW134598   4.603   6.943   4.503  1.0711 -0.8742  0.3399
11230SOL    HW234599   4.738   6.911   4.444  0.8637  1.9057 -1.8128
11231SOL     OW34600   0.848   3.593   5.325  0.1287 -1.0050 -0.5416
11231SOL    HW134601   0.911   3.572   5.394  2.7678  0.7429 -2.2094
11231SOL    HW234602   0.763   3.573   5.363  1.4657 -0.7650  2.9672
11232SOL     OW34603   0.803   6.671   3.396  0.1214  0.2771  0.3169
11232SOL    HW134604   0.869   6.611   3.363  1.0285  1.2683  0.2865
11232SOL    HW234605   0.793   6.647   3.488  2.4404  1.7512  1.0199
11233SOL     OW34606   2.067   4.476   1.532  0.1549 -0.2418  0.2489
11233SOL    HW134607   2.017   4.508   1.457  1.2194  1.5567  0.2349
11233SOL    HW234608   2.017   4.506   1.608  0.4993  0.3456  0.2433
11234SOL     OW34609   6.874   4.482   5.176  0.1026 -0.5861 -0.3170
11234SOL    HW134610   6.838   4.566   5.149 -0.5062 -1.2057 -1.5738
11234SOL    HW234611   6.967   4.499   5.194 -0.1569  0.4577  0.0611
11235SOL     OW34612   0.061   1.497   6.847  0.0975  0.6858 -0.1930
11235SOL    HW134613   0.029   1.541   6.926 -0.0057  0.2682  0.0008
11235SOL    HW234614   0.004   1.421   6.838 -0.3568  1.1238 -1.0858
11236SOL     OW34615   6.578   2.620   3.748 -0.1750 -0.1554 -0.5762
11236SOL    HW134616   6.645   2.635   3.682  0.5780  1.8233  0.5515
11236SOL    HW234617   6.527   2.702   3.749 -1.0376 -0.6782  0.3289
11237SOL     OW34618   6.567   0.928   4.300 -0.3587 -0.0015 -0.1544
11237SOL    HW134619   6.591   0.933   4.392 -1.1193 -3.5766  0.3635
11237SOL    HW234620   6.649   0.945   4.253 -0.1103  2.6383  1.0279
11238SOL     OW34621   7.437   5.519   4.986 -0.0682  0.1266 -0.0529
11238SOL    HW134622   7.483   5.440   4.959  0.4706 -0.1981  1.6751
11238SOL    HW234623   7.465   5.587   4.924  0.6314 -0.6807 -0.6334
11239SOL     OW34624   2.058   7.000   4.096  0.4273  0.1450 -0.2204
11239SOL    HW134625   2.018   6.923   4.058  0.0156 -0.9485  2.2138
11239SOL    HW234626   2.051   6.987   4.191  2.9798  1.7816  0.3168
11240SOL     OW34627   7.745   0.840   1.658 -0.5870 -0.5767  0.3631
11240SOL    HW134628   7.823   0.799   1.695  0.4848  1.3838  0.3857
11240SOL    HW234629   7.778   0.895   1.588 -1.6961  1.7107  1.5365
11241SOL     OW34630   3.020   5.979   2.060  0.2474 -0.2380  0.1041
11241SOL    HW134631   2.968   6.043   2.011 -1.0608 -1.1545  0.2403
11241SOL    HW234632   3.027   5.904   2.002  1.2409 -0.2132  0.1845
11242SOL     OW34633   1.936   4.518   0.282 -0.5715  0.1021  0.1156
11242SOL    HW134634   1.842   4.534   0.290 -0.3112  0.9973  1.8268
11242SOL    HW234635   1.946   4.424   0.298 -1.0802  0.2157  1.1807
11243SOL     OW34636   6.412   6.573   4.247  0.2423  0.7103  0.1877
11243SOL    HW134637   6.417   6.506   4.179 -1.2701 -0.1356  0.8427
11243SOL    HW234638   6.492   6.624   4.237  0.3722  0.2011 -1.7815
11244SOL     OW34639   2.457   2.218   2.844  0.0563  0.4889  0.0144
11244SOL    HW134640   2.463   2.149   2.910  1.6003  2.1525  1.7579
11244SOL    HW234641   2.366   2.216   2.815  0.2182 -2.7862 -0.6856
11245SOL     OW34642   6.856   4.107   7.732  0.3539  0.1349 -0.2299
11245SOL    HW134643   6.923   4.152   7.784  1.5376 -2.1777  0.3594
11245SOL    HW234644   6.838   4.027   7.780 -1.5060 -0.1779 -1.3567
11246SOL     OW34645   3.643   7.396   2.679 -0.0374  0.0745 -0.3178
11246SOL    HW134646   3.647   7.320   2.737  2.3791  0.9277  0.7325
11246SOL    HW234647   3.663   7.361   2.592 -0.2307 -0.6827 -0.0648
11247SOL     OW34648   7.269   1.566   4.034 -0.0073 -0.7002  0.4022
11247SOL    HW134649   7.314   1.649   4.050 -0.8278 -0.2495  0.4248
11247SOL    HW234650   7.247   1.534   4.122  0.1868 -0.8697  0.3878
11248SOL     OW34651   4.025   5.705   6.424 -0.3752 -0.1554  0.2323
11248SOL    HW134652   4.012   5.761   6.500 -1.6299 -1.3206  0.9307
11248SOL    HW234653   3.999   5.758   6.350 -0.8017  0.4403  0.7985
11249SOL     OW34654   5.596   0.688   2.864  0.6150 -0.4077  0.2160
11249SOL    HW134655   5.674   0.683   2.808 -0.2019  0.8045 -1.1003
11249SOL    HW234656   5.599   0.776   2.900 -0.6595  0.0043 -0.6485
11250SOL     OW34657   1.570   1.829   3.020 -0.1675  0.3055 -1.0692
11250SOL    HW134658   1.635   1.762   3.038 -0.1351  0.0828 -1.9369
11250SOL    HW234659   1.508   1.787   2.961 -1.6647  0.2075  0.4972
11251SOL     OW34660   4.005   4.759   0.635  0.5362  0.1054  0.0257
11251SOL    HW134661   4.047   4.701   0.699 -1.3669 -1.0582  0.2817
11251SOL    HW234662   3.989   4.840   0.684 -1.1437 -0.8657  1.1854
11252SOL     OW34663   5.392   6.351   5.984  0.5426  0.4555 -0.7659
11252SOL    HW134664   5.446   6.351   6.063 -1.9117  3.1851  1.0876
11252SOL    HW234665   5.423   6.426   5.933  2.2677 -1.4137 -2.7009
11253SOL     OW34666   4.603   5.359   0.555  0.1683 -0.5122 -0.0071
11253SOL    HW134667   4.583   5.266   0.544 -1.3342 -0.5790  2.5572
11253SOL    HW234668   4.542   5.389   0.622  1.5847  2.0095  0.2714
11254SOL     OW34669   7.381   1.568   1.058  0.0969 -0.3957 -0.3528
11254SOL    HW134670   7.319   1.593   1.127 -2.2240 -1.0527 -2.0780
11254SOL    HW234671   7.467   1.575   1.099 -1.0358  1.4462  1.9015
11255SOL     OW34672   1.088   0.834   4.867 -0.4589 -0.5651  0.2673
11255SOL    HW134673   1.155   0.782   4.912 -0.0424 -1.2616 -1.1006
11255SOL    HW234674   1.112   0.828   4.774  0.2292  2.9274  0.0889
11256SOL     OW34675   6.930   2.568   7.351 -0.0582  0.0961  0.3664
11256SOL    HW134676   7.010   2.580   7.299 -0.6686  0.9488 -0.4090
11256SOL    HW234677   6.890   2.655   7.353 -2.3450 -0.8011 -1.5497
11257SOL     OW34678   3.477   0.742   1.430 -0.6461 -0.4636 -0.1744
11257SOL    HW134679   3.409   0.717   1.492 -2.3660 -0.3483 -1.9137
11257SOL    HW234680   3.441   0.817   1.383  0.9183 -0.0555 -0.7981
11258SOL     OW34681   4.031   0.155   5.659  0.0639 -0.4502 -0.1965
11258SOL    HW134682   4.019   0.092   5.731  1.1374 -0.6041 -0.1281
11258SOL    HW234683   3.943   0.180   5.634 -0.3371  0.0660  1.5872
11259SOL     OW34684   5.047   3.643   7.146  0.2648  0.1823  0.9611
11259SOL    HW134685   5.105   3.719   7.134  0.6328 -0.4811 -2.0405
11259SOL    HW234686   4.993   3.641   7.067  0.1246 -2.5595  1.0445
11260SOL     OW34687   2.111   2.187   1.839  0.1070 -0.1999 -0.1330
11260SOL    HW134688   2.024   2.225   1.826  1.1833  2.3637 -0.5175
11260SOL    HW234689   2.122   2.184   1.934  0.2416  1.2372 -0.0733
11261SOL     OW34690   2.869   7.548   7.151 -0.4710  0.3500 -0.1620
11261SOL    HW134691   2.910   7.626   7.114 -0.0012  0.3652  0.3853
11261SOL    HW234692   2.810   7.518   7.082  0.1094  0.5950 -0.7856
11262SOL     OW34693   1.787   6.351   7.408 -0.1449  0.2348 -0.8964
11262SOL    HW134694   1.879   6.332   7.389 -0.0097  0.3540 -0.3735
11262SOL    HW234695   1.747   6.266   7.423 -0.2170  0.1492 -1.5140
11263SOL     OW34696   5.296   7.038   3.922 -0.2286 -0.2794 -0.6526
11263SOL    HW134697   5.231   7.050   3.852  0.6242 -0.2544 -1.4519
11263SOL    HW234698   5.366   6.987   3.882  0.0767 -0.6473  0.3211
11264SOL     OW34699   1.271   1.587   3.589 -0.3361  0.2941  0.3233
11264SOL    HW134700   1.210   1.587   3.662 -0.7838 -0.0283 -0.0486
11264SOL    HW234701   1.312   1.674   3.593 -1.7782  1.0270 -0.2189
11265SOL     OW34702   5.074   6.071   3.133  0.5313  0.2913  0.1134
11265SOL    HW134703   5.154   6.087   3.083 -0.4778 -0.0981 -1.7138
11265SOL    HW234704   5.030   6.000   3.085 -1.0176  0.6637  0.9358
11266SOL     OW34705   1.484   0.816   1.611  0.0307  0.8383  0.5321
11266SOL    HW134706   1.439   0.756   1.551  1.8891 -1.0222  0.8987
11266SOL    HW234707   1.421   0.830   1.682 -1.2388  1.0805 -0.5768
11267SOL     OW34708   0.510   6.799   5.285 -0.2753  0.0136 -0.1215
11267SOL    HW134709   0.479   6.887   5.308 -0.0238  0.7225 -2.2570
11267SOL    HW234710   0.475   6.743   5.353 -0.0191  1.8230  1.6063
11268SOL     OW34711   4.462   6.951   0.172 -0.0318  0.0021 -0.2921
11268SOL    HW134712   4.439   7.039   0.200  0.6093 -0.0600  0.4706
11268SOL    HW234713   4.448   6.896   0.249 -2.3435 -0.9381 -1.2972
11269SOL     OW34714   3.025   2.654   7.619  0.3108 -0.2994  0.2565
11269SOL    HW134715   3.091   2.620   7.680  0.7409  0.7202  0.3678
11269SOL    HW234716   3.068   2.651   7.533  0.4508  0.2080  0.3055
11270SOL     OW34717   0.946   6.691   1.199 -0.3008  0.1028 -0.2418
11270SOL    HW134718   1.037   6.690   1.228 -0.3167 -0.1452 -0.2007
11270SOL    HW234719   0.897   6.654   1.273 -0.6157  1.6254  0.3551
11271SOL     OW34720   3.946   7.281   2.804 -0.4418 -0.2709  0.2886
11271SOL    HW134721   4.021   7.302   2.860  0.2896 -1.7334 -0.0858
11271SOL    HW234722   3.872   7.277   2.865  0.2814 -1.5197  1.1440
11272SOL     OW34723   5.575   3.695   7.356 -1.1027  0.3181  0.5778
11272SOL    HW134724   5.538   3.607   7.357 -1.4165  0.4496  0.8992
11272SOL    HW234725   5.504   3.751   7.386 -0.7328  0.6145  0.9124
11273SOL     OW34726   3.796   1.154   5.885 -0.3970  0.5662  0.1645
11273SOL    HW134727   3.718   1.183   5.837  0.5133  1.4816 -0.8026
11273SOL    HW234728   3.867   1.206   5.850  0.9124 -1.1867  0.0819
11274SOL     OW34729   5.749   0.823   0.252  0.0142 -0.2353 -0.4196
11274SOL    HW134730   5.799   0.810   0.171 -1.3633  0.3416 -1.3947
11274SOL    HW234731   5.687   0.750   0.254 -0.3727  0.0934 -0.2199
11275SOL     OW34732   6.483   0.968   4.815  0.0879  0.2141 -0.3697
11275SOL    HW134733   6.500   0.914   4.738  0.3775  2.3491 -1.8828
11275SOL    HW234734   6.477   1.057   4.781  1.6050  1.4293  2.2350
11276SOL     OW34735   5.125   5.767   2.281  0.0718 -0.4051  0.0645
11276SOL    HW134736   5.044   5.716   2.282  0.4445 -1.0243 -0.4769
11276SOL    HW234737   5.181   5.723   2.346  0.7820 -1.3621 -1.1485
11277SOL     OW34738   5.228   3.484   0.020 -0.4557  0.1289 -0.5590
11277SOL    HW134739   5.200   3.535   0.096 -2.4612 -0.4684 -0.8368
11277SOL    HW234740   5.230   3.394   0.051 -0.3290 -0.0124 -0.9735
11278SOL     OW34741   1.508   3.323   0.488 -0.2796  0.1019  0.4044
11278SOL    HW134742   1.540   3.409   0.517  1.3089 -0.5161  0.5673
11278SOL    HW234743   1.535   3.318   0.396 -0.8914  0.0070  0.2276
11279SOL     OW34744   2.471   2.423   3.432 -0.0754 -0.0767 -0.1264
11279SOL    HW134745   2.512   2.338   3.418 -0.0947  0.1253 -1.4849
11279SOL    HW234746   2.412   2.409   3.506  2.6154 -0.3044  2.1748
11280SOL     OW34747   3.994   0.429   7.217 -0.4705  0.0125 -0.6282
11280SOL    HW134748   3.910   0.473   7.221 -0.7793 -0.4927 -1.3897
11280SOL    HW234749   4.008   0.412   7.124  0.7187  0.5484 -0.5707
11281SOL     OW34750   4.219   6.650   3.758 -0.2976  0.0213 -0.4230
11281SOL    HW134751   4.259   6.711   3.819  0.7937 -0.5059 -0.5853
11281SOL    HW234752   4.169   6.590   3.813 -1.2166  0.9210 -0.2502
11282SOL     OW34753   0.748   6.414   2.555 -0.3535  0.8003  0.6624
11282SOL    HW134754   0.726   6.390   2.645 -0.0933  0.6613  0.6881
11282SOL    HW234755   0.706   6.347   2.501 -1.3050  1.4118  0.6261
11283SOL     OW34756   3.965   1.316   0.010  0.6007 -0.2958  0.0492
11283SOL    HW134757   3.959   1.220   0.018  0.7034 -0.6760 -3.1943
11283SOL    HW234758   3.875   1.344  -0.006  0.3514  0.4083  2.2941
11284SOL     OW34759   6.298   6.180   3.151  0.1839  0.0698 -0.0764
11284SOL    HW134760   6.267   6.089   3.151 -0.5098  0.2932 -0.4082
11284SOL    HW234761   6.356   6.185   3.075  1.1570 -0.3870  0.6183
11285SOL     OW34762   0.589   3.953   6.391 -1.2749  0.1828  0.3807
11285SOL    HW134763   0.644   4.020   6.351 -0.9848 -0.3212 -0.0812
11285SOL    HW234764   0.638   3.925   6.469 -0.7079 -0.4830 -0.1952
11286SOL     OW34765   2.645   2.567   3.039  0.4330  0.2617  0.2661
11286SOL    HW134766   2.735   2.552   3.011  0.0206  0.0404 -0.9870
11286SOL    HW234767   2.592   2.554   2.960 -0.7732 -0.3373  1.1293
11287SOL     OW34768   1.393   7.092   0.619  0.3364 -0.3099  0.0206
11287SOL    HW134769   1.402   7.183   0.648  1.7903 -0.7179  0.9762
11287SOL    HW234770   1.301   7.071   0.636  0.0681  0.8652  0.1347
11288SOL     OW34771   3.485   6.546   2.020  0.2077 -0.0981 -0.6060
11288SOL    HW134772   3.538   6.468   2.038 -0.1174  0.0631  1.1953
11288SOL    HW234773   3.544   6.605   1.973  0.4238 -1.4531 -2.1170
11289SOL     OW34774   4.072   5.012   1.940 -0.1329 -0.3786  0.0168
11289SOL    HW134775   4.011   4.960   1.888 -0.7319  0.4344 -0.1144
11289SOL    HW234776   4.070   5.099   1.899 -0.4627  0.2221  1.2739
11290SOL     OW34777   0.293   2.139   1.137  0.2907 -0.0434  0.5253
11290SOL    HW134778   0.210   2.102   1.166  1.0971 -1.1504  1.5618
11290SOL    HW234779   0.303   2.220   1.187  0.8499 -1.0520  2.1200
11291SOL     OW34780   0.059   3.028   1.144  0.2682  0.5266  0.3255
11291SOL    HW134781   0.125   2.963   1.123 -0.8581 -0.3902 -0.5489
11291SOL    HW234782   0.107   3.110   1.152  1.6664 -0.3395  1.0906
11292SOL     OW34783   5.827   4.678   5.522 -0.0767 -0.3350 -0.0782
11292SOL    HW134784   5.799   4.613   5.587 -0.7345 -0.2604 -0.2770
11292SOL    HW234785   5.898   4.635   5.475  0.3818 -0.4086  0.6573
11293SOL     OW34786   4.390   6.942   6.408 -0.0699 -0.3454 -0.2477
11293SOL    HW134787   4.317   6.960   6.468 -0.4772 -0.7799 -0.6000
11293SOL    HW234788   4.348   6.920   6.325  0.4955  0.6724 -0.8282
11294SOL     OW34789   5.323   3.728   4.121 -0.2314 -0.0086 -0.1348
11294SOL    HW134790   5.337   3.823   4.117 -0.9808  0.1593  0.7820
11294SOL    HW234791   5.391   3.696   4.181  1.2582 -0.3554 -1.9177
11295SOL     OW34792   0.846   6.800   6.782  0.0198 -0.2015  0.2052
11295SOL    HW134793   0.788   6.781   6.856 -0.5021 -2.1262 -0.6352
11295SOL    HW234794   0.789   6.843   6.718  0.3318  0.9244  0.6673
11296SOL     OW34795   2.032   0.903   7.534 -0.5018 -0.3665  0.3437
11296SOL    HW134796   1.946   0.863   7.532  0.0168 -1.5366  0.6900
11296SOL    HW234797   2.018   0.992   7.501 -1.9123 -0.3738  0.8640
11297SOL     OW34798   3.587   3.478   2.050 -0.0304  0.2408  0.1938
11297SOL    HW134799   3.515   3.502   1.992  0.6492 -1.9869 -1.7506
11297SOL    HW234800   3.659   3.535   2.025 -0.1462  0.2028 -0.2354
11298SOL     OW34801   7.367   3.907   5.261  0.0653  0.7041 -0.1832
11298SOL    HW134802   7.303   3.917   5.332  0.0207 -0.4923 -0.0369
11298SOL    HW234803   7.372   3.994   5.221 -0.4678  1.2099  0.8067
11299SOL     OW34804   4.004   5.783   5.698 -0.1078 -0.1334  0.0008
11299SOL    HW134805   3.945   5.761   5.770  0.6169 -0.3511  0.5313
11299SOL    HW234806   4.056   5.704   5.683 -1.5733 -0.7957 -2.1072
11300SOL     OW34807   3.114   6.495   7.465  0.4409  0.2306  0.3019
11300SOL    HW134808   3.185   6.557   7.446 -0.5698  1.4343  0.3065
11300SOL    HW234809   3.075   6.477   7.380  0.6363 -0.3063  0.3202
11301SOL     OW34810   6.510   1.325   7.163 -0.6223 -0.2776  0.0726
11301SOL    HW134811   6.484   1.407   7.120  0.8660 -0.8981 -2.2055
11301SOL    HW234812   6.427   1.287   7.194 -1.3411  2.0853  1.3460
11302SOL     OW34813   7.069   7.260   7.618  0.4005  0.1488 -0.6519
11302SOL    HW134814   7.071   7.352   7.589  0.2920  0.2362 -0.3813
11302SOL    HW234815   6.989   7.224   7.578  0.6268  0.0768 -1.0446
11303SOL     OW34816   4.472   7.062   3.281 -0.3118  0.0066  0.1940
11303SOL    HW134817   4.467   7.155   3.302  0.1439  0.2963 -0.8648
11303SOL    HW234818   4.435   7.056   3.192  0.5285 -0.6745 -0.1199
11304SOL     OW34819   2.101   2.909   4.546  0.3221 -0.0984  0.0182
11304SOL    HW134820   2.046   2.913   4.468  1.4383  0.4113 -0.7653
11304SOL    HW234821   2.045   2.942   4.616 -0.3363  0.5166 -0.7712
11305SOL     OW34822   2.791   0.208   4.987 -0.1929  0.1254  0.2332
11305SOL    HW134823   2.853   0.275   4.959 -1.0572  0.3999 -1.1115
11305SOL    HW234824   2.817   0.187   5.077  2.0063  0.0243 -0.3666
11306SOL     OW34825   1.439   6.869   2.565  0.3032  0.3030 -0.5569
11306SOL    HW134826   1.378   6.796   2.559  1.8325 -0.8847 -3.2237
11306SOL    HW234827   1.504   6.840   2.630  0.4324 -0.3681 -0.9723
11307SOL     OW34828   3.080   2.849   5.038  0.4292 -0.3320  0.3359
11307SOL    HW134829   3.148   2.843   5.105  0.4275 -1.3973  0.2525
11307SOL    HW234830   3.124   2.887   4.963  0.3227  1.3211  1.0660
11308SOL     OW34831   6.857   2.792   5.202  0.3973 -0.0805 -0.0752
11308SOL    HW134832   6.788   2.836   5.251 -0.3213 -0.6300 -0.5713
11308SOL    HW234833   6.816   2.770   5.118  1.4110  0.2971 -0.6956
11309SOL     OW34834   2.006   0.088   4.924 -0.2836 -0.2041  0.6670
11309SOL    HW134835   2.027   0.131   5.007  2.0675 -0.2580  0.1751
11309SOL    HW234836   2.012   0.158   4.859 -1.0001 -0.3885  0.3942
11310SOL     OW34837   2.539   5.297   3.681  0.7163  0.2663 -0.1238
11310SOL    HW134838   2.545   5.223   3.741 -1.6503  1.2516  1.4672
11310SOL    HW234839   2.457   5.283   3.634 -0.4131  2.3877  1.0583
11311SOL     OW34840   0.412   4.323   1.319 -0.5300  0.2108 -0.5857
11311SOL    HW134841   0.477   4.376   1.365 -1.0574 -0.6963  1.3116
11311SOL    HW234842   0.345   4.305   1.385 -1.5793 -0.7498 -1.8688
11312SOL     OW34843   0.046   2.024   1.665  0.4290  0.3538  0.1157
11312SOL    HW134844   0.023   1.931   1.669 -0.1135  0.3983 -1.3780
11312SOL    HW234845   0.141   2.024   1.649  0.4964  0.0710  0.4947
11313SOL     OW34846   2.365   6.324   1.304  0.0519 -0.1061 -0.5355
11313SOL    HW134847   2.403   6.246   1.263  0.1106  0.0195 -0.7221
11313SOL    HW234848   2.417   6.337   1.384  0.5899  0.2269 -0.9305
11314SOL     OW34849   4.462   4.378   6.513 -0.2583 -0.0981  0.2568
11314SOL    HW134850   4.515   4.329   6.450 -1.4159  1.5849 -2.1845
11314SOL    HW234851   4.490   4.469   6.502 -1.3973  0.3992  1.2652
11315SOL     OW34852   0.831   7.395   3.584 -1.4969 -0.6883  0.1171
11315SOL    HW134853   0.876   7.452   3.523 -1.5361 -0.3105  0.4403
11315SOL    HW234854   0.748   7.438   3.602 -1.0485 -0.2515  1.2577
11316SOL     OW34855   5.742   5.796   1.300  0.1850  0.2873  0.5601
11316SOL    HW134856   5.782   5.866   1.248  1.2072 -0.8750 -0.2772
11316SOL    HW234857   5.784   5.716   1.268 -0.7038 -0.6762  1.7357
11317SOL     OW34858   3.047   6.969   3.926  0.5812 -0.4679 -0.4704
11317SOL    HW134859   3.083   7.047   3.883  1.6775 -0.9258 -0.4189
11317SOL    HW234860   3.122   6.910   3.934  0.1137 -0.9066  0.9001
11318SOL     OW34861   5.633   3.118   4.221  0.1220 -0.1626 -0.0187
11318SOL    HW134862   5.635   3.106   4.316  0.1396  0.8413  0.1174
11318SOL    HW234863   5.714   3.079   4.190  0.3985  0.0293  0.4510
11319SOL     OW34864   0.267   7.705   2.326  0.0637  0.1213  0.2310
11319SOL    HW134865   0.249   7.754   2.246  0.6259  0.0863  0.0771
11319SOL    HW234866   0.355   7.668   2.312  0.3915  0.5484  1.0783
11320SOL     OW34867   7.509   3.245   5.159 -0.1925 -0.4803 -0.1341
11320SOL    HW134868   7.571   3.244   5.086 -0.3143  0.7272 -0.2759
11320SOL    HW234869   7.550   3.192   5.227  0.6259 -0.3391 -0.5100
11321SOL     OW34870   4.530   7.695   4.369  0.0921  0.3847  0.0214
11321SOL    HW134871   4.556   7.668   4.281 -0.7131 -0.4173  0.0199
11321SOL    HW234872   4.439   7.723   4.361 -0.1555 -0.1989  0.7018
11322SOL     OW34873   1.634   2.380   3.659  0.0537  0.8753  0.0909
11322SOL    HW134874   1.673   2.464   3.633 -0.7147  0.6645 -1.9289
11322SOL    HW234875   1.654   2.321   3.587 -1.1523 -0.1267  0.5413
11323SOL     OW34876   3.792   5.108   1.751  0.1498 -0.2305 -0.2607
11323SOL    HW134877   3.867   5.115   1.693 -0.8524  0.1504 -1.5348
11323SOL    HW234878   3.797   5.018   1.785  0.6516 -0.5192 -1.0663
11324SOL     OW34879   0.640   5.714   6.781  0.1978 -0.1290 -0.3438
11324SOL    HW134880   0.673   5.804   6.775 -0.3621  0.1320  0.3232
11324SOL    HW234881   0.577   5.707   6.709  1.2738 -0.4623 -1.2907
11325SOL     OW34882   5.453   7.592   3.216 -0.3843 -0.2563 -0.1773
11325SOL    HW134883   5.371   7.641   3.219 -0.2893  0.0154 -1.4552
11325SOL    HW234884   5.506   7.638   3.150  0.0974 -1.4729 -0.6695
11326SOL     OW34885   1.473   1.603   5.232 -0.0008 -0.3001 -0.1110
11326SOL    HW134886   1.509   1.515   5.238  2.6452  0.6896 -0.1513
11326SOL    HW234887   1.549   1.660   5.219 -1.6059  2.0059 -0.1622
11327SOL     OW34888   0.134   5.222   4.024  0.2451 -0.1045  0.4634
11327SOL    HW134889   0.119   5.191   4.114  1.5082 -1.4311  0.2623
11327SOL    HW234890   0.075   5.296   4.014 -0.5197 -0.4377  2.1188
11328SOL     OW34891   3.567   7.499   3.132  0.1103  0.3205 -0.0487
11328SOL    HW134892   3.577   7.405   3.117  1.6691  0.2077  1.4035
11328SOL    HW234893   3.480   7.508   3.170  0.8965 -0.9224  2.2305
11329SOL     OW34894   6.175   6.600   0.407 -0.1622 -0.0780  0.1629
11329SOL    HW134895   6.169   6.555   0.491 -0.8589 -0.7053 -0.2104
11329SOL    HW234896   6.250   6.658   0.416  0.4695 -0.9710  0.8233
11330SOL     OW34897   3.066   0.525   2.186  0.4014 -0.4681  0.7658
11330SOL    HW134898   3.022   0.558   2.264  2.4778 -0.3397  1.9368
11330SOL    HW234899   3.137   0.587   2.170 -0.1666 -0.2970 -1.4593
11331SOL     OW34900   4.999   2.833   1.174  0.1873  0.0118 -0.2573
11331SOL    HW134901   4.957   2.878   1.101 -1.2746 -0.3529  0.3290
11331SOL    HW234902   4.932   2.829   1.242  1.5679  0.5285  1.2066
11332SOL     OW34903   0.409   6.958   0.123 -0.0216 -0.3342  0.4058
11332SOL    HW134904   0.500   6.985   0.114 -0.6392  1.4043 -1.4958
11332SOL    HW234905   0.391   6.909   0.043 -1.0508  0.3959  0.1647
11333SOL     OW34906   1.441   7.127   2.635  0.1111  0.6191 -0.4145
11333SOL    HW134907   1.524   7.175   2.633  0.9402 -0.6551  1.0264
11333SOL    HW234908   1.464   7.038   2.608 -0.7157  0.1736  0.2999
11334SOL     OW34909   5.818   0.614   0.782 -0.4641  0.5072 -0.1317
11334SOL    HW134910   5.805   0.701   0.818  1.6657  0.7518  0.2086
11334SOL    HW234911   5.825   0.627   0.688  0.6723  0.8708 -0.0185
11335SOL     OW34912   6.715   4.567   3.355  0.2649  0.2410 -0.4205
11335SOL    HW134913   6.744   4.545   3.444  0.7948  0.4649 -0.5353
11335SOL    HW234914   6.620   4.560   3.359  0.2010  1.2818  0.4456
11336SOL     OW34915   7.402   6.361   1.293  0.5790  0.0657 -0.5109
11336SOL    HW134916   7.425   6.446   1.331  0.4790 -0.3381  0.4745
11336SOL    HW234917   7.484   6.313   1.290  0.3942 -0.2962  0.2100
11337SOL     OW34918   2.416   5.942   0.664 -0.6150  0.1503 -0.4137
11337SOL    HW134919   2.356   5.896   0.605 -0.2801  1.7952 -2.1187
11337SOL    HW234920   2.386   6.032   0.664 -0.1763  0.3325  1.4444
11338SOL     OW34921   4.046   3.637   1.231 -0.0164 -0.5845  0.4496
11338SOL    HW134922   4.055   3.542   1.242 -0.4920 -0.6484  0.2777
11338SOL    HW234923   4.134   3.671   1.248  0.1900 -1.0692  0.3647
11339SOL     OW34924   7.598   7.284   0.006  0.0742  0.1836  0.9945
11339SOL    HW134925   7.579   7.357  -0.052  1.1862  0.1574  0.5643
11339SOL    HW234926   7.513   7.242   0.021 -0.1733 -0.1794 -1.1062
11340SOL     OW34927   4.471   5.270   3.907 -0.1917 -0.1487  0.2438
11340SOL    HW134928   4.511   5.185   3.892  1.3209  0.4900  0.5341
11340SOL    HW234929   4.525   5.332   3.858  0.5837  1.0262  2.4388
11341SOL     OW34930   1.992   3.879   4.866  0.6150  0.4421 -0.9625
11341SOL    HW134931   2.050   3.858   4.939 -1.0474  2.5341  1.1022
11341SOL    HW234932   2.004   3.807   4.804  2.5618 -1.1082  1.0672
11342SOL     OW34933   5.191   6.088   4.772 -0.2627 -0.4355  0.6347
11342SOL    HW134934   5.250   6.013   4.784  0.3099  0.1799  1.8872
11342SOL    HW234935   5.140   6.066   4.694  0.4559 -1.7545  0.5000
11343SOL     OW34936   5.865   0.208   2.269 -0.1602 -0.3971 -0.2559
11343SOL    HW134937   5.786   0.183   2.316  0.4915  0.7792  1.5764
11343SOL    HW234938   5.886   0.296   2.302  3.0191 -1.4362  0.8925
11344SOL     OW34939   2.857   5.612   2.005  0.7229 -0.4683 -0.5216
11344SOL    HW134940   2.763   5.601   2.013  0.9628 -1.6092  1.2782
11344SOL    HW234941   2.869   5.666   1.927 -1.3320 -1.5055 -1.6119
11345SOL     OW34942   5.202   6.702   4.441  0.0132  0.7464 -0.3083
11345SOL    HW134943   5.188   6.649   4.362 -1.1908  0.0893  0.3217
11345SOL    HW234944   5.283   6.751   4.423  1.0113 -1.0728 -1.0386
11346SOL     OW34945   2.671   4.469   7.469 -0.2832 -0.1727  0.1748
11346SOL    HW134946   2.576   4.471   7.473 -0.5103 -2.1211 -1.6938
11346SOL    HW234947   2.700   4.456   7.559 -1.9284 -1.5427  0.5473
11347SOL     OW34948   6.237   5.515   4.537  0.0279  0.3772 -0.4906
11347SOL    HW134949   6.319   5.565   4.545 -0.0445  0.3062  0.7840
11347SOL    HW234950   6.250   5.462   4.459  1.4686 -0.1039  0.0373
11348SOL     OW34951   0.132   2.013   0.725 -0.2117 -0.1493  0.1392
11348SOL    HW134952   0.205   1.954   0.707  0.3771  0.6118 -0.0520
11348SOL    HW234953   0.070   1.960   0.775  0.8386 -0.6028  1.0312
11349SOL     OW34954   7.091   1.498   7.380 -0.0680 -0.1747  0.5337
11349SOL    HW134955   7.142   1.571   7.344 -0.3938  0.4966  1.3940
11349SOL    HW234956   7.128   1.483   7.467  0.9435 -2.0147 -0.1584
11350SOL     OW34957   2.022   1.506   3.304  0.0555 -0.1910 -0.2396
11350SOL    HW134958   1.944   1.486   3.355  0.0390  0.5112  0.0205
11350SOL    HW234959   2.079   1.554   3.365  0.8809 -1.0818 -0.2896
11351SOL     OW34960   5.530   6.479   6.818  0.2819 -0.7217  0.2134
11351SOL    HW134961   5.506   6.429   6.896 -1.9481  2.2413  1.6276
11351SOL    HW234962   5.465   6.549   6.813  2.0187  0.9101 -2.7234
11352SOL     OW34963   2.351   3.154   5.679  0.4012  0.6473 -0.0951
11352SOL    HW134964   2.376   3.208   5.754 -0.3079 -1.1858  1.5393
11352SOL    HW234965   2.431   3.146   5.628  1.7331 -0.3633  1.9973
11353SOL     OW34966   4.014   1.146   6.201  0.4018 -0.1585  0.2124
11353SOL    HW134967   4.002   1.053   6.181  3.7779 -0.8376  0.6457
11353SOL    HW234968   4.037   1.147   6.294 -0.2565  1.2184  0.3853
11354SOL     OW34969   1.899   2.449   2.856 -0.1605 -0.3303  0.4761
11354SOL    HW134970   1.809   2.473   2.833 -0.2510  0.5724  1.6449
11354SOL    HW234971   1.898   2.447   2.952  0.5631 -2.3514  0.4699
11355SOL     OW34972   2.161   5.358   6.891  0.4703  0.3253 -0.2272
11355SOL    HW134973   2.110   5.291   6.844 -0.7836  1.6207 -0.8054
11355SOL    HW234974   2.098   5.396   6.952  1.4436  0.3135  0.7961
11356SOL     OW34975   2.889   6.913   1.507 -0.0906 -0.6763  0.2357
11356SOL    HW134976   2.980   6.886   1.496  0.2088  0.5956 -0.5927
11356SOL    HW234977   2.863   6.877   1.592  1.4154 -0.4241  0.8286
11357SOL     OW34978   5.822   4.216   4.722 -0.2124  0.4630 -0.1544
11357SOL    HW134979   5.834   4.121   4.730  0.5035  0.6459  1.2219
11357SOL    HW234980   5.911   4.251   4.722 -0.4309  1.0994 -1.6552
11358SOL     OW34981   5.942   2.743   0.655  0.0313  0.1454  0.4401
11358SOL    HW134982   5.897   2.758   0.571  1.4085  1.1852 -0.1531
11358SOL    HW234983   5.966   2.831   0.685 -1.8595 -0.0455  2.7938
11359SOL     OW34984   2.240   3.978   5.419  0.5166  0.1281  0.2699
11359SOL    HW134985   2.296   3.901   5.413  0.3522 -0.0539  0.9452
11359SOL    HW234986   2.300   4.052   5.422  0.7333 -0.0740  1.1103
11360SOL     OW34987   0.587   6.482   0.444 -0.3603  0.5068 -0.1286
11360SOL    HW134988   0.646   6.407   0.445  1.3146  1.7194  2.9084
11360SOL    HW234989   0.500   6.444   0.449  0.4396 -1.2592  1.2786
11361SOL     OW34990   6.275   3.612   6.812  0.4269 -0.0810  0.3886
11361SOL    HW134991   6.363   3.640   6.787  0.9675 -0.1273  2.1384
11361SOL    HW234992   6.253   3.667   6.887 -1.2058  0.1732 -0.2320
11362SOL     OW34993   5.654   7.125   6.695  0.0938  0.0699 -0.0586
11362SOL    HW134994   5.624   7.113   6.605  1.8450  1.7566 -0.9355
11362SOL    HW234995   5.727   7.064   6.704 -0.7655 -0.9025  0.6409
11363SOL     OW34996   2.651   1.654   5.411  0.5082  0.2219  0.6407
11363SOL    HW134997   2.675   1.724   5.350 -0.0503 -0.6041 -0.5801
11363SOL    HW234998   2.692   1.576   5.375 -1.4330 -0.6547  0.1764
11364SOL     OW34999   1.797   1.326   7.296 -0.6860  0.3002 -0.2803
11364SOL    HW135000   1.856   1.401   7.306  1.1818 -1.1760  0.3408
11364SOL    HW235001   1.732   1.336   7.366  0.8039  0.2549  1.1627
11365SOL     OW35002   1.895   6.646   2.964  0.1247 -0.4835 -0.1639
11365SOL    HW135003   1.984   6.625   2.990  0.4218 -0.8148 -1.3877
11365SOL    HW235004   1.872   6.579   2.898 -0.7042  0.1003 -0.4914
11366SOL     OW35005   4.789   0.687   2.983 -0.1525  0.3137  0.2443
11366SOL    HW135006   4.788   0.728   3.069  0.0178  0.8851 -0.0249
11366SOL    HW235007   4.832   0.750   2.926  1.0780 -0.6670  0.0322
11367SOL     OW35008   7.070   4.980   2.533 -0.6031  0.7058 -0.3311
11367SOL    HW135009   7.021   4.964   2.614  0.9660  1.9385  0.9264
11367SOL    HW235010   7.136   4.911   2.530 -1.7450 -0.3914 -1.5328
11368SOL     OW35011   1.036   7.643   5.405 -0.4290  0.1660  0.1088
11368SOL    HW135012   1.028   7.595   5.488  0.7164 -0.6264 -0.1953
11368SOL    HW235013   1.075   7.579   5.345  0.5273  1.2825 -0.5081
11369SOL     OW35014   0.457   7.108   5.062 -0.7121  0.2441 -0.2583
11369SOL    HW135015   0.432   7.095   5.154  2.1093 -0.1193  0.5446
11369SOL    HW235016   0.404   7.044   5.014 -2.0776  0.2842  1.1331
11370SOL     OW35017   5.642   0.138   0.384  0.0446 -0.0089  0.5732
11370SOL    HW135018   5.578   0.149   0.455 -0.7261 -2.2850  0.3210
11370SOL    HW235019   5.679   0.051   0.400  1.0779  0.1460 -0.8723
11371SOL     OW35020   2.465   4.449   6.951 -0.2234  0.2502 -0.0366
11371SOL    HW135021   2.554   4.480   6.937 -0.5581  1.0117 -0.5273
11371SOL    HW235022   2.429   4.508   7.017  0.6496 -2.0150  2.6325
11372SOL     OW35023   5.755   3.789   7.126 -0.7800 -0.0528 -0.1656
11372SOL    HW135024   5.693   3.794   7.198  1.8594  0.0549  2.3139
11372SOL    HW235025   5.791   3.701   7.131  0.6403  0.4857 -0.2107
11373SOL     OW35026   6.307   0.240   4.816 -0.2294 -0.1926  0.0465
11373SOL    HW135027   6.260   0.274   4.739  1.1995  1.1346 -0.2776
11373SOL    HW235028   6.351   0.316   4.854  0.3286 -1.1028  1.3007
11374SOL     OW35029   5.828   4.072   2.957 -0.0044 -0.3291 -0.0132
11374SOL    HW135030   5.924   4.080   2.960 -0.0805  0.3612  0.9799
11374SOL    HW235031   5.798   4.109   3.040 -1.0431 -1.9606  0.3903
11375SOL     OW35032   3.744   4.058   2.674  0.0012  0.1129 -0.5590
11375SOL    HW135033   3.762   4.001   2.600  0.3628  0.1748 -0.5178
11375SOL    HW235034   3.824   4.109   2.686  0.7686 -1.4018  1.2279
11376SOL     OW35035   5.180   5.855   6.835  0.2505 -0.7735  0.6444
11376SOL    HW135036   5.161   5.938   6.790  1.8613 -0.1112  1.1315
11376SOL    HW235037   5.204   5.881   6.924  1.9696 -1.6400  0.4628
11377SOL     OW35038   4.339   7.378   6.739 -0.1416  0.5415  0.0796
11377SOL    HW135039   4.432   7.355   6.740 -0.0825  0.7726  1.4277
11377SOL    HW235040   4.294   7.297   6.716  0.2332 -0.3473  2.2125
11378SOL     OW35041   7.097   5.538   1.615 -0.4345  0.1627  0.9031
11378SOL    HW135042   7.075   5.549   1.522 -1.5915  1.3665  1.2788
11378SOL    HW235043   7.083   5.625   1.653 -0.2533 -0.3828  2.2650
11379SOL     OW35044   2.831   0.590   6.894  0.1151 -0.1097  0.7258
11379SOL    HW135045   2.745   0.630   6.879  0.5125 -0.2375 -2.5127
11379SOL    HW235046   2.825   0.505   6.852  1.7843 -0.1955  0.6074
11380SOL     OW35047   2.817   2.905   5.717 -0.2484  0.1520 -0.1955
11380SOL    HW135048   2.878   2.922   5.789  0.5123  1.9395 -1.2184
11380SOL    HW235049   2.868   2.918   5.638 -1.4535 -0.3445 -1.0851
11381SOL     OW35050   2.304   2.583   3.249  0.5831 -0.0191  0.3407
11381SOL    HW135051   2.224   2.603   3.298 -0.3422 -0.7960 -0.7676
11381SOL    HW235052   2.368   2.558   3.315  0.0608  1.0805  1.2935
11382SOL     OW35053   7.232   5.837   2.532  0.2385 -0.4105  0.5525
11382SOL    HW135054   7.281   5.891   2.595  0.8627  1.3688 -1.3661
11382SOL    HW235055   7.293   5.822   2.460 -1.6474  1.0524 -1.4895
11383SOL     OW35056   5.784   6.527   0.452 -0.5288 -0.3869  0.3109
11383SOL    HW135057   5.702   6.575   0.439  0.6897  1.4553 -1.2573
11383SOL    HW235058   5.833   6.580   0.515 -0.0150 -0.7258  0.2005
11384SOL     OW35059   5.699   5.816   0.584  0.2483 -0.6255  0.4880
11384SOL    HW135060   5.666   5.749   0.644 -0.0775  0.2989  1.3705
11384SOL    HW235061   5.794   5.812   0.594  0.1696  0.1894  1.8562
11385SOL     OW35062   3.452   0.237   6.726  0.2824 -0.4564  0.0445
11385SOL    HW135063   3.515   0.306   6.742  0.3093 -0.5850  0.5240
11385SOL    HW235064   3.483   0.163   6.780 -0.0985 -0.6221  0.0425
11386SOL     OW35065   3.348   2.203   1.765  0.1435 -0.1379 -0.2608
11386SOL    HW135066   3.288   2.275   1.746  1.0232  0.8006  0.4081
11386SOL    HW235067   3.301   2.148   1.828 -0.3589  0.0971 -0.4253
11387SOL     OW35068   4.783   3.074   0.055  0.0595 -0.1547  0.7479
11387SOL    HW135069   4.756   3.115   0.137 -0.0999 -0.5800  0.9117
11387SOL    HW235070   4.734   2.991   0.053 -0.2130  0.0242  0.0477
11388SOL     OW35071   4.252   0.782   7.346  0.0620 -0.3435  0.0301
11388SOL    HW135072   4.156   0.784   7.349  0.0370  0.2556 -0.7888
11388SOL    HW235073   4.272   0.776   7.253  0.8041 -2.7829  0.2908
11389SOL     OW35074   0.613   2.984   5.004  0.1103 -0.4677 -0.1741
11389SOL    HW135075   0.665   2.912   5.041  1.2670  0.6248  0.4254
11389SOL    HW235076   0.624   2.976   4.909 -0.1947 -1.3689 -0.1430
11390SOL     OW35077   0.262   6.616   4.141  0.1255  0.2427 -0.2387
11390SOL    HW135078   0.337   6.575   4.185 -2.1107 -1.2406  2.4966
11390SOL    HW235079   0.217   6.665   4.210 -2.8680 -1.1005 -1.0708
11391SOL     OW35080   4.699   2.555   4.881  0.2965  0.3977 -0.1034
11391SOL    HW135081   4.673   2.561   4.973  1.5889  1.8677  0.2082
11391SOL    HW235082   4.793   2.573   4.882  0.8031 -1.7895 -1.4885
11392SOL     OW35083   4.101   1.014   6.956  0.0357 -0.1635  0.7147
11392SOL    HW135084   4.175   1.017   7.016 -0.1984 -0.8430  1.0498
11392SOL    HW235085   4.103   0.926   6.920 -0.5975 -0.1858  0.7170
11393SOL     OW35086   5.440   7.399   0.098  0.1507 -0.4571 -0.0066
11393SOL    HW135087   5.494   7.465   0.142  0.8026 -1.9826  1.5877
11393SOL    HW235088   5.356   7.442   0.084  0.4182  0.5771  1.3858
11394SOL     OW35089   5.854   1.550   3.783  0.4561 -0.3958 -0.2958
11394SOL    HW135090   5.773   1.557   3.732 -0.5914 -0.6609  1.2566
11394SOL    HW235091   5.921   1.529   3.719 -0.2946  1.8398 -1.9641
11395SOL     OW35092   0.203   3.280   7.264  0.7597 -0.2765 -0.3044
11395SOL    HW135093   0.228   3.362   7.220  0.1483  0.3390  0.4686
11395SOL    HW235094   0.179   3.307   7.352 -2.3818 -0.8371 -0.8671
11396SOL     OW35095   6.324   2.568   6.535  0.2782  0.2925 -0.1982
11396SOL    HW135096   6.276   2.560   6.617  1.2367 -0.9934  0.2843
11396SOL    HW235097   6.371   2.651   6.541  2.2969 -0.8986  1.6897
11397SOL     OW35098   1.916   7.637   7.248  0.0495 -0.2023 -0.1021
11397SOL    HW135099   1.949   7.724   7.224 -0.2292  0.1559  0.7634
11397SOL    HW235100   1.950   7.623   7.336  0.7752 -1.3307 -0.5350
11398SOL     OW35101   6.919   3.899   3.114 -0.7451 -0.0369 -0.1821
11398SOL    HW135102   6.843   3.843   3.127 -0.3206 -0.5872 -0.0504
11398SOL    HW235103   6.965   3.860   3.039 -0.1161 -0.2361  0.3043
11399SOL     OW35104   2.721   6.319   6.185  0.2703  0.3253  0.1017
11399SOL    HW135105   2.720   6.231   6.223  3.2321 -0.3135 -0.9978
11399SOL    HW235106   2.650   6.320   6.121 -0.3390 -0.9565  0.7330
11400SOL     OW35107   6.448   6.767   1.971  0.2506  0.0939  0.3386
11400SOL    HW135108   6.521   6.777   2.032 -0.2340 -0.4640  1.0237
11400SOL    HW235109   6.447   6.674   1.949 -1.4269 -0.2972  1.8596
11401SOL     OW35110   2.817   5.071   4.815  0.4089  0.1310 -0.0123
11401SOL    HW135111   2.791   5.026   4.895 -0.0760 -1.4137 -0.9886
11401SOL    HW235112   2.823   5.163   4.840  1.6495 -0.4589  2.1226
11402SOL     OW35113   4.463   4.097   5.436 -0.3228  0.8061  0.4631
11402SOL    HW135114   4.462   4.124   5.528  1.6249  1.1850  0.4236
11402SOL    HW235115   4.479   4.002   5.439 -0.0876  0.8463  0.5262
11403SOL     OW35116   1.130   7.267   0.383  0.1627 -0.1897 -0.2353
11403SOL    HW135117   1.135   7.357   0.414 -1.7859  0.3106 -1.2039
11403SOL    HW235118   1.068   7.224   0.443  0.6055 -0.7163 -0.1473
11404SOL     OW35119   5.283   0.262   6.742 -0.1234 -0.5510 -0.4827
11404SOL    HW135120   5.190   0.252   6.762  0.0764 -1.9362 -0.1409
11404SOL    HW235121   5.296   0.213   6.662  0.0709  0.8113 -1.3248
11405SOL     OW35122   3.277   1.965   2.561  0.0457  0.1557 -0.3023
11405SOL    HW135123   3.210   1.995   2.622  0.7823 -0.2118  0.7259
11405SOL    HW235124   3.248   1.877   2.535 -1.0378  0.8900 -1.6848
11406SOL     OW35125   7.154   5.102   3.737  0.5144 -0.0301 -0.5762
11406SOL    HW135126   7.208   5.181   3.742  0.2611  0.0572  1.1110
11406SOL    HW235127   7.202   5.036   3.787  0.2466 -0.6705 -1.1481
11407SOL     OW35128   3.180   5.599   0.948 -0.1766  0.1817 -0.4158
11407SOL    HW135129   3.176   5.652   1.028  1.9025 -0.0823 -0.0818
11407SOL    HW235130   3.088   5.580   0.928 -0.7985  0.9265  1.4458
11408SOL     OW35131   5.215   0.350   7.628  0.0172 -0.3938  0.1311
11408SOL    HW135132   5.229   0.440   7.660 -1.1647 -0.5015  1.0359
11408SOL    HW235133   5.284   0.337   7.563  1.9291  0.1966  1.9262
11409SOL     OW35134   1.555   6.625   5.766  0.3877 -0.4218  0.1241
11409SOL    HW135135   1.630   6.578   5.731  1.7382  1.3613  0.4787
11409SOL    HW235136   1.505   6.651   5.689  0.2538 -1.3769 -0.1279
11410SOL     OW35137   3.554   0.966   3.572  0.4795  0.2221  0.2956
11410SOL    HW135138   3.578   1.053   3.604 -0.0434 -0.2176  1.9886
11410SOL    HW235139   3.476   0.981   3.518  2.0285  1.1209 -1.8593
11411SOL     OW35140   0.433   5.517   3.461  0.4528  0.2580  0.0496
11411SOL    HW135141   0.398   5.481   3.380  0.3495 -1.6920  0.8902
11411SOL    HW235142   0.526   5.491   3.460  0.1375 -1.0260  1.1522
11412SOL     OW35143   0.293   2.246   3.729  0.5585  0.8250  0.1139
11412SOL    HW135144   0.284   2.333   3.691 -0.6286  0.5817 -0.1985
11412SOL    HW235145   0.304   2.261   3.823 -0.2628  1.2935  0.1420
11413SOL     OW35146   4.898   2.486   1.164  0.6045 -0.2507 -0.1073
11413SOL    HW135147   4.870   2.570   1.127  0.0947 -0.3533  0.0407
11413SOL    HW235148   4.817   2.437   1.177  0.9177 -0.8469 -0.3790
11414SOL     OW35149   3.055   4.609   4.000 -0.0354 -0.3943  0.3847
11414SOL    HW135150   3.145   4.618   3.970 -0.1568 -0.2522  0.0604
11414SOL    HW235151   3.003   4.661   3.938 -0.1558  0.8614  1.5030
11415SOL     OW35152   2.931   5.063   7.103  0.2084 -0.1157  0.3442
11415SOL    HW135153   2.937   5.156   7.126 -0.6623 -0.1904  0.9206
11415SOL    HW235154   3.015   5.026   7.130 -0.0545  0.1895  1.6480
11416SOL     OW35155   5.907   6.249   0.866  0.4307 -0.1722  0.5656
11416SOL    HW135156   5.905   6.333   0.913 -0.9850  1.2055 -1.7430
11416SOL    HW235157   5.896   6.273   0.774  0.6538 -2.8831 -0.2513
11417SOL     OW35158   4.355   1.237   5.747 -0.5020  0.0534 -0.0866
11417SOL    HW135159   4.363   1.179   5.671  1.5090  0.4825 -0.2593
11417SOL    HW235160   4.388   1.322   5.716 -0.6255  0.5038  0.9677
11418SOL     OW35161   3.646   7.155   7.413  0.6854 -0.3594 -0.5749
11418SOL    HW135162   3.603   7.075   7.385 -0.6152  0.5678 -1.3742
11418SOL    HW235163   3.731   7.154   7.369  1.3400 -1.9813  0.6188
11419SOL     OW35164   6.341   6.533   2.678 -0.0279 -0.1190 -0.2690
11419SOL    HW135165   6.280   6.581   2.623  0.8739  0.5571 -0.7006
11419SOL    HW235166   6.286   6.471   2.726 -1.2418  1.3848  0.3671
11420SOL     OW35167   3.116   0.706   4.124 -0.5314 -0.5975 -0.1604
11420SOL    HW135168   3.139   0.704   4.031  1.9392  0.5022  0.3372
11420SOL    HW235169   3.053   0.777   4.132  2.5866  2.5241 -0.5216
11421SOL     OW35170   3.034   5.288   5.433 -0.1591 -0.0608  0.3834
11421SOL    HW135171   3.040   5.281   5.528 -0.3980 -1.4341  0.3147
11421SOL    HW235172   3.020   5.199   5.403 -1.5121  0.5186 -0.8424
11422SOL     OW35173   6.180   5.045   3.756  0.3056  0.1378  0.3792
11422SOL    HW135174   6.273   5.062   3.770  0.4925 -0.7975  0.3581
11422SOL    HW235175   6.165   5.068   3.664  0.6058 -0.0833  0.2746
11423SOL     OW35176   0.583   6.806   4.558  0.5812  0.3941 -0.5840
11423SOL    HW135177   0.635   6.832   4.634  3.2378 -0.7353 -1.8666
11423SOL    HW235178   0.546   6.888   4.525  0.3568  1.0530  1.1925
11424SOL     OW35179   3.764   5.947   6.431  0.2314 -0.2562  0.1427
11424SOL    HW135180   3.711   5.947   6.511 -0.1097  0.2122 -0.0798
11424SOL    HW235181   3.854   5.958   6.461  0.0335  0.6404  0.4160
11425SOL     OW35182   2.263   5.527   2.178  0.9004 -0.3150 -0.1543
11425SOL    HW135183   2.258   5.616   2.141 -0.6002 -0.7814 -1.1330
11425SOL    HW235184   2.266   5.541   2.273  3.0342  0.8361 -0.3203
11426SOL     OW35185   1.184   3.571   4.800 -0.3888 -0.0085  0.0487
11426SOL    HW135186   1.092   3.588   4.779 -0.6120 -1.5804 -0.3362
11426SOL    HW235187   1.184   3.553   4.894 -0.4225  0.2904  0.1071
11427SOL     OW35188   0.743   2.954   5.829 -0.4580  0.4306  0.2688
11427SOL    HW135189   0.830   2.916   5.815  0.1028  1.5201  0.6714
11427SOL    HW235190   0.683   2.896   5.781  0.3870 -0.7896  0.6472
11428SOL     OW35191   7.439   0.896   5.733 -0.1808  0.1511  0.2163
11428SOL    HW135192   7.529   0.881   5.702  0.0732 -1.2675  1.5457
11428SOL    HW235193   7.385   0.841   5.676 -0.2822  1.2533 -0.7983
11429SOL     OW35194   0.094   6.931   5.992  0.4286  0.1333  0.0503
11429SOL    HW135195   0.089   6.937   5.897  0.3421  1.5263  0.1156
11429SOL    HW235196   0.012   6.971   6.023  1.6435  2.2974  0.7214
11430SOL     OW35197   3.650   6.040   1.213 -0.1684 -0.1626 -0.1465
11430SOL    HW135198   3.610   6.122   1.242  0.4689 -0.5827  2.0705
11430SOL    HW235199   3.631   6.036   1.119  3.0081  4.4626 -1.3580
11431SOL     OW35200   5.260   2.894   5.553  0.1666 -0.7116  0.1826
11431SOL    HW135201   5.169   2.921   5.566  0.9728  1.6746  1.5376
11431SOL    HW235202   5.269   2.880   5.459 -1.2699  0.3467 -0.1288
11432SOL     OW35203   6.539   2.785   3.101 -0.3919 -0.0528 -0.3343
11432SOL    HW135204   6.470   2.758   3.041 -2.6864  0.9552  1.6482
11432SOL    HW235205   6.506   2.760   3.188  1.4966  1.0023  0.7630
11433SOL     OW35206   6.237   7.342   1.097 -0.2364  0.0617 -0.1602
11433SOL    HW135207   6.221   7.434   1.075 -0.9713 -0.0565 -0.1291
11433SOL    HW235208   6.283   7.307   1.021  0.6580  0.6248  0.1118
11434SOL     OW35209   3.716   1.675   5.104  0.2811 -0.3291 -0.4935
11434SOL    HW135210   3.676   1.600   5.147  0.4536  0.6271  1.4470
11434SOL    HW235211   3.655   1.697   5.033 -0.9770 -0.8675  0.3810
11435SOL     OW35212   4.916   0.572   6.005  0.5968  0.0868 -0.1232
11435SOL    HW135213   4.959   0.531   6.080  0.8635  0.2102 -0.2059
11435SOL    HW235214   4.950   0.525   5.929 -0.7952 -1.0453 -0.0934
11436SOL     OW35215   2.855   2.029   7.593  0.4476  0.2902  0.5050
11436SOL    HW135216   2.932   2.026   7.537  0.2304 -0.0506  0.2258
11436SOL    HW235217   2.874   1.966   7.663 -0.1861 -0.8654 -0.3469
11437SOL     OW35218   6.200   5.650   4.869  0.2851  0.1480  0.3790
11437SOL    HW135219   6.104   5.653   4.864 -0.0728  0.6395  4.3422
11437SOL    HW235220   6.220   5.557   4.879  0.2385  0.0620 -0.2689
11438SOL     OW35221   0.218   0.642   7.716  0.0546  0.2470  0.5775
11438SOL    HW135222   0.267   0.565   7.745 -0.4464  0.2755  1.5607
11438SOL    HW235223   0.152   0.608   7.656 -1.3880 -0.3992  2.4360
11439SOL     OW35224   0.335   0.007   1.733  0.0591  0.7547 -0.1520
11439SOL    HW135225   0.388   0.042   1.805 -0.4786 -0.4871  0.8992
11439SOL    HW235226   0.389  -0.062   1.695  0.6629  1.9148 -1.4967
11440SOL     OW35227   6.984   2.291   6.012 -0.0100  0.4729 -0.0566
11440SOL    HW135228   6.947   2.232   5.946  0.9333 -2.3115  1.7403
11440SOL    HW235229   7.078   2.288   5.995  0.2262 -0.1472  1.2313
11441SOL     OW35230   5.369   4.794   6.436  0.0285 -0.3618 -0.2547
11441SOL    HW135231   5.289   4.846   6.441  0.0942 -0.1015 -1.5938
11441SOL    HW235232   5.352   4.718   6.491 -0.6008  0.3784  0.5897
11442SOL     OW35233   5.976   0.210   0.863  0.5639 -0.0362 -0.0617
11442SOL    HW135234   6.024   0.141   0.818 -2.3302 -2.7085  0.5362
11442SOL    HW235235   6.032   0.235   0.937  2.7551  0.1152 -1.6966
11443SOL     OW35236   4.275   0.971   0.145  0.6608 -0.1552 -0.7938
11443SOL    HW135237   4.303   0.896   0.198 -2.1443 -0.5725  0.3080
11443SOL    HW235238   4.190   0.996   0.182 -0.2422  1.2134 -3.4769
11444SOL     OW35239   4.405   6.175   3.312  0.1514 -0.1426 -0.6191
11444SOL    HW135240   4.447   6.235   3.374 -1.7371  0.6275  0.0047
11444SOL    HW235241   4.417   6.088   3.349  0.5574  0.1352 -0.0944
11445SOL     OW35242   0.307   3.350   3.363  0.9680 -0.0132 -0.6071
11445SOL    HW135243   0.299   3.280   3.297  1.3450 -0.6538  0.0075
11445SOL    HW235244   0.362   3.416   3.321  1.6080 -0.6375 -0.7658
11446SOL     OW35245   4.183   0.481   3.365 -0.1767 -0.0750 -0.5201
11446SOL    HW135246   4.255   0.450   3.420  0.3158 -0.1944 -1.2170
11446SOL    HW235247   4.226   0.518   3.288 -0.8193  0.9043 -0.4248
11447SOL     OW35248   1.937   5.729   0.862  0.1150  0.3205  0.4106
11447SOL    HW135249   2.011   5.715   0.922 -1.0693  0.9424  2.0968
11447SOL    HW235250   1.978   5.741   0.776  1.8246 -1.5769  0.8890
11448SOL     OW35251   1.623   5.242   4.819 -0.3504  0.0804  0.1392
11448SOL    HW135252   1.611   5.250   4.724  1.0191  0.3935 -0.0272
11448SOL    HW235253   1.659   5.326   4.846 -3.5926  1.1855  1.4937
11449SOL     OW35254   3.637   4.981   3.844  0.2746 -0.0937  0.9428
11449SOL    HW135255   3.676   5.068   3.834  1.4107 -0.8528 -3.1790
11449SOL    HW235256   3.704   4.930   3.889  1.0544  0.3933  0.3613
11450SOL     OW35257   6.339   2.749   0.478  0.5521 -0.0056  0.3413
11450SOL    HW135258   6.332   2.791   0.564 -1.3022 -0.8306  0.6398
11450SOL    HW235259   6.328   2.821   0.416 -1.7814  0.1631  0.8433
11451SOL     OW35260   7.653   7.598   5.497 -0.2719  0.8380 -0.1771
11451SOL    HW135261   7.715   7.657   5.454  0.7236  0.0806  0.1803
11451SOL    HW235262   7.707   7.527   5.530 -1.5670 -0.9448 -1.6858
11452SOL     OW35263   0.084   0.562   7.246 -0.6289 -0.0961  0.0108
11452SOL    HW135264   0.083   0.634   7.183 -0.2849 -1.0369 -1.1081
11452SOL    HW235265   0.177   0.552   7.268 -0.5641 -0.7975 -0.5627
11453SOL     OW35266   7.298   4.621   5.788  0.4743  0.4546 -0.5107
11453SOL    HW135267   7.298   4.689   5.720  0.1148  0.3902 -0.5766
11453SOL    HW235268   7.208   4.619   5.819  0.1489 -0.9366 -1.4606
11454SOL     OW35269   1.694   2.003   1.793 -0.1365 -0.5427 -0.0847
11454SOL    HW135270   1.736   2.088   1.804 -0.9030 -0.1900  0.1423
11454SOL    HW235271   1.761   1.949   1.750 -0.1256  0.5875 -1.5719
11455SOL     OW35272   4.047   6.655   5.293 -0.6371  0.6533  0.1200
11455SOL    HW135273   4.113   6.595   5.330 -0.0769  2.1684  1.6908
11455SOL    HW235274   3.969   6.600   5.283  1.0893 -1.5654 -3.0529
11456SOL     OW35275   5.652   3.436   3.477  0.2496  0.3005  0.3134
11456SOL    HW135276   5.644   3.457   3.384  1.9195 -2.5092 -0.5955
11456SOL    HW235277   5.734   3.386   3.483  0.0921  0.2262  3.2833
11457SOL     OW35278   6.048   0.305   6.924 -0.0096  0.1113  0.1443
11457SOL    HW135279   5.980   0.371   6.920 -0.1329  0.0123  0.6124
11457SOL    HW235280   6.042   0.259   6.840  0.8888  1.4859 -0.7070
11458SOL     OW35281   4.748   1.031   3.765  0.2833 -0.7116  0.8130
11458SOL    HW135282   4.764   1.017   3.859 -0.1607 -0.0716  0.9871
11458SOL    HW235283   4.675   0.973   3.744 -1.3900  1.0730  1.4789
11459SOL     OW35284   1.891   4.855   4.906 -0.4379 -0.2240 -0.6802
11459SOL    HW135285   1.861   4.916   4.973 -0.7297 -1.5757  0.4657
11459SOL    HW235286   1.812   4.810   4.877 -0.3073  0.3090 -1.9266
11460SOL     OW35287   4.343   2.365   6.396 -0.1449 -0.2767 -0.2406
11460SOL    HW135288   4.327   2.272   6.383  0.8352 -0.4668 -0.1457
11460SOL    HW235289   4.310   2.383   6.485 -0.7652 -0.4216 -0.4381
11461SOL     OW35290   0.553   2.895   2.934  0.3696 -0.0767  0.3290
11461SOL    HW135291   0.522   2.947   3.008 -0.7275 -0.2679  0.0259
11461SOL    HW235292   0.529   2.805   2.957 -0.5680 -0.0660 -0.5235
11462SOL     OW35293   3.612   2.296   6.390  0.0370  0.2309 -0.5761
11462SOL    HW135294   3.654   2.247   6.319 -0.2686  0.3791 -0.8596
11462SOL    HW235295   3.518   2.287   6.374 -0.0340  0.2375 -0.1720
11463SOL     OW35296   4.290   1.638   6.751  0.3098 -0.3321  1.1656
11463SOL    HW135297   4.301   1.566   6.689  2.5899  0.9593 -0.0579
11463SOL    HW235298   4.252   1.709   6.698 -1.2921 -0.3775  2.1958
11464SOL     OW35299   7.624   7.743   0.181 -0.2739 -0.0992 -0.6041
11464SOL    HW135300   7.576   7.752   0.263  0.5773 -2.0982  0.1827
11464SOL    HW235301   7.619   7.650   0.160  1.2671  0.0234 -1.7178
11465SOL     OW35302   0.879   4.348   5.570  0.1208  0.4892 -0.4561
11465SOL    HW135303   0.837   4.262   5.575 -0.4658  0.6854 -1.7136
11465SOL    HW235304   0.951   4.336   5.508  0.0200  0.9020 -0.6580
11466SOL     OW35305   7.400   4.030   3.032  0.1290 -0.0558 -0.1273
11466SOL    HW135306   7.402   4.030   2.936  0.0283  0.4161 -0.1310
11466SOL    HW235307   7.307   4.042   3.053  0.4888  3.3040  0.0171
11467SOL     OW35308   3.682   0.008   3.054 -0.3166 -0.1451  0.3726
11467SOL    HW135309   3.761  -0.041   3.033 -0.3982 -0.5250  0.9408
11467SOL    HW235310   3.614  -0.059   3.064 -0.4405  0.0878  1.1111
11468SOL     OW35311   7.133   6.312   1.254 -0.4061 -0.5452 -0.1853
11468SOL    HW135312   7.227   6.330   1.248 -0.2508  1.2819  3.9748
11468SOL    HW235313   7.128   6.224   1.291 -0.0611  0.3429  2.1890
11469SOL     OW35314   6.120   1.410   0.381 -0.2076 -0.4067  0.0204
11469SOL    HW135315   6.062   1.485   0.368  2.1473  1.5024 -0.2012
11469SOL    HW235316   6.174   1.407   0.302  0.1884 -1.9483  0.3201
11470SOL     OW35317   7.277   4.896   3.560 -0.2056 -0.0587  0.1648
11470SOL    HW135318   7.217   4.971   3.552 -1.9083 -1.3297  0.6084
11470SOL    HW235319   7.347   4.916   3.497 -0.3425  2.1301  0.6203
11471SOL     OW35320   6.882   4.784   5.031  0.2882  0.3434 -0.0201
11471SOL    HW135321   6.901   4.827   5.114  0.5815  1.7236 -0.7669
11471SOL    HW235322   6.936   4.830   4.967 -0.0639 -0.5717 -1.0050
11472SOL     OW35323   3.778   4.486   1.345  0.0922 -0.5844 -0.1209
11472SOL    HW135324   3.717   4.460   1.276 -1.0510  0.9521  0.2473
11472SOL    HW235325   3.854   4.522   1.299  0.6554 -2.2966 -0.5824
11473SOL     OW35326   3.218   3.573   4.199 -0.2452 -0.7285 -0.1518
11473SOL    HW135327   3.212   3.592   4.292 -1.1118 -2.1774  0.1279
11473SOL    HW235328   3.260   3.487   4.195 -2.7051 -1.9883 -0.9031
11474SOL     OW35329   2.209   3.487   6.495 -0.4746  0.1106  0.5596
11474SOL    HW135330   2.209   3.538   6.414 -2.5825  1.3614  1.2726
11474SOL    HW235331   2.153   3.537   6.555  3.0742  0.6790  3.7561
11475SOL     OW35332   5.466   2.681   7.417 -0.1120  0.2875 -0.1062
11475SOL    HW135333   5.513   2.764   7.409 -0.5779  0.6622  0.9200
11475SOL    HW235334   5.491   2.647   7.503 -0.6998 -0.1440 -0.0952
11476SOL     OW35335   5.152   1.840   4.075 -0.3829  0.1788  0.7712
11476SOL    HW135336   5.239   1.819   4.109 -0.5894 -0.2044  1.0691
11476SOL    HW235337   5.115   1.901   4.140 -0.7761 -0.5507  1.2542
11477SOL     OW35338   2.096   6.181   6.930  0.6831  0.4530 -0.2104
11477SOL    HW135339   2.043   6.151   6.856  0.7181  0.4189 -0.2212
11477SOL    HW235340   2.167   6.231   6.890  1.5417 -0.7916 -0.2916
11478SOL     OW35341   1.507   6.659   1.907 -0.0988  0.7511  0.5889
11478SOL    HW135342   1.576   6.710   1.864  0.7694 -0.1780  0.8378
11478SOL    HW235343   1.431   6.717   1.908  0.5303  1.6103 -0.1547
11479SOL     OW35344   3.145   2.974   6.940 -0.0614 -0.2025  0.4671
11479SOL    HW135345   3.199   2.895   6.942  0.3819 -0.0118 -1.4219
11479SOL    HW235346   3.203   3.044   6.970  0.0872 -0.3443  0.5117
11480SOL     OW35347   1.948   0.752   2.204 -0.1735  0.2679 -0.4138
11480SOL    HW135348   1.868   0.705   2.177 -0.5189  0.6239 -0.0250
11480SOL    HW235349   1.923   0.844   2.201  0.0833  0.3572  0.1620
11481SOL     OW35350   2.726   4.214   5.019 -0.5193 -0.1582  0.6719
11481SOL    HW135351   2.757   4.131   4.984 -0.6201  0.2540 -0.4436
11481SOL    HW235352   2.707   4.267   4.941 -1.5574  0.5000  1.3507
11482SOL     OW35353   5.532   4.572   5.131  0.6004  0.2217  0.6274
11482SOL    HW135354   5.596   4.602   5.195  1.5419 -0.3816 -0.0052
11482SOL    HW235355   5.478   4.508   5.179  1.6257 -0.6138  0.6935
11483SOL     OW35356   4.798   0.935   5.912  0.2103 -0.2507 -0.0822
11483SOL    HW135357   4.714   0.976   5.932 -0.4046 -0.4305 -2.0427
11483SOL    HW235358   4.778   0.842   5.904  1.1631 -0.7152  2.0665
11484SOL     OW35359   4.799   5.669   3.983  0.3655  0.4121  0.5126
11484SOL    HW135360   4.742   5.610   4.033  1.1922 -1.2068 -0.3599
11484SOL    HW235361   4.739   5.734   3.946 -0.7887 -0.6265  0.4756
11485SOL     OW35362   6.592   0.695   6.568  0.1177  0.1853 -0.0923
11485SOL    HW135363   6.556   0.713   6.655  1.5251  1.0016  0.3517
11485SOL    HW235364   6.551   0.760   6.511 -2.9337 -2.0495 -0.6799
11486SOL     OW35365   4.029   5.581   0.328  0.3715  0.5579 -0.3075
11486SOL    HW135366   3.953   5.532   0.359  0.5339  0.7557  0.4386
11486SOL    HW235367   4.050   5.639   0.401  1.1223  0.6419 -0.5877
11487SOL     OW35368   4.257   4.185   6.443  0.0985  0.2100 -0.3923
11487SOL    HW135369   4.334   4.242   6.450  0.0802  0.2720 -0.6591
11487SOL    HW235370   4.183   4.245   6.454  0.0377  0.4871 -1.9654
11488SOL     OW35371   5.588   7.084   1.487  0.1898  0.0638  0.0914
11488SOL    HW135372   5.602   7.167   1.534 -0.5685  0.6558 -0.7193
11488SOL    HW235373   5.663   7.030   1.513  0.0707  0.5632  1.5721
11489SOL     OW35374   7.263   6.713   4.589  0.1945 -0.2507 -0.0210
11489SOL    HW135375   7.328   6.644   4.607  1.6434  1.4117  1.5702
11489SOL    HW235376   7.217   6.724   4.672 -0.1942  0.5043 -0.3279
11490SOL     OW35377   3.268   1.533   3.757  0.0191 -0.0370  0.1324
11490SOL    HW135378   3.284   1.442   3.730  2.6336 -0.9145  3.8372
11490SOL    HW235379   3.350   1.578   3.736 -1.6141  1.9080 -2.6407
11491SOL     OW35380   4.673   1.287   0.497  0.4610 -0.2793 -0.7868
11491SOL    HW135381   4.676   1.267   0.404  1.7238  0.7372 -1.0000
11491SOL    HW235382   4.606   1.354   0.506 -0.8177 -1.5257 -0.6898
11492SOL     OW35383   2.235   6.071   4.540  0.8927 -0.4570 -0.4428
11492SOL    HW135384   2.227   6.045   4.632 -2.4368 -0.1304 -0.4909
11492SOL    HW235385   2.240   5.989   4.491 -2.3989 -0.9518 -0.1706
11493SOL     OW35386   1.400   6.507   4.000  0.1670  0.1875  0.6332
11493SOL    HW135387   1.463   6.511   4.072  0.3164  0.4273  0.4889
11493SOL    HW235388   1.450   6.475   3.925 -0.0369 -0.2603  0.6881
11494SOL     OW35389   3.009   6.733   7.357  0.1839 -0.2617 -0.2612
11494SOL    HW135390   3.001   6.638   7.353 -2.2848 -0.1856  1.3085
11494SOL    HW235391   3.025   6.752   7.449 -0.5182  0.8915 -0.3588
11495SOL     OW35392   2.451   7.739   4.925 -0.1599  0.7525 -0.2517
11495SOL    HW135393   2.369   7.705   4.961  0.5462 -1.4060 -0.5401
11495SOL    HW235394   2.454   7.830   4.954 -1.4157  0.1555  1.9842
11496SOL     OW35395   7.123   4.454   3.550  0.2634 -0.0707  0.4258
11496SOL    HW135396   7.043   4.402   3.559 -0.4027  0.7061 -0.7566
11496SOL    HW235397   7.092   4.541   3.526  1.4430  0.4452  0.7410
11497SOL     OW35398   5.411   2.301   2.101 -0.2570  0.1690  0.0359
11497SOL    HW135399   5.323   2.271   2.083  0.2509 -0.9081 -0.7566
11497SOL    HW235400   5.441   2.247   2.174 -0.4969  1.0441  0.8073
11498SOL     OW35401   2.970   1.932   3.587  0.4352  0.2573 -0.3268
11498SOL    HW135402   2.883   1.941   3.626  0.2092 -0.2407 -0.7068
11498SOL    HW235403   2.994   1.841   3.604  0.6241  0.2256 -0.7516
11499SOL     OW35404   1.617   1.811   5.523  0.1026 -0.3005  0.1332
11499SOL    HW135405   1.686   1.875   5.538 -0.3556  0.1405  0.4083
11499SOL    HW235406   1.649   1.757   5.451  1.2391 -0.8410  1.0105
11500SOL     OW35407   1.525   3.661   0.025 -0.4469  0.5057  0.4628
11500SOL    HW135408   1.455   3.620  -0.025  0.3062  1.3389 -1.3689
11500SOL    HW235409   1.521   3.754  -0.000 -0.2649  1.0501  2.2712
11501SOL     OW35410   5.281   0.181   1.195  0.1329  0.6249  0.3319
11501SOL    HW135411   5.239   0.124   1.131  1.3179  0.8457 -0.6618
11501SOL    HW235412   5.326   0.121   1.254 -0.0958  0.4708  0.3536
11502SOL     OW35413   5.427   5.387   3.222 -0.0718  0.5880 -0.1830
11502SOL    HW135414   5.367   5.348   3.159 -0.4464 -1.0460  1.1072
11502SOL    HW235415   5.370   5.433   3.284  0.2465  1.6547 -0.6718
11503SOL     OW35416   2.741   3.724   4.546 -0.1097 -0.1861  1.2838
11503SOL    HW135417   2.717   3.635   4.521 -0.2375 -0.5074  2.4742
11503SOL    HW235418   2.743   3.772   4.464 -0.1422 -1.2597  0.6294
11504SOL     OW35419   3.995   3.505   0.901  0.6939 -0.4294 -0.4040
11504SOL    HW135420   3.922   3.549   0.944  1.3412  0.3051 -0.0250
11504SOL    HW235421   3.954   3.455   0.830 -0.1495  0.1649 -0.3588
11505SOL     OW35422   7.072   4.627   5.951 -0.3944 -0.2030  0.2054
11505SOL    HW135423   6.977   4.638   5.954 -0.4278 -0.1547 -0.6956
11505SOL    HW235424   7.096   4.599   6.040 -1.4578 -1.8578  0.0199
11506SOL     OW35425   6.791   3.269   6.563  0.0588 -0.3356 -0.6828
11506SOL    HW135426   6.727   3.325   6.607  1.4167  0.0774  0.8286
11506SOL    HW235427   6.839   3.329   6.505 -0.0026 -0.3885 -0.7894
11507SOL     OW35428   3.940   2.162   4.654  0.6542  0.1194  0.1875
11507SOL    HW135429   4.009   2.212   4.698  1.0179 -1.1678  1.1277
11507SOL    HW235430   3.947   2.187   4.562  1.2255  1.3090  0.5354
11508SOL     OW35431   3.573   3.572   4.634  0.3530 -0.3003 -0.4872
11508SOL    HW135432   3.497   3.581   4.576  0.8328 -0.5185 -1.1716
11508SOL    HW235433   3.644   3.618   4.587  0.9100 -1.0318 -0.3903
11509SOL     OW35434   0.065   0.672   5.898  0.4622  0.1610  0.0805
11509SOL    HW135435   0.052   0.614   5.823 -0.4495 -0.9843  1.0677
11509SOL    HW235436   0.054   0.760   5.863 -0.0356 -0.3538 -1.1065
11510SOL     OW35437   1.963   2.871   1.690  0.1159 -0.0443 -0.8714
11510SOL    HW135438   1.913   2.791   1.709 -0.4943  0.3229 -0.9191
11510SOL    HW235439   1.941   2.893   1.600  0.0321  0.3586 -0.7555
11511SOL     OW35440   7.699   1.534   3.063  0.3051  0.3246 -0.2150
11511SOL    HW135441   7.656   1.619   3.055  0.0378  0.2702  0.5732
11511SOL    HW235442   7.634   1.478   3.106  1.8767  0.8557  3.1828
11512SOL     OW35443   2.497   3.236   4.366 -0.0621 -0.4847  0.0950
11512SOL    HW135444   2.462   3.148   4.384 -0.1812 -0.3249  0.6663
11512SOL    HW235445   2.504   3.277   4.452  2.1545 -0.7403  0.0937
11513SOL     OW35446   1.087   3.253   5.198  0.4787 -0.2268  0.3924
11513SOL    HW135447   0.997   3.221   5.206  0.1975  0.6318  0.7654
11513SOL    HW235448   1.106   3.291   5.284  1.7729 -1.8299  0.8686
11514SOL     OW35449   2.133   0.819   6.679  0.3417  0.2183  0.1049
11514SOL    HW135450   2.037   0.816   6.673  0.2327  1.7623  0.6660
11514SOL    HW235451   2.164   0.775   6.600 -0.8471  1.6514 -1.2140
11515SOL     OW35452   0.436   0.712   2.056 -0.1836  0.1654  0.3679
11515SOL    HW135453   0.361   0.652   2.060  0.5095 -0.6975  0.8095
11515SOL    HW235454   0.473   0.698   1.968 -0.4079  0.4308  0.2302
11516SOL     OW35455   3.889   0.794   1.431 -0.0540  0.3968  0.3534
11516SOL    HW135456   3.836   0.731   1.383 -0.5781  1.4629 -0.5072
11516SOL    HW235457   3.911   0.862   1.367 -0.7674  1.8569  1.5867
11517SOL     OW35458   1.660   4.125   4.444  0.3738 -0.0745 -0.5017
11517SOL    HW135459   1.649   4.036   4.410  1.2565  0.1905 -1.5393
11517SOL    HW235460   1.582   4.172   4.416  0.1713 -0.3761 -0.4404
11518SOL     OW35461   6.960   7.343   3.813 -1.0113  0.0345  0.1851
11518SOL    HW135462   7.001   7.276   3.869  0.5905 -0.5217 -1.5492
11518SOL    HW235463   6.917   7.402   3.875  0.0081 -0.9761  1.9639
11519SOL     OW35464   0.920   2.414   3.223 -0.2127  0.3225 -0.1179
11519SOL    HW135465   1.000   2.370   3.255  0.7072  1.2411 -1.0763
11519SOL    HW235466   0.936   2.507   3.240 -1.7050  0.4226  0.9644
11520SOL     OW35467   0.019   3.562   3.498  0.6120  0.1743 -0.1330
11520SOL    HW135468   0.023   3.558   3.402  0.7601  0.9566 -0.1628
11520SOL    HW235469  -0.068   3.529   3.519  0.3292  0.6205 -0.5806
11521SOL     OW35470   1.056   7.696   0.317 -0.0634  0.0344  0.0441
11521SOL    HW135471   1.008   7.641   0.255 -1.2140 -0.0089  0.9349
11521SOL    HW235472   1.082   7.772   0.266  0.1143 -0.5670 -0.7945
11522SOL     OW35473   3.495   2.950   3.717 -0.0823 -0.3821  0.1677
11522SOL    HW135474   3.476   3.029   3.767  1.8511  1.0520 -1.2559
11522SOL    HW235475   3.557   2.902   3.771 -1.6587 -1.2842  1.2811
11523SOL     OW35476   4.574   1.986   2.300 -0.6921  0.2670  0.3902
11523SOL    HW135477   4.648   1.977   2.240 -0.7720 -2.2308  0.5599
11523SOL    HW235478   4.608   1.954   2.384 -1.4447  0.8594  0.9345
11524SOL     OW35479   1.092   3.403   0.183 -0.0318  0.0567 -0.4302
11524SOL    HW135480   1.090   3.499   0.193  2.0383  0.1031 -0.0888
11524SOL    HW235481   1.108   3.389   0.089 -0.1081  0.0592 -0.4433
11525SOL     OW35482   5.351   4.114   7.565  0.1594 -0.5144  0.0814
11525SOL    HW135483   5.321   4.195   7.607 -1.5252 -0.4756 -1.0743
11525SOL    HW235484   5.272   4.078   7.524  0.6887 -3.1410  1.1378
11526SOL     OW35485   6.629   0.816   6.082  0.3534  0.3999  0.8926
11526SOL    HW135486   6.655   0.883   6.145  0.6340 -0.3732  1.6172
11526SOL    HW235487   6.711   0.777   6.053  0.1393 -0.3949  1.3334
11527SOL     OW35488   3.996   4.259   2.635 -0.2557 -0.0203  0.5982
11527SOL    HW135489   4.046   4.308   2.701  0.8384 -1.3451  0.7941
11527SOL    HW235490   3.928   4.320   2.608 -0.5562  0.7035  2.7241
11528SOL     OW35491   3.119   6.388   4.459 -0.0473  0.4331  0.0959
11528SOL    HW135492   3.160   6.324   4.517 -0.1636  0.1345 -0.1523
11528SOL    HW235493   3.054   6.338   4.410 -0.6021  0.8663  0.3721
11529SOL     OW35494   6.954   3.714   2.234  0.2708 -0.7555  0.0824
11529SOL    HW135495   6.951   3.736   2.141 -0.3407 -0.4621  0.1609
11529SOL    HW235496   7.037   3.668   2.246  0.6001 -0.3158 -0.4985
11530SOL     OW35497   7.501   0.063   3.404  0.1438 -0.1859 -0.0214
11530SOL    HW135498   7.549  -0.009   3.445 -1.2061 -0.2740  1.5268
11530SOL    HW235499   7.426   0.077   3.462 -0.5655  1.3106 -1.2392
11531SOL     OW35500   3.821   3.808   1.304 -0.5453  0.1474  0.0485
11531SOL    HW135501   3.900   3.766   1.270 -1.4164 -3.1859  1.6536
11531SOL    HW235502   3.852   3.884   1.352  1.2668  1.0191 -2.3106
11532SOL     OW35503   2.329   6.590   4.108 -0.0314  0.7201 -0.1634
11532SOL    HW135504   2.356   6.514   4.057  1.2219  1.1229 -0.1307
11532SOL    HW235505   2.233   6.584   4.112 -0.0069 -0.3534 -0.9225
11533SOL     OW35506   7.701   6.824   2.580 -0.3621  0.7433 -0.2241
11533SOL    HW135507   7.648   6.902   2.562 -1.3979 -0.3925 -2.4360
11533SOL    HW235508   7.638   6.751   2.577  1.0747 -0.5198 -1.7255
11534SOL     OW35509   2.635   3.958   2.515 -0.0966  0.3642  0.7536
11534SOL    HW135510   2.678   3.991   2.593 -0.7751  1.9854  0.4928
11534SOL    HW235511   2.696   3.894   2.478  0.3254 -0.2577  2.4580
11535SOL     OW35512   2.981   1.247   5.327  0.0869 -0.8567 -0.2228
11535SOL    HW135513   3.033   1.240   5.407  1.3642 -0.5033 -0.9888
11535SOL    HW235514   2.997   1.165   5.280  2.3258  0.3893 -1.7969
11536SOL     OW35515   7.298   0.683   5.281  0.2135 -0.1416  0.3619
11536SOL    HW135516   7.287   0.588   5.277 -1.5029  0.0551 -2.5495
11536SOL    HW235517   7.385   0.699   5.244  0.0242 -0.5440 -0.2809
11537SOL     OW35518   4.652   0.023   0.311 -0.0809 -0.4151  0.1829
11537SOL    HW135519   4.620   0.095   0.256  0.9748  1.5453  1.9679
11537SOL    HW235520   4.591   0.021   0.385 -0.0224 -1.2908  0.2158
11538SOL     OW35521   2.776   1.777   6.794 -0.1157 -0.3685 -0.0287
11538SOL    HW135522   2.812   1.725   6.722 -0.6850 -0.7975 -0.0109
11538SOL    HW235523   2.723   1.715   6.844  0.8519 -0.2471  1.1877
11539SOL     OW35524   4.347   0.718   3.661  0.3735  0.4108  0.5166
11539SOL    HW135525   4.263   0.718   3.707  0.9656 -2.2960  1.7427
11539SOL    HW235526   4.398   0.786   3.706 -0.9523  1.8382 -0.0131
11540SOL     OW35527   1.638   5.543   3.939 -0.3071 -0.8250  0.1767
11540SOL    HW135528   1.659   5.531   4.031 -0.6553  1.0699  0.5465
11540SOL    HW235529   1.595   5.629   3.935 -2.7197 -2.0105 -1.3620
11541SOL     OW35530   5.664   3.595   4.927  0.3048  0.6410 -0.1689
11541SOL    HW135531   5.608   3.603   4.850  2.0589 -2.1239 -1.9298
11541SOL    HW235532   5.720   3.673   4.925  0.9887  0.1547 -2.3704
11542SOL     OW35533   0.344   1.319   2.172 -0.2156 -0.2267  0.1478
11542SOL    HW135534   0.414   1.280   2.120 -0.9715 -0.6815 -0.5598
11542SOL    HW235535   0.321   1.251   2.236 -2.2557 -1.4711 -1.7590
11543SOL     OW35536   6.130   2.841   2.457  0.4842  0.3472 -0.1593
11543SOL    HW135537   6.084   2.821   2.538  1.3167  2.6234  0.9458
11543SOL    HW235538   6.070   2.899   2.409 -0.3144 -1.5473 -1.5703
11544SOL     OW35539   1.027   3.602   4.148 -0.2946  0.6234 -0.2299
11544SOL    HW135540   0.965   3.575   4.080 -0.4531 -0.1587  0.2115
11544SOL    HW235541   1.096   3.536   4.145 -0.2460  0.6462  0.2863
11545SOL     OW35542   6.054   1.922   1.684  0.1384 -0.2009  0.3685
11545SOL    HW135543   6.035   1.829   1.681  1.8409 -0.5494 -0.8873
11545SOL    HW235544   6.138   1.928   1.731 -0.7919  0.8856  2.0089
11546SOL     OW35545   4.621   1.779   4.058  0.2335 -0.4878 -0.0088
11546SOL    HW135546   4.527   1.768   4.075  0.0349 -1.1931 -1.4047
11546SOL    HW235547   4.663   1.715   4.116 -0.2323 -0.9589 -0.1800
11547SOL     OW35548   4.921   6.457   5.699  0.3823  0.4986 -0.7776
11547SOL    HW135549   4.849   6.397   5.680 -1.2465  1.2563  2.3216
11547SOL    HW235550   4.984   6.405   5.749 -0.4080  1.0025  0.7797
11548SOL     OW35551   2.809   2.348   1.687  0.0615  0.6347  0.2585
11548SOL    HW135552   2.780   2.261   1.660  2.2688  0.1206 -0.5977
11548SOL    HW235553   2.880   2.370   1.627  0.9649  2.1332  1.7844
11549SOL     OW35554   2.717   7.511   2.354 -0.1379  0.1042  0.3889
11549SOL    HW135555   2.784   7.533   2.419  1.2355 -0.0912 -0.8991
11549SOL    HW235556   2.747   7.428   2.316 -1.3437 -0.2019  0.0650
11550SOL     OW35557   4.095   7.537   5.481 -0.7977  0.0260 -0.2167
11550SOL    HW135558   4.164   7.505   5.422 -0.6093  2.9614 -1.8123
11550SOL    HW235559   4.136   7.608   5.529 -1.3894 -1.3880  2.5862
11551SOL     OW35560   6.392   0.252   0.725  0.1439  0.7600  0.1392
11551SOL    HW135561   6.322   0.255   0.659  0.6864  0.1896 -0.4887
11551SOL    HW235562   6.472   0.271   0.675  0.7518 -1.1043  0.3139
11552SOL     OW35563   1.399   4.312   5.136  0.2959 -0.4101  0.5338
11552SOL    HW135564   1.483   4.275   5.110  1.7623  1.8525  1.7182
11552SOL    HW235565   1.421   4.383   5.196 -2.5091 -0.0656  1.3274
11553SOL     OW35566   0.059   1.317   4.622 -0.2491  0.0780  0.3915
11553SOL    HW135567   0.002   1.289   4.550 -0.3570 -0.7038  0.7689
11553SOL    HW235568   0.109   1.390   4.586  0.0748 -0.6404 -0.6526
11554SOL     OW35569   0.319   5.727   3.271  0.0198 -0.3426 -0.0815
11554SOL    HW135570   0.295   5.795   3.333  1.6652 -0.0550  0.2887
11554SOL    HW235571   0.352   5.655   3.324  0.0856 -0.6692 -0.5520
11555SOL     OW35572   3.183   6.527   2.264 -0.3673  0.2695  0.2192
11555SOL    HW135573   3.219   6.615   2.250  0.9104 -0.1023  1.0723
11555SOL    HW235574   3.116   6.539   2.331  0.6412  0.4145  1.2154
11556SOL     OW35575   0.834   4.330   7.621 -0.3498  0.3791  0.2257
11556SOL    HW135576   0.854   4.239   7.643 -0.5954  0.2935  0.0977
11556SOL    HW235577   0.756   4.350   7.673  0.1870  0.7807  0.8950
11557SOL     OW35578   4.288   4.231   1.803 -0.2318  0.3703 -0.1847
11557SOL    HW135579   4.326   4.147   1.777 -2.2081 -0.1770 -1.5666
11557SOL    HW235580   4.197   4.211   1.823 -0.6025  2.0954  0.0129
11558SOL     OW35581   2.048   5.674   6.765 -0.0548 -0.0445 -0.6049
11558SOL    HW135582   2.003   5.590   6.768 -0.1747  0.0361  0.7232
11558SOL    HW235583   2.069   5.693   6.857 -2.0013  2.4218 -0.5688
11559SOL     OW35584   5.540   0.081   6.981 -0.1834  0.0890  0.6110
11559SOL    HW135585   5.580   0.070   6.895  2.0542 -1.7346  1.7839
11559SOL    HW235586   5.558   0.173   7.004  1.7024 -0.1425  0.2560
11560SOL     OW35587   7.631   4.584   0.450  0.3811  0.4871  0.1662
11560SOL    HW135588   7.607   4.492   0.455 -2.8224  1.1827 -0.4847
11560SOL    HW235589   7.572   4.628   0.511  1.4789  2.1862  0.0736
11561SOL     OW35590   3.123   0.654   0.282 -0.0720  0.3379  0.1798
11561SOL    HW135591   3.125   0.744   0.315 -0.7935 -0.2197  1.8878
11561SOL    HW235592   3.069   0.658   0.204  0.4264  1.4760 -0.1374
11562SOL     OW35593   6.359   2.524   6.279 -0.6535  0.5924 -0.0389
11562SOL    HW135594   6.301   2.448   6.277  1.6394 -1.3610  1.4077
11562SOL    HW235595   6.358   2.552   6.371  0.6906  0.4744  0.0305
11563SOL     OW35596   1.883   0.331   6.585  0.2398  0.2033  0.3061
11563SOL    HW135597   1.915   0.383   6.511 -0.7529  0.0100 -0.2753
11563SOL    HW235598   1.963   0.300   6.628  0.8466  1.3777  0.0904
11564SOL     OW35599   4.296   1.971   1.233 -0.5644  0.8403  0.0727
11564SOL    HW135600   4.300   1.933   1.321 -0.9333 -0.8863 -0.6120
11564SOL    HW235601   4.287   2.065   1.248  2.7434  1.0112  1.8597
11565SOL     OW35602   2.209   3.335   4.455 -0.3423 -0.2841  0.8523
11565SOL    HW135603   2.296   3.322   4.416 -0.1288  1.1052  0.8385
11565SOL    HW235604   2.184   3.424   4.431 -2.9043 -1.4196 -1.2895
11566SOL     OW35605   3.703   6.432   2.581 -0.0511 -0.5126  0.0026
11566SOL    HW135606   3.701   6.336   2.588 -1.0590 -0.4741  0.3942
11566SOL    HW235607   3.623   6.454   2.534  0.5689  0.0995 -0.8006
11567SOL     OW35608   4.668   7.158   7.491  0.6511 -0.0701 -0.0471
11567SOL    HW135609   4.677   7.140   7.584  1.7277 -0.5403 -0.2283
11567SOL    HW235610   4.757   7.151   7.456  0.2509 -0.0128 -1.1305
11568SOL     OW35611   6.897   0.589   7.027 -0.0965  0.3952  0.5674
11568SOL    HW135612   6.937   0.572   7.112  0.4633  0.1620  0.2589
11568SOL    HW235613   6.822   0.529   7.023 -1.2470  1.6886  1.6577
11569SOL     OW35614   2.077   1.167   5.421 -0.4761  0.0994 -0.1964
11569SOL    HW135615   1.985   1.167   5.394 -0.5222  0.3072 -0.0362
11569SOL    HW235616   2.075   1.188   5.514 -0.4266 -2.2534  0.3945
11570SOL     OW35617   1.592   5.691   1.321  0.5961 -0.5525 -0.5668
11570SOL    HW135618   1.603   5.628   1.250 -0.4344 -0.4946 -0.7871
11570SOL    HW235619   1.606   5.639   1.401  0.9278 -0.7964 -0.7786
11571SOL     OW35620   6.079   2.587   3.581 -0.9009 -0.0593 -0.3410
11571SOL    HW135621   6.101   2.498   3.609 -1.8570  0.0846  0.9446
11571SOL    HW235622   6.082   2.639   3.662  2.5300  1.7609 -1.4110
11572SOL     OW35623   0.737   0.512   4.737 -0.1634  0.2204  0.6551
11572SOL    HW135624   0.733   0.608   4.736 -0.4458  0.2088  0.7804
11572SOL    HW235625   0.736   0.489   4.829  1.4608  0.1580  0.6896
11573SOL     OW35626   5.647   7.193   7.116 -0.5132  0.7703  0.1200
11573SOL    HW135627   5.682   7.131   7.052 -1.6426 -0.2746  0.4858
11573SOL    HW235628   5.571   7.232   7.072 -1.3783 -0.0535  0.8324
11574SOL     OW35629   0.969   4.756   3.231 -0.1887  0.1874  0.3075
11574SOL    HW135630   1.000   4.687   3.290  0.0595 -0.3786 -0.4676
11574SOL    HW235631   0.905   4.805   3.282 -0.7131 -0.9059  0.7285
11575SOL     OW35632   4.573   2.422   2.255  0.1574  0.0037  0.0492
11575SOL    HW135633   4.609   2.487   2.195  0.7736  1.1846  1.6502
11575SOL    HW235634   4.533   2.473   2.326  0.3240 -1.3433  1.1633
11576SOL     OW35635   1.266   0.281   0.973  0.1752  0.5735  0.1618
11576SOL    HW135636   1.186   0.257   0.926  0.3136 -0.5653  0.4751
11576SOL    HW235637   1.295   0.200   1.014  1.4350  0.9962  0.1533
11577SOL     OW35638   0.010   2.484   0.051  0.2375  0.3270  0.6358
11577SOL    HW135639  -0.062   2.470   0.112  0.5203  1.8966  1.3632
11577SOL    HW235640  -0.008   2.569   0.011 -0.0976 -0.7805 -1.7325
11578SOL     OW35641   2.509   2.604   4.790  0.2423 -0.3268  0.1154
11578SOL    HW135642   2.518   2.524   4.739  0.5897 -0.6047  0.6089
11578SOL    HW235643   2.541   2.673   4.733 -3.2806  0.0292 -1.7293
11579SOL     OW35644   2.188   7.228   7.451  0.4369 -0.8333 -0.0416
11579SOL    HW135645   2.130   7.171   7.502  1.7298 -2.0287  0.1611
11579SOL    HW235646   2.170   7.205   7.360 -0.3069 -0.2851 -0.0355
11580SOL     OW35647   0.079   1.508   4.368 -0.2693  0.5527  0.4676
11580SOL    HW135648  -0.013   1.501   4.342  0.1216  2.3002 -1.7030
11580SOL    HW235649   0.118   1.566   4.302  2.8153 -1.5518  0.2071
11581SOL     OW35650   4.866   1.827   1.252 -0.3457 -0.1018  0.5158
11581SOL    HW135651   4.829   1.902   1.205  1.1704  0.6822  0.5236
11581SOL    HW235652   4.906   1.773   1.184 -1.1618 -0.7592  0.5462
11582SOL     OW35653   7.470   6.623   1.347  0.2461 -0.4935  0.1875
11582SOL    HW135654   7.489   6.629   1.440 -1.6805 -2.3777  0.7839
11582SOL    HW235655   7.424   6.704   1.325 -1.2359 -0.9618  1.4272
11583SOL     OW35656   2.738   2.435   1.338  0.8034 -0.1839 -0.3195
11583SOL    HW135657   2.665   2.424   1.398  1.9630 -0.6692  1.0467
11583SOL    HW235658   2.740   2.529   1.319 -0.9898 -0.3345 -1.4941
11584SOL     OW35659   4.032   2.506   0.675  0.4478 -0.1614 -0.2623
11584SOL    HW135660   4.053   2.583   0.623  1.5558 -0.6800 -0.6132
11584SOL    HW235661   3.940   2.519   0.701  0.8639  1.6894  0.4484
11585SOL     OW35662   3.317   5.623   7.346 -0.7130  0.5878 -0.0089
11585SOL    HW135663   3.312   5.657   7.436 -1.9757 -0.4092  0.3275
11585SOL    HW235664   3.232   5.583   7.331 -0.5003  0.6781 -1.6508
11586SOL     OW35665   7.326   1.768   3.584  0.3356  0.3376 -0.0399
11586SOL    HW135666   7.251   1.826   3.589 -0.0195 -0.0663 -0.5553
11586SOL    HW235667   7.394   1.821   3.542  0.0520  0.4215 -0.3961
11587SOL     OW35668   5.105   5.678   5.862  0.5698 -0.1972  0.3052
11587SOL    HW135669   5.150   5.665   5.779 -0.3445  4.8389 -1.2724
11587SOL    HW235670   5.035   5.612   5.861  1.3161 -1.0859 -2.3167
11588SOL     OW35671   3.000   1.607   3.390 -0.0851  0.5350  0.0079
11588SOL    HW135672   3.019   1.609   3.484 -0.5650 -2.1567  0.2372
11588SOL    HW235673   3.062   1.670   3.353 -1.6237  3.6927  2.2904
11589SOL     OW35674   4.987   7.664   3.642 -0.0186 -0.3077 -0.5680
11589SOL    HW135675   4.978   7.671   3.737  0.7651 -2.0368 -0.3336
11589SOL    HW235676   5.017   7.751   3.615  1.4710 -0.2772  0.9946
11590SOL     OW35677   2.381   3.583   5.975 -0.9775 -0.3471 -0.4416
11590SOL    HW135678   2.386   3.678   5.981 -1.9480 -0.3558  1.0162
11590SOL    HW235679   2.435   3.552   6.048 -1.4865 -0.8748 -0.2795
11591SOL     OW35680   2.194   0.161   0.529 -0.7415 -0.0567 -0.3129
11591SOL    HW135681   2.288   0.166   0.548 -0.6301 -0.4825 -0.7532
11591SOL    HW235682   2.157   0.238   0.573  0.1049  1.3014 -1.8720
11592SOL     OW35683   2.934   3.389   1.426  0.2093 -0.0568  0.3506
11592SOL    HW135684   2.933   3.297   1.401 -1.8805 -0.0613  0.3030
11592SOL    HW235685   2.889   3.434   1.355  1.0839  1.0100  0.4361
11593SOL     OW35686   4.056   4.552   7.614 -0.1016  0.0238 -0.0755
11593SOL    HW135687   4.020   4.638   7.596  0.7094  0.6272  1.0814
11593SOL    HW235688   4.150   4.566   7.623  0.2255 -1.2085 -1.1811
11594SOL     OW35689   6.601   5.777   6.550  0.2365 -0.3958  0.0085
11594SOL    HW135690   6.524   5.754   6.499 -1.2077 -0.1698  1.9698
11594SOL    HW235691   6.575   5.856   6.597  2.2084  0.5336 -0.3814
11595SOL     OW35692   4.025   5.674   5.108  0.1906  0.6402  0.4712
11595SOL    HW135693   3.959   5.727   5.062  0.6461  0.3549 -0.5299
11595SOL    HW235694   3.978   5.597   5.137  0.1119  0.3317 -0.4352
11596SOL     OW35695   0.524   7.457   0.453 -0.0338  0.1308 -0.0836
11596SOL    HW135696   0.478   7.469   0.537  0.2662  2.3166 -0.1709
11596SOL    HW235697   0.487   7.523   0.396  1.5755  0.4016 -0.8759
11597SOL     OW35698   0.272   1.204   7.240 -0.6143  0.3952 -0.1520
11597SOL    HW135699   0.255   1.260   7.164  2.8576  3.1836  0.8760
11597SOL    HW235700   0.192   1.212   7.293 -0.9493  3.0804 -0.8771
11598SOL     OW35701   1.837   7.604   4.930  0.2366  0.1168  0.1060
11598SOL    HW135702   1.906   7.586   4.993  1.8211  1.4473 -1.1317
11598SOL    HW235703   1.853   7.695   4.903 -1.7112  0.2960 -0.5928
11599SOL     OW35704   0.058   3.837   5.961  0.2144 -0.4428 -0.2411
11599SOL    HW135705  -0.008   3.834   5.891 -0.1189 -0.9559  0.0951
11599SOL    HW235706   0.138   3.805   5.919 -0.3531 -2.2993  0.0142
11600SOL     OW35707   2.212   6.658   1.714  0.8144  0.2161 -0.8525
11600SOL    HW135708   2.248   6.717   1.781 -1.1883  0.5549 -0.0177
11600SOL    HW235709   2.219   6.708   1.633 -0.4649  1.4896 -0.2229
11601SOL     OW35710   3.401   0.409   1.552 -0.2600  0.2399 -0.0475
11601SOL    HW135711   3.375   0.486   1.502 -0.2069 -0.0446 -0.5237
11601SOL    HW235712   3.461   0.442   1.618 -1.0087  0.7530  0.3922
11602SOL     OW35713   4.942   5.087   1.752  0.4263  0.0359 -0.0329
11602SOL    HW135714   4.995   5.046   1.821  0.7031 -0.9467 -0.8075
11602SOL    HW235715   4.859   5.040   1.753 -0.2494  1.1874  0.7824
11603SOL     OW35716   2.413   5.969   0.984 -0.2655  0.0752  0.6533
11603SOL    HW135717   2.408   5.959   0.889 -0.1279  0.7320  0.5718
11603SOL    HW235718   2.415   5.880   1.017  1.0917 -0.1844 -0.0479
11604SOL     OW35719   7.178   1.690   6.449 -0.2720 -0.2419  0.1310
11604SOL    HW135720   7.237   1.764   6.438  0.1149 -0.4293  0.8535
11604SOL    HW235721   7.143   1.673   6.362 -0.4211  0.8366 -0.0251
11605SOL     OW35722   1.244   5.962   3.811 -0.3020 -0.2640  0.2094
11605SOL    HW135723   1.195   5.992   3.887 -1.2123 -1.4297  0.1207
11605SOL    HW235724   1.205   6.009   3.737 -2.4636 -2.3149 -0.0749
11606SOL     OW35725   4.464   4.385   2.989 -0.0001 -0.1430 -0.1122
11606SOL    HW135726   4.422   4.460   3.030  1.4556 -0.5261  2.2356
11606SOL    HW235727   4.459   4.315   3.055  0.6192 -1.4491 -1.3830
11607SOL     OW35728   4.039   4.567   2.538 -0.3147  0.2097 -0.1114
11607SOL    HW135729   4.111   4.602   2.486  0.9504 -3.4701 -1.1496
11607SOL    HW235730   4.080   4.542   2.621 -0.9643  0.3699  0.2648
11608SOL     OW35731   3.593   5.270   4.275  0.0563  0.7432 -0.1284
11608SOL    HW135732   3.609   5.212   4.349 -0.6494 -0.9890 -1.2702
11608SOL    HW235733   3.678   5.276   4.231  0.1768  0.7470  0.1003
11609SOL     OW35734   3.707   5.595   2.940  0.3729 -0.9670 -0.4572
11609SOL    HW135735   3.721   5.503   2.917  1.0643 -0.8267 -0.6322
11609SOL    HW235736   3.684   5.593   3.033 -0.2535 -1.3640 -0.6122
11610SOL     OW35737   5.625   4.475   2.693  0.3752 -0.1974  0.1860
11610SOL    HW135738   5.601   4.450   2.783  0.3613  2.0775  0.8691
11610SOL    HW235739   5.542   4.473   2.645  0.0399  0.4495  0.7194
11611SOL     OW35740   7.648   5.694   7.476 -0.2137  0.0457  0.1247
11611SOL    HW135741   7.714   5.700   7.546 -0.4362 -2.1313  0.5782
11611SOL    HW235742   7.567   5.722   7.518  0.1556  1.6497 -0.1365
11612SOL     OW35743   3.694   5.717   2.382  0.1636  0.7750 -0.0634
11612SOL    HW135744   3.736   5.677   2.458 -0.0429  2.4420  0.9867
11612SOL    HW235745   3.623   5.657   2.358  1.9411 -1.1804 -0.7335
11613SOL     OW35746   5.630   3.632   0.851  0.4904  0.2922  0.3154
11613SOL    HW135747   5.617   3.650   0.758 -0.5626  0.0674  0.4074
11613SOL    HW235748   5.565   3.686   0.896 -0.7306 -1.4741  0.7618
11614SOL     OW35749   1.244   7.327   3.888  0.2199 -0.8202 -0.4279
11614SOL    HW135750   1.226   7.378   3.809  1.0000 -0.1184 -0.1668
11614SOL    HW235751   1.164   7.333   3.940  0.6745  1.1995  0.1510
11615SOL     OW35752   6.421   6.944   6.433  0.2294  0.4613 -0.0972
11615SOL    HW135753   6.455   6.855   6.434  0.2057  0.4112 -1.4499
11615SOL    HW235754   6.358   6.947   6.504 -0.5946 -0.9349 -0.7356
11616SOL     OW35755   6.109   0.870   0.986 -0.6514 -0.1935 -0.4397
11616SOL    HW135756   6.073   0.909   0.907 -1.6302  0.7443  0.4352
11616SOL    HW235757   6.120   0.778   0.965  1.0834  0.3618 -2.3504
11617SOL     OW35758   1.877   4.840   5.413  0.4358 -0.9166 -0.5145
11617SOL    HW135759   1.948   4.783   5.444  1.1813 -0.0972 -0.6723
11617SOL    HW235760   1.865   4.903   5.484  0.5233 -0.4793 -0.8822
11618SOL     OW35761   7.447   7.414   3.578  0.3546 -0.1029 -0.6176
11618SOL    HW135762   7.430   7.411   3.484 -1.3360  0.3355 -0.3598
11618SOL    HW235763   7.367   7.380   3.618  0.9094  0.0630  0.6829
11619SOL     OW35764   6.935   0.492   0.349  0.2125  0.0925  0.1955
11619SOL    HW135765   7.019   0.538   0.352  0.1730  0.1366  1.1031
11619SOL    HW235766   6.871   0.559   0.374 -0.2612  0.3896 -1.7150
11620SOL     OW35767   3.883   1.780   1.032 -0.7308 -0.0368 -0.1030
11620SOL    HW135768   3.958   1.813   0.983 -0.8534  2.5712  1.2597
11620SOL    HW235769   3.916   1.767   1.121 -1.2051 -1.8602 -0.1516
11621SOL     OW35770   4.197   1.413   0.118 -0.5584  0.2208 -0.0022
11621SOL    HW135771   4.121   1.382   0.070  0.1896 -2.4966  0.4236
11621SOL    HW235772   4.268   1.354   0.092  0.8468  1.2374  1.3432
11622SOL     OW35773   1.680   2.869   3.198  0.0042 -0.4383 -0.5668
11622SOL    HW135774   1.598   2.828   3.174 -0.5180 -0.1241  0.5937
11622SOL    HW235775   1.723   2.889   3.115 -1.1959 -0.3807 -1.1888
11623SOL     OW35776   5.979   4.679   5.981  0.3641 -0.2946 -0.2798
11623SOL    HW135777   5.928   4.760   5.969  0.2515 -0.3814 -0.3846
11623SOL    HW235778   5.978   4.665   6.076 -1.5700 -1.4261 -0.4201
11624SOL     OW35779   0.823   4.796   6.318  0.3837 -0.3229  0.9160
11624SOL    HW135780   0.775   4.834   6.245 -1.5697  1.0532  2.7814
11624SOL    HW235781   0.757   4.746   6.367  0.9596  0.9792  3.1521
11625SOL     OW35782   4.191   4.788   2.464 -0.1898  0.2396 -0.3671
11625SOL    HW135783   4.282   4.798   2.434  0.1674 -0.8571  0.2978
11625SOL    HW235784   4.143   4.762   2.386  0.8897 -3.4638  0.0291
11626SOL     OW35785   1.390   2.175   3.468  0.1333 -0.6264  0.1807
11626SOL    HW135786   1.424   2.180   3.558 -0.1724 -0.8115  0.3059
11626SOL    HW235787   1.422   2.255   3.427 -1.2516  0.3796  0.9766
11627SOL     OW35788   0.244   6.532   3.110 -0.1727  0.0072  0.1868
11627SOL    HW135789   0.292   6.467   3.161  1.0791 -0.0298 -0.9992
11627SOL    HW235790   0.207   6.590   3.176  1.8824  0.2986  1.1731
11628SOL     OW35791   1.776   6.269   7.026 -0.3629  0.4227  0.3919
11628SOL    HW135792   1.794   6.228   7.111 -0.6715  0.5813  0.5345
11628SOL    HW235793   1.771   6.363   7.046  0.9859  0.6165 -0.0315
11629SOL     OW35794   7.685   3.941   6.666 -0.0893 -0.3713 -0.5591
11629SOL    HW135795   7.729   3.872   6.715  1.2600  0.4554 -0.5719
11629SOL    HW235796   7.635   3.990   6.732  1.0385  0.2163 -0.1093
11630SOL     OW35797   6.113   3.181   3.474  0.8156  0.3396 -0.8766
11630SOL    HW135798   6.137   3.118   3.406  2.7379 -0.2076  0.2191
11630SOL    HW235799   6.177   3.252   3.464  1.4368  0.0322  0.5940
11631SOL     OW35800   2.629   1.174   3.619 -0.3013 -0.4069  0.3476
11631SOL    HW135801   2.722   1.174   3.599  0.1278 -1.2039  2.1547
11631SOL    HW235802   2.591   1.109   3.559  0.0992  0.6192 -1.0687
11632SOL     OW35803   6.037   0.506   2.914 -0.1761  0.0322 -0.2975
11632SOL    HW135804   6.117   0.473   2.956  1.1895  2.6455 -0.6906
11632SOL    HW235805   6.006   0.575   2.973 -0.2960  1.2561 -1.7568
11633SOL     OW35806   6.292   6.567   7.639 -0.3846 -0.1931  0.0494
11633SOL    HW135807   6.207   6.533   7.667 -1.5453  1.5587 -1.1529
11633SOL    HW235808   6.345   6.566   7.719 -2.2086  0.5973  1.3423
11634SOL     OW35809   7.687   6.175   0.228  0.0542  0.1030 -0.2336
11634SOL    HW135810   7.632   6.163   0.150 -2.5537 -1.8573  1.7185
11634SOL    HW235811   7.626   6.172   0.301  2.4046  1.7196  1.9721
11635SOL     OW35812   5.216   1.450   6.246 -0.0491  0.6733  0.5607
11635SOL    HW135813   5.254   1.365   6.269 -0.7308  0.0316 -0.6079
11635SOL    HW235814   5.122   1.435   6.242 -0.0137  0.5999 -2.8503
11636SOL     OW35815   7.648   6.301   7.236  0.2895 -0.5305  0.3727
11636SOL    HW135816   7.690   6.271   7.155 -0.0829  0.0930 -0.0526
11636SOL    HW235817   7.557   6.271   7.228 -0.4546  1.8133 -0.6753
11637SOL     OW35818   2.774   1.809   3.840 -0.1799  0.3234 -0.1967
11637SOL    HW135819   2.765   1.757   3.919  0.8592 -0.5793 -0.6490
11637SOL    HW235820   2.691   1.857   3.833 -1.1045 -1.1267  0.3294
11638SOL     OW35821   6.912   3.292   2.803  0.2612  0.0150  0.2606
11638SOL    HW135822   6.900   3.387   2.801 -0.6088 -0.0812  0.3365
11638SOL    HW235823   6.979   3.277   2.869  0.7125  0.5999 -0.0532
11639SOL     OW35824   0.402   6.582   3.687 -0.0637 -0.2258 -0.0755
11639SOL    HW135825   0.437   6.669   3.666 -1.5243  0.6389  0.8673
11639SOL    HW235826   0.312   6.585   3.655 -0.7816 -0.6244  1.7856
11640SOL     OW35827   2.798   7.298   0.587  0.3267  0.0488 -0.1309
11640SOL    HW135828   2.728   7.326   0.528  0.2241 -1.2618 -0.6554
11640SOL    HW235829   2.764   7.218   0.629  1.5714 -0.7138 -0.5384
11641SOL     OW35830   7.426   7.325   2.276 -0.9030 -0.2013  0.2364
11641SOL    HW135831   7.452   7.235   2.255 -1.2276 -0.1103 -0.5855
11641SOL    HW235832   7.412   7.366   2.190 -2.6445  0.0761  0.6245
11642SOL     OW35833   4.033   2.344   7.646  0.0806 -0.3434 -0.3200
11642SOL    HW135834   4.016   2.356   7.552 -0.9075  3.4753  0.2021
11642SOL    HW235835   4.118   2.301   7.649  0.8802  0.8500 -2.9958
11643SOL     OW35836   2.096   5.078   4.698 -0.1289 -0.3499 -0.2305
11643SOL    HW135837   2.117   4.987   4.718  1.1714  0.1912  1.0700
11643SOL    HW235838   2.025   5.099   4.758  0.7901 -0.0197  0.7868
11644SOL     OW35839   3.438   1.808   4.295 -0.0275 -0.2912 -0.0733
11644SOL    HW135840   3.365   1.869   4.282  0.8069  0.6979 -0.3480
11644SOL    HW235841   3.479   1.837   4.377  0.9015  0.1160 -0.6534
11645SOL     OW35842   1.088   7.660   2.770 -0.5330  0.2710  0.2673
11645SOL    HW135843   1.149   7.622   2.707 -1.2005  0.5582 -0.5630
11645SOL    HW235844   1.094   7.602   2.846  0.4723  0.0731  0.0516
11646SOL     OW35845   1.415   7.025   2.149 -0.8464  0.0038 -0.3336
11646SOL    HW135846   1.439   6.941   2.189 -2.2927 -0.0172  0.5889
11646SOL    HW235847   1.367   7.072   2.218  0.8501  2.0721 -0.4700
11647SOL     OW35848   0.022   2.296   4.291 -0.2869 -0.2335 -0.4839
11647SOL    HW135849  -0.009   2.387   4.282  1.6626  0.4835 -0.3353
11647SOL    HW235850   0.055   2.274   4.204 -1.6134 -1.1706 -0.7756
11648SOL     OW35851   5.293   1.638   3.664 -0.2080  0.1852  0.3049
11648SOL    HW135852   5.355   1.573   3.696  0.8016  1.3548  0.8302
11648SOL    HW235853   5.226   1.643   3.733  0.2636  0.4280  0.7514
11649SOL     OW35854   5.727   7.234   0.982 -0.3837 -0.3786 -0.4385
11649SOL    HW135855   5.662   7.193   0.924 -1.0312  1.0135 -0.7442
11649SOL    HW235856   5.781   7.287   0.923  0.0733 -0.3331  0.0168
11650SOL     OW35857   4.802   7.331   1.589 -0.3706 -0.3073  0.1007
11650SOL    HW135858   4.808   7.427   1.586 -0.8343 -0.1588  2.4685
11650SOL    HW235859   4.802   7.305   1.497  1.4682  1.8405 -0.6065
11651SOL     OW35860   5.781   1.629   7.525  0.4970 -0.7107 -0.2001
11651SOL    HW135861   5.724   1.687   7.474  0.6205  0.5907  1.0720
11651SOL    HW235862   5.761   1.541   7.493  0.2354  0.0079 -2.1232
11652SOL     OW35863   0.982   4.199   3.702 -0.4029 -0.0940  0.1141
11652SOL    HW135864   1.049   4.246   3.750  0.3514 -1.3465  0.3248
11652SOL    HW235865   0.999   4.220   3.610 -0.4002  0.4340  0.2314
11653SOL     OW35866   6.136   2.117   5.011 -0.3322  0.1424 -0.1079
11653SOL    HW135867   6.045   2.087   5.020  0.9802 -3.7403  3.1866
11653SOL    HW235868   6.168   2.070   4.934 -0.8141  0.7237 -0.6730
11654SOL     OW35869   2.893   4.775   1.968 -0.3888  0.1176 -0.2786
11654SOL    HW135870   2.903   4.752   2.060  0.0418  0.9227 -0.1110
11654SOL    HW235871   2.943   4.856   1.958  0.7795 -0.7208 -1.5408
11655SOL     OW35872   4.751   6.789   5.127 -0.2525  0.4750 -0.1676
11655SOL    HW135873   4.677   6.746   5.084  0.6778 -1.3857 -0.0002
11655SOL    HW235874   4.720   6.809   5.215 -0.8891  0.6721 -0.4326
11656SOL     OW35875   5.111   1.073   1.644 -0.0337 -0.3343 -0.8269
11656SOL    HW135876   5.189   1.096   1.694 -1.3513  0.0262  1.1852
11656SOL    HW235877   5.083   0.989   1.680 -0.0390 -0.9491 -2.2146
11657SOL     OW35878   3.161   0.099   1.316 -0.0815  0.0776  0.0839
11657SOL    HW135879   3.078   0.071   1.355  0.9660 -0.9439  1.6927
11657SOL    HW235880   3.184   0.028   1.256  0.1753 -0.1712  0.4768
11658SOL     OW35881   0.347   2.975   4.941 -0.4267  0.4852 -0.6760
11658SOL    HW135882   0.441   2.994   4.942 -0.6964  2.2579  1.7418
11658SOL    HW235883   0.338   2.895   4.993 -0.4550  2.5126  2.7321
11659SOL     OW35884   3.646   2.533   5.886  0.3146 -0.0715 -0.1447
11659SOL    HW135885   3.626   2.617   5.927 -0.1137 -1.4422  2.7354
11659SOL    HW235886   3.738   2.517   5.907  0.3116 -0.4643 -0.4141
11660SOL     OW35887   2.210   0.527   0.134 -0.0317 -0.2704  0.1466
11660SOL    HW135888   2.187   0.599   0.076  0.3907  0.0865  0.4122
11660SOL    HW235889   2.145   0.530   0.203 -0.3928 -0.5457 -0.1783
11661SOL     OW35890   2.371   6.897   7.733  0.0549  0.0388 -0.0938
11661SOL    HW135891   2.425   6.818   7.742 -0.4070 -0.1729  0.8877
11661SOL    HW235892   2.413   6.961   7.791 -0.4744  0.0251  0.3031
11662SOL     OW35893   5.806   7.705   0.216 -0.3438  0.1033  0.1403
11662SOL    HW135894   5.837   7.626   0.172 -1.5954 -0.2597 -0.1481
11662SOL    HW235895   5.763   7.674   0.295 -1.5104  0.3881 -0.3436
11663SOL     OW35896   0.491   1.253   6.207  0.1485 -0.4300 -0.9043
11663SOL    HW135897   0.571   1.279   6.162  1.2006 -0.8148  0.6588
11663SOL    HW235898   0.499   1.291   6.295 -1.0716 -1.0103 -0.5167
11664SOL     OW35899   0.767   4.153   3.206  0.5568  0.1077 -0.7210
11664SOL    HW135900   0.846   4.142   3.260 -0.4982 -1.9831  0.5214
11664SOL    HW235901   0.737   4.241   3.225  1.5473  0.2524  0.2654
11665SOL     OW35902   1.289   0.829   1.900  0.2019 -0.6368 -0.5031
11665SOL    HW135903   1.311   0.916   1.934  1.0652 -0.6544 -0.9957
11665SOL    HW235904   1.340   0.768   1.953  1.0887 -0.7025 -1.3907
11666SOL     OW35905   3.826   4.770   5.223  0.4047 -0.7271  0.2142
11666SOL    HW135906   3.754   4.809   5.273  1.4832  1.2755  0.3467
11666SOL    HW235907   3.904   4.786   5.278  1.2950 -0.4885 -1.0645
11667SOL     OW35908   6.956   0.404   2.978  0.1582  0.0757 -0.6617
11667SOL    HW135909   7.013   0.338   2.939  0.3534  0.6441 -1.3450
11667SOL    HW235910   6.926   0.458   2.905 -1.8924 -0.6711 -0.4256
11668SOL     OW35911   5.386   0.765   4.900 -0.3348 -0.0453 -0.3589
11668SOL    HW135912   5.454   0.832   4.899 -0.7127  0.3428 -0.1713
11668SOL    HW235913   5.432   0.684   4.878  0.1032  0.2927 -0.7033
11669SOL     OW35914   5.898   7.342   0.774 -0.1411  0.1655 -0.2223
11669SOL    HW135915   5.847   7.417   0.743 -2.1765 -0.4209  1.4802
11669SOL    HW235916   5.926   7.367   0.863  0.1656 -0.6393 -0.0801
11670SOL     OW35917   3.325   5.967   2.304 -0.2105 -0.2307 -0.2319
11670SOL    HW135918   3.304   6.040   2.246 -0.1434  0.1533  0.2199
11670SOL    HW235919   3.240   5.936   2.336 -0.2390 -0.3508 -0.4236
11671SOL     OW35920   1.935   4.123   4.441 -0.1680  0.3112  0.2373
11671SOL    HW135921   1.951   4.140   4.348  0.1193 -2.1232 -0.2394
11671SOL    HW235922   1.840   4.125   4.450 -0.2214  0.0968 -0.2278
11672SOL     OW35923   4.511   5.428   5.359 -0.2637  0.1486 -0.1534
11672SOL    HW135924   4.460   5.370   5.415 -0.0433 -0.1258 -0.2308
11672SOL    HW235925   4.599   5.427   5.397 -0.0475 -0.2479 -0.6464
11673SOL     OW35926   6.300   3.248   3.187  0.3098  0.0472  0.4698
11673SOL    HW135927   6.208   3.239   3.162  0.3296  0.8517  0.0778
11673SOL    HW235928   6.344   3.179   3.137  0.3116  1.4692 -1.5986
11674SOL     OW35929   6.755   4.514   3.626 -0.2917  0.2503  0.1453
11674SOL    HW135930   6.725   4.564   3.703 -3.6613 -1.3277  0.0406
11674SOL    HW235931   6.809   4.444   3.663 -1.1588  0.0189  1.0362
11675SOL     OW35932   1.223   4.023   3.960  0.0064  0.3035  0.2901
11675SOL    HW135933   1.284   3.990   4.027  0.4218 -0.5631 -0.4918
11675SOL    HW235934   1.144   3.971   3.973 -0.7051  1.6267  1.4932
11676SOL     OW35935   5.751   3.322   4.628 -0.6192  0.4854  0.2654
11676SOL    HW135936   5.810   3.351   4.558  0.7161  0.4288  1.3303
11676SOL    HW235937   5.699   3.400   4.649 -2.0396  0.1428 -1.6931
11677SOL     OW35938   6.456   6.723   2.381 -1.0746 -0.0037  0.0406
11677SOL    HW135939   6.493   6.638   2.355 -0.4888  0.0495  0.6712
11677SOL    HW235940   6.362   6.707   2.387 -1.0762 -0.3656 -0.7553
11678SOL     OW35941   4.848   7.431   0.924 -0.1427  0.2010  0.6805
11678SOL    HW135942   4.782   7.396   0.865  1.5820  0.0978 -1.2837
11678SOL    HW235943   4.864   7.520   0.894  1.1348 -0.0229  0.6267
11679SOL     OW35944   5.402   2.129   1.189 -0.6485 -0.3963  0.1276
11679SOL    HW135945   5.311   2.101   1.177 -0.9553  0.0398  1.3177
11679SOL    HW235946   5.452   2.048   1.191 -0.7621 -0.5924 -2.1758
11680SOL     OW35947   7.484   0.926   3.233 -0.1662  0.1058 -0.5920
11680SOL    HW135948   7.485   0.893   3.143 -2.2998 -0.5962 -0.4226
11680SOL    HW235949   7.447   0.854   3.284 -2.5083  1.7438  0.2137
11681SOL     OW35950   1.681   4.276   6.325 -0.2745  0.8589 -0.3366
11681SOL    HW135951   1.608   4.227   6.363 -0.0793  0.4229 -0.5065
11681SOL    HW235952   1.753   4.213   6.323 -0.4508  0.6689 -1.9689
11682SOL     OW35953   6.655   0.861   3.708  0.8428  0.4465 -0.7398
11682SOL    HW135954   6.739   0.891   3.674  1.2734 -0.6989 -0.7461
11682SOL    HW235955   6.661   0.765   3.705 -0.8122  0.3413 -1.5920
11683SOL     OW35956   1.169   7.192   0.899 -0.0451 -0.1803  0.3075
11683SOL    HW135957   1.242   7.184   0.961 -0.5005 -1.4528  0.7244
11683SOL    HW235958   1.187   7.272   0.851  1.0347  0.1278  1.1739
11684SOL     OW35959   2.071   2.703   2.990  0.5275  0.8110 -0.3429
11684SOL    HW135960   2.163   2.717   2.966  0.8553  0.3605  0.6255
11684SOL    HW235961   2.058   2.609   2.984 -0.3775  1.0067 -2.1851
11685SOL     OW35962   2.090   3.320   4.694  0.1931 -0.0091  0.1519
11685SOL    HW135963   2.147   3.331   4.770  0.5960  0.6473 -0.2364
11685SOL    HW235964   2.148   3.289   4.624 -0.4082 -1.9362  0.4455
11686SOL     OW35965   3.169   0.908   0.945  0.2849  0.2838  0.0535
11686SOL    HW135966   3.205   0.819   0.941  2.1118  0.9846  0.0094
11686SOL    HW235967   3.225   0.954   1.007 -0.9243  1.3104  0.4450
11687SOL     OW35968   1.285   2.678   3.736 -0.0225 -0.3892  0.1455
11687SOL    HW135969   1.312   2.586   3.744  0.0623 -0.3400  0.4159
11687SOL    HW235970   1.367   2.727   3.738 -0.1595  0.0781  4.6714
11688SOL     OW35971   6.636   4.700   5.295 -0.1181  1.2151 -0.3183
11688SOL    HW135972   6.639   4.691   5.199  1.6727  1.8197 -0.3656
11688SOL    HW235973   6.555   4.656   5.321  0.1256 -0.3379 -1.9687
11689SOL     OW35974   6.576   0.250   1.681  0.4481  0.1524 -0.0973
11689SOL    HW135975   6.627   0.294   1.749  0.0754  0.0033  0.2794
11689SOL    HW235976   6.512   0.316   1.653  1.1185  0.4855 -0.8730
11690SOL     OW35977   4.805   0.122   4.159 -0.3739 -0.6183 -0.1502
11690SOL    HW135978   4.827   0.181   4.231 -1.8546  0.3748 -0.4535
11690SOL    HW235979   4.756   0.176   4.097 -2.5748 -2.3245 -0.0410
11691SOL     OW35980   1.884   6.377   0.259  0.0600 -0.3857  0.4163
11691SOL    HW135981   1.947   6.413   0.196 -1.1217 -0.1611 -0.6981
11691SOL    HW235982   1.803   6.425   0.240 -0.9011 -1.8898  0.5980
11692SOL     OW35983   2.715   5.758   0.063  0.1725 -0.4917 -0.1400
11692SOL    HW135984   2.627   5.736   0.034 -0.1001 -1.8170  1.5687
11692SOL    HW235985   2.765   5.676   0.053  1.5475  0.4886 -2.0824
11693SOL     OW35986   0.785   6.193   1.636  0.0896  0.0641 -0.8469
11693SOL    HW135987   0.713   6.215   1.696 -0.5331  1.1711 -1.9569
11693SOL    HW235988   0.862   6.233   1.675  0.0940 -0.9352  0.2377
11694SOL     OW35989   6.123   6.897   4.078 -0.0998  0.0581  0.3676
11694SOL    HW135990   6.083   6.945   4.005 -0.7992 -2.5900 -1.1012
11694SOL    HW235991   6.204   6.860   4.041  0.0543 -0.4873  1.2326
11695SOL     OW35992   3.358   3.572   4.794 -0.2735 -0.1566  0.0545
11695SOL    HW135993   3.446   3.567   4.756 -0.2127  1.5731 -0.0952
11695SOL    HW235994   3.348   3.663   4.821 -1.5094 -0.6368  1.3592
11696SOL     OW35995   3.549   6.977   5.166 -0.5400  0.5831 -0.9927
11696SOL    HW135996   3.575   6.921   5.093 -0.9863  1.8120 -2.1316
11696SOL    HW235997   3.479   7.031   5.131 -2.3615 -0.3141  1.0118
11697SOL     OW35998   1.785   2.840   2.297 -0.1070 -0.0843 -0.4075
11697SOL    HW135999   1.858   2.888   2.335  1.2258 -1.6685 -0.8698
11697SOL    HW236000   1.711   2.901   2.303  1.1632  1.4668  0.3032
11698SOL     OW36001   2.714   4.599   0.297 -0.0785 -0.5318 -0.3401
11698SOL    HW136002   2.774   4.529   0.324 -1.2513 -1.6483 -0.4961
11698SOL    HW236003   2.723   4.666   0.364 -0.1024 -1.5630  0.7413
11699SOL     OW36004   6.361   1.004   1.884  0.1181  0.1156  0.4970
11699SOL    HW136005   6.402   0.961   1.958  2.4677  0.7456 -0.3429
11699SOL    HW236006   6.414   0.978   1.809 -0.1430  2.1387 -0.4555
11700SOL     OW36007   6.278   1.207   7.238 -0.4309 -0.5998  0.5777
11700SOL    HW136008   6.267   1.206   7.333  0.2090 -0.5765  0.6576
11700SOL    HW236009   6.202   1.254   7.205 -0.5792 -0.4791  1.0900
11701SOL     OW36010   4.029   6.469   4.947 -0.4424  0.2880 -0.6647
11701SOL    HW136011   4.031   6.402   4.879  2.4640  0.2419 -0.6558
11701SOL    HW236012   4.049   6.551   4.902 -1.3016  0.7315 -0.2671
11702SOL     OW36013   5.863   6.300   0.611  0.3261 -0.2464 -0.2726
11702SOL    HW136014   5.821   6.383   0.590 -0.2480 -0.5563 -0.3678
11702SOL    HW236015   5.827   6.238   0.548  2.0613 -0.2270 -1.3559
11703SOL     OW36016   4.585   3.406   4.834 -0.7397 -0.1560 -0.0666
11703SOL    HW136017   4.591   3.425   4.741  0.5693  0.0795  0.0471
11703SOL    HW236018   4.601   3.311   4.840 -1.5200 -0.3004 -0.1277
11704SOL     OW36019   3.823   6.111   4.211 -0.1414 -0.1859  0.1391
11704SOL    HW136020   3.758   6.179   4.197 -1.6144 -1.9763 -2.5889
11704SOL    HW236021   3.785   6.032   4.172  1.2491 -2.7841  3.5398
11705SOL     OW36022   2.649   1.468   4.071  0.4154  0.2691  0.2577
11705SOL    HW136023   2.659   1.375   4.051 -0.9947  0.1318  0.1062
11705SOL    HW236024   2.555   1.481   4.082  0.7350  1.3350  2.0713
11706SOL     OW36025   6.009   1.593   0.991 -0.3936 -0.4978 -0.0349
11706SOL    HW136026   6.075   1.641   0.941 -0.6027 -0.4700 -0.2842
11706SOL    HW236027   6.003   1.508   0.948 -1.3035 -0.1144 -0.6809
11707SOL     OW36028   2.864   5.984   2.825  0.1668  0.2188  0.8973
11707SOL    HW136029   2.860   5.961   2.732  1.7059  0.4612  0.7372
11707SOL    HW236030   2.810   5.918   2.868  1.1713 -1.2622  0.0194
11708SOL     OW36031   6.290   0.930   1.210 -0.4288  0.6214 -0.2827
11708SOL    HW136032   6.210   0.907   1.163 -1.2911  0.6440  1.1008
11708SOL    HW236033   6.353   0.952   1.142 -0.9760 -1.3449 -1.4976
11709SOL     OW36034   5.266   1.779   3.428 -0.2744  0.0584 -0.7158
11709SOL    HW136035   5.262   1.754   3.520 -1.0024  0.7749 -0.5472
11709SOL    HW236036   5.234   1.869   3.426  1.8635  0.8860 -1.3570
11710SOL     OW36037   6.456   0.497   6.421 -0.8257 -0.4503  0.2166
11710SOL    HW136038   6.479   0.567   6.482  0.7135 -1.1255  0.4754
11710SOL    HW236039   6.375   0.460   6.456  0.5656 -1.5185  2.5224
11711SOL     OW36040   1.746   3.922   4.956 -0.4222 -0.2486  0.1010
11711SOL    HW136041   1.680   3.890   4.894 -0.3251 -4.6834  1.9267
11711SOL    HW236042   1.828   3.917   4.908 -0.4715 -2.7116  0.1471
11712SOL     OW36043   2.063   1.124   5.041  0.2364 -0.7121  0.2000
11712SOL    HW136044   1.972   1.094   5.050  0.4300 -1.0113  1.3728
11712SOL    HW236045   2.115   1.045   5.046  0.5178 -0.7239 -2.1199
11713SOL     OW36046   1.407   1.295   5.908 -0.4825 -0.5822 -0.2835
11713SOL    HW136047   1.389   1.279   6.001  0.2069 -0.3059 -0.0944
11713SOL    HW236048   1.321   1.295   5.867 -0.7085 -2.2071  0.1008
11714SOL     OW36049   7.213   7.351   0.275  0.4163 -0.6651 -0.0654
11714SOL    HW136050   7.299   7.311   0.283  0.3242 -0.7962  0.2883
11714SOL    HW236051   7.159   7.305   0.339  0.5054  0.5440  0.9286
11715SOL     OW36052   5.620   0.070   4.792  0.7789 -0.7977 -0.0761
11715SOL    HW136053   5.710   0.045   4.769  0.4381 -1.7182 -0.4360
11715SOL    HW236054   5.571  -0.012   4.791 -0.2567 -0.1947 -0.7367
11716SOL     OW36055   0.026   1.071   2.885 -0.1378  0.3014 -0.0510
11716SOL    HW136056   0.010   1.166   2.890 -0.5307  0.2297  0.1190
11716SOL    HW236057  -0.029   1.034   2.955  0.3338 -0.0135  0.1530
11717SOL     OW36058   0.115   7.440   3.111  0.1033 -0.0478 -0.6361
11717SOL    HW136059   0.203   7.437   3.148 -0.0791 -0.3916 -0.2314
11717SOL    HW236060   0.060   7.399   3.176 -0.0343 -1.8614 -1.8225
11718SOL     OW36061   3.276   2.938   0.730 -0.6512 -0.2352  0.2622
11718SOL    HW136062   3.200   2.973   0.682 -0.9597 -1.2786 -0.0498
11718SOL    HW236063   3.347   2.939   0.665  0.5796  3.7003  1.3787
11719SOL     OW36064   7.740   2.876   6.459  0.1272  0.1516  0.4472
11719SOL    HW136065   7.652   2.901   6.486  0.2092  1.7112 -0.6080
11719SOL    HW236066   7.733   2.784   6.436 -1.2109  0.2356  0.4319
11720SOL     OW36067   4.848   6.827   2.633  0.4882  0.5791 -0.0253
11720SOL    HW136068   4.858   6.837   2.538  0.5514 -0.3502 -0.1178
11720SOL    HW236069   4.768   6.877   2.653  1.0598  1.6845 -0.3961
11721SOL     OW36070   2.168   2.325   3.914  0.4895 -0.0303  0.5009
11721SOL    HW136071   2.181   2.400   3.973 -0.6200  0.3430  0.2914
11721SOL    HW236072   2.104   2.356   3.850 -0.9428 -1.5560  1.1384
11722SOL     OW36073   6.149   6.457   5.624  0.2825  0.6486  0.3022
11722SOL    HW136074   6.209   6.479   5.552 -0.3256  0.9454 -0.1202
11722SOL    HW236075   6.070   6.425   5.580 -0.2698  1.2696  0.8208
11723SOL     OW36076   4.806   0.942   5.303 -0.1793  0.2863  0.4014
11723SOL    HW136077   4.883   0.924   5.250 -1.8673  0.4036 -2.2596
11723SOL    HW236078   4.828   0.908   5.390  1.4712 -3.0578 -1.1685
11724SOL     OW36079   0.770   3.491   3.633  0.0293 -0.3890 -0.1890
11724SOL    HW136080   0.854   3.451   3.658  0.7723 -0.5554 -2.6034
11724SOL    HW236081   0.790   3.583   3.619 -0.4068 -0.2464  0.1209
11725SOL     OW36082   6.498   1.504   3.584  0.1855 -0.4635  0.3180
11725SOL    HW136083   6.462   1.436   3.641  0.8162  0.1791  1.5243
11725SOL    HW236084   6.562   1.550   3.639  1.7403 -0.6039 -1.2951
11726SOL     OW36085   4.390   4.540   4.489 -0.4170  0.0787  0.5404
11726SOL    HW136086   4.473   4.494   4.478 -0.9814 -1.3903  1.9557
11726SOL    HW236087   4.324   4.471   4.481 -1.4878  1.1507 -0.1230
11727SOL     OW36088   1.109   0.789   4.113 -0.0771  0.2580 -0.0530
11727SOL    HW136089   1.061   0.716   4.074 -0.8267  0.9377 -0.4241
11727SOL    HW236090   1.129   0.758   4.202 -0.2551 -0.4538 -0.2484
11728SOL     OW36091   3.156   6.405   0.809  0.1942  0.4924  0.0992
11728SOL    HW136092   3.182   6.335   0.749  2.2638  0.9714  0.3544
11728SOL    HW236093   3.074   6.438   0.773 -0.2338 -1.2785 -0.6749
11729SOL     OW36094   2.955   7.710   1.447 -0.3525 -0.0498 -0.6420
11729SOL    HW136095   2.918   7.771   1.510  0.1763  0.2129 -0.5781
11729SOL    HW236096   2.961   7.627   1.494  0.6240  0.2946 -0.1279
11730SOL     OW36097   2.348   1.536   5.666  0.0408  0.0399  0.1087
11730SOL    HW136098   2.378   1.531   5.756 -0.8255  1.0561  0.4820
11730SOL    HW236099   2.355   1.447   5.632  0.3198 -0.3597  1.1914
11731SOL     OW36100   0.900   0.769   2.838 -0.0527  0.7500 -0.5846
11731SOL    HW136101   0.831   0.834   2.833  2.0405  3.1453 -0.4760
11731SOL    HW236102   0.939   0.783   2.925 -0.1802 -1.4102 -0.1190
11732SOL     OW36103   5.812   1.212   4.409 -0.1671  0.2711  0.0115
11732SOL    HW136104   5.895   1.200   4.456 -0.2978 -0.7874 -0.0091
11732SOL    HW236105   5.792   1.305   4.420  0.2733  0.2424  1.2754
11733SOL     OW36106   3.059   4.323   2.896  0.3798 -0.0045 -0.0850
11733SOL    HW136107   3.117   4.385   2.940 -1.8103  3.0000 -1.1061
11733SOL    HW236108   2.983   4.315   2.955  0.4924 -1.5933 -0.1045
11734SOL     OW36109   4.367   0.047   0.319 -0.0711  0.2747  0.1312
11734SOL    HW136110   4.297   0.103   0.352 -0.7980 -0.6765  0.2447
11734SOL    HW236111   4.411   0.100   0.253 -0.8690  0.9017  0.0868
11735SOL     OW36112   1.500   4.236   5.458  0.0075 -0.0214  0.0084
11735SOL    HW136113   1.575   4.273   5.410  0.2387 -1.1636 -0.5565
11735SOL    HW236114   1.458   4.178   5.395  0.7398 -2.1437  1.3671
11736SOL     OW36115   4.961   4.585   7.712  0.2066  0.5559 -0.3493
11736SOL    HW136116   4.948   4.572   7.806 -0.8913  2.5711 -0.1721
11736SOL    HW236117   4.995   4.502   7.681 -0.6655 -0.5940  1.6012
11737SOL     OW36118   0.773   4.774   6.046 -0.2910 -0.1859 -0.0974
11737SOL    HW136119   0.707   4.707   6.060  1.1094 -1.9800 -1.4807
11737SOL    HW236120   0.726   4.847   6.007 -1.6088 -1.0153 -0.1040
11738SOL     OW36121   0.954   2.804   4.009  0.3781 -0.4745  0.2162
11738SOL    HW136122   1.005   2.726   3.985  0.3475 -0.1825 -0.8799
11738SOL    HW236123   0.874   2.797   3.957  0.1001 -0.0267  0.5819
11739SOL     OW36124   0.649   3.547   1.126 -0.4202 -0.2794  0.0901
11739SOL    HW136125   0.737   3.528   1.094  0.2544  0.0098  1.7028
11739SOL    HW236126   0.593   3.482   1.082  0.6983 -0.9567 -0.3694
11740SOL     OW36127   1.813   1.203   2.085 -0.0717  0.2530 -0.1987
11740SOL    HW136128   1.838   1.295   2.075  1.5762 -0.1255  0.1740
11740SOL    HW236129   1.859   1.158   2.014  0.9878 -0.5857  0.9825
11741SOL     OW36130   5.377   3.224   6.093 -0.3077  0.0736 -0.3562
11741SOL    HW136131   5.328   3.297   6.131  0.0505 -0.3910  1.0538
11741SOL    HW236132   5.320   3.148   6.104  0.3083 -0.2895  0.4062
11742SOL     OW36133   7.180   3.733   6.527  0.4583  0.1768  0.7242
11742SOL    HW136134   7.247   3.717   6.461 -1.8228  0.8041 -1.9068
11742SOL    HW236135   7.177   3.828   6.536  0.5715  0.1082  1.5930
11743SOL     OW36136   1.193   3.174   6.762 -0.0241 -0.4818  0.3147
11743SOL    HW136137   1.234   3.087   6.761 -0.6890 -0.7992  0.3934
11743SOL    HW236138   1.222   3.213   6.845 -0.3279 -0.9218  0.6293
11744SOL     OW36139   2.741   3.731   1.059  0.2011  0.0700 -0.5538
11744SOL    HW136140   2.781   3.679   0.989  1.2939  0.0351  0.0720
11744SOL    HW236141   2.781   3.817   1.051  0.8967 -0.1423  0.4760
11745SOL     OW36142   5.899   7.218   4.262  0.4603 -0.1284  0.0193
11745SOL    HW136143   5.961   7.155   4.299 -1.4834 -1.8068  0.6340
11745SOL    HW236144   5.833   7.228   4.330 -0.3802  0.9561 -0.9237
11746SOL     OW36145   6.737   5.950   4.786  0.6506  0.0365  0.0941
11746SOL    HW136146   6.654   5.972   4.743  1.2578 -1.4272 -1.9923
11746SOL    HW236147   6.731   5.856   4.805  1.9553 -0.1831 -0.4523
11747SOL     OW36148   7.630   1.218   1.429 -0.1899 -0.0533 -0.1256
11747SOL    HW136149   7.557   1.212   1.491  1.1981 -0.6760  1.5117
11747SOL    HW236150   7.589   1.249   1.348 -1.7486  3.2805  1.7281
11748SOL     OW36151   3.011   1.185   6.162  0.3943 -0.2296 -0.1138
11748SOL    HW136152   2.985   1.274   6.187 -1.7413 -1.3082  1.9619
11748SOL    HW236153   2.980   1.130   6.235  1.6432 -2.6886 -1.3109
11749SOL     OW36154   5.202   1.603   6.031 -0.4215 -0.5766 -0.0757
11749SOL    HW136155   5.193   1.556   6.115  3.0114  0.5753  1.1051
11749SOL    HW236156   5.289   1.581   6.001 -1.4140 -0.5993 -3.2494
11750SOL     OW36157   3.443   3.892   6.337 -0.0261  0.3503  0.3729
11750SOL    HW136158   3.458   3.858   6.425 -0.3046 -0.7002  0.0439
11750SOL    HW236159   3.378   3.831   6.299 -0.8546  1.5005 -0.1276
11751SOL     OW36160   0.248   4.305   6.403 -0.6316  0.0522  0.1585
11751SOL    HW136161   0.188   4.230   6.393 -0.4784 -0.1499  0.7235
11751SOL    HW236162   0.301   4.283   6.480  0.1065  0.2713 -0.2810
11752SOL     OW36163   6.079   3.303   5.886  0.3566 -0.0558 -0.0711
11752SOL    HW136164   6.142   3.320   5.957 -0.8216  0.0161  0.9816
11752SOL    HW236165   6.049   3.214   5.903  0.2563 -0.1301 -0.6443
11753SOL     OW36166   6.030   4.804   6.603  0.8415  0.3708  0.0046
11753SOL    HW136167   5.943   4.828   6.570  0.5757 -2.4048 -1.5762
11753SOL    HW236168   6.061   4.884   6.646 -2.5426  1.4114  0.8643
11754SOL     OW36169   5.717   0.601   7.075  0.8565  0.3217 -0.6230
11754SOL    HW136170   5.714   0.554   6.991  1.2858 -1.6859  0.4248
11754SOL    HW236171   5.801   0.577   7.113  0.2708  0.4657  0.7930
11755SOL     OW36172   4.556   3.774   5.080 -0.2339  0.2920 -0.4865
11755SOL    HW136173   4.607   3.711   5.030 -0.2526 -0.3405  0.2663
11755SOL    HW236174   4.483   3.723   5.116 -0.3766  0.7889 -0.0589
11756SOL     OW36175   0.594   2.376   0.034 -0.2332  0.2839  0.4934
11756SOL    HW136176   0.504   2.342   0.036 -0.5510  0.8774 -1.5145
11756SOL    HW236177   0.649   2.298   0.031 -0.7682 -0.0881  0.0629
11757SOL     OW36178   3.411   7.593   0.802  0.0287 -0.3887 -0.7034
11757SOL    HW136179   3.489   7.613   0.853 -1.2667  1.9856  0.5287
11757SOL    HW236180   3.430   7.626   0.714  0.6733 -0.4522 -0.5890
11758SOL     OW36181   6.548   6.747   3.757 -0.1432  0.3067 -0.8955
11758SOL    HW136182   6.504   6.764   3.674 -0.2617  0.4319 -0.8059
11758SOL    HW236183   6.640   6.731   3.733  0.0142  1.2454 -0.9661
11759SOL     OW36184   5.019   3.124   6.397 -0.4038  0.1504 -0.2887
11759SOL    HW136185   4.984   3.175   6.470 -0.1021  0.6260 -0.4729
11759SOL    HW236186   5.015   3.183   6.322  1.1165  0.3556 -0.2454
11760SOL     OW36187   3.874   7.242   4.305  0.7669  0.1454  0.1058
11760SOL    HW136188   3.895   7.236   4.398 -0.8940  0.3450  0.5210
11760SOL    HW236189   3.783   7.273   4.303  0.5391 -0.5492 -1.5703
11761SOL     OW36190   1.618   0.956   4.295  0.1734 -0.4531  0.1746
11761SOL    HW136191   1.686   0.965   4.362  2.9826 -0.4829 -2.4645
11761SOL    HW236192   1.567   1.038   4.302  2.0211  0.7101  0.6887
11762SOL     OW36193   0.985   6.363   6.081  0.5113  0.4668 -0.2089
11762SOL    HW136194   0.947   6.443   6.116  0.0941  0.7761 -1.3010
11762SOL    HW236195   0.916   6.297   6.092  0.4997  0.4869 -0.1633
11763SOL     OW36196   1.685   7.460   3.593 -0.7121  0.1253  0.1393
11763SOL    HW136197   1.655   7.369   3.581  0.8253 -0.3810 -0.0454
11763SOL    HW236198   1.685   7.497   3.505  0.3867 -0.2759 -0.0429
11764SOL     OW36199   3.060   0.645   2.825  0.2793  0.2630 -0.3193
11764SOL    HW136200   3.121   0.707   2.865  1.6485 -0.7595 -0.7201
11764SOL    HW236201   3.116   0.575   2.791 -1.0469 -0.2115 -1.6589
11765SOL     OW36202   1.146   2.207   3.840  0.0710 -0.1229  0.0959
11765SOL    HW136203   1.180   2.280   3.788 -1.4685 -0.8856 -2.1102
11765SOL    HW236204   1.192   2.130   3.807  0.2270 -0.4417  1.0125
11766SOL     OW36205   5.371   2.899   7.220  0.3395  0.0574 -0.0285
11766SOL    HW136206   5.371   2.982   7.268  0.8772  0.9271 -1.4670
11766SOL    HW236207   5.457   2.860   7.239 -0.9062 -1.5839  2.8662
11767SOL     OW36208   2.991   2.019   6.297 -0.2310 -0.9902 -0.4371
11767SOL    HW136209   3.077   2.015   6.256  0.4270 -0.7612  0.8769
11767SOL    HW236210   2.934   2.058   6.230  0.8846 -0.2778 -0.9924
11768SOL     OW36211   2.423   0.135   4.199  0.0707  0.0129 -0.3826
11768SOL    HW136212   2.461   0.205   4.251 -0.0685 -0.1446 -0.0648
11768SOL    HW236213   2.371   0.180   4.132 -0.4824  0.2095  0.1678
11769SOL     OW36214   2.578   5.550   5.114  0.5167  0.3505  0.0165
11769SOL    HW136215   2.501   5.495   5.129 -0.2786  1.3401 -0.2751
11769SOL    HW236216   2.622   5.509   5.040  0.6828 -0.6445  0.6489
11770SOL     OW36217   1.802   6.085   7.510  0.6303  0.4571  0.5226
11770SOL    HW136218   1.819   6.103   7.602  1.6884  2.6057 -0.0235
11770SOL    HW236219   1.883   6.045   7.478  0.2479 -0.3322  0.5235
11771SOL     OW36220   5.138   4.018   7.004  0.6353  0.7998 -0.6309
11771SOL    HW136221   5.186   3.940   7.033 -0.3235  0.3143 -0.2922
11771SOL    HW236222   5.128   4.006   6.909  0.5057  0.5136 -0.5823
11772SOL     OW36223   5.155   5.466   1.109 -0.9734 -0.0931 -0.5787
11772SOL    HW136224   5.186   5.380   1.080  0.3494  0.3699 -0.5910
11772SOL    HW236225   5.197   5.478   1.195 -1.4334  0.3955 -0.4168
11773SOL     OW36226   2.853   7.203   1.554 -0.0004 -0.0318  0.2721
11773SOL    HW136227   2.777   7.214   1.497 -0.1296  1.4018  0.6684
11773SOL    HW236228   2.888   7.116   1.533 -0.6938  0.0222 -1.1840
11774SOL     OW36229   7.210   6.490   5.258  0.1384  0.1378 -0.5226
11774SOL    HW136230   7.180   6.581   5.254  0.4754  0.3507  0.9744
11774SOL    HW236231   7.190   6.462   5.347  1.4056 -0.7631 -0.4925
11775SOL     OW36232   4.000   1.304   5.777  0.0308  0.0705  0.2787
11775SOL    HW136233   3.956   1.354   5.708  0.9997  0.9730  0.2892
11775SOL    HW236234   4.093   1.317   5.761  0.2897  0.9680  2.2098
11776SOL     OW36235   5.415   6.710   4.174 -0.2643 -0.5392  0.3266
11776SOL    HW136236   5.461   6.719   4.257 -0.1635 -0.2469  0.2408
11776SOL    HW236237   5.483   6.682   4.112 -0.0761  0.4518  0.0755
11777SOL     OW36238   5.825   4.775   3.143  0.0025 -0.0690  0.2248
11777SOL    HW136239   5.916   4.798   3.160 -0.0667 -0.2300  0.8524
11777SOL    HW236240   5.801   4.827   3.066  1.1007 -1.2331 -0.9571
11778SOL     OW36241   4.987   2.060   6.886  0.4117 -0.1007  0.3950
11778SOL    HW136242   4.920   2.102   6.832 -0.2339 -0.6361  0.7678
11778SOL    HW236243   5.068   2.071   6.836  0.4375  2.2925  0.8419
11779SOL     OW36244   5.741   5.380   7.732 -0.5794 -0.2137  0.1420
11779SOL    HW136245   5.716   5.408   7.644 -0.2740  0.0191  0.1287
11779SOL    HW236246   5.690   5.435   7.791 -0.0593  0.3130  0.1153
11780SOL     OW36247   4.357   4.621   1.272 -0.6181 -0.2842 -0.9409
11780SOL    HW136248   4.371   4.591   1.183 -0.4421  0.8312 -1.3010
11780SOL    HW236249   4.395   4.709   1.275 -1.6254  0.1523 -0.0890
11781SOL     OW36250   7.240   6.131   0.539 -0.1816  0.1918  0.0306
11781SOL    HW136251   7.307   6.192   0.571 -0.0474  0.7195 -1.1846
11781SOL    HW236252   7.265   6.046   0.575 -0.5525  0.8733  2.0381
11782SOL     OW36253   7.439   2.123   3.848 -0.0194  0.0305 -0.1219
11782SOL    HW136254   7.406   2.201   3.893  1.4420  0.1889  0.7574
11782SOL    HW236255   7.452   2.152   3.758  1.5579  1.2070  0.4183
11783SOL     OW36256   4.096   2.371   6.157  0.4499 -0.2437  0.0145
11783SOL    HW136257   4.060   2.354   6.070  1.5621  1.2416 -0.7892
11783SOL    HW236258   4.108   2.285   6.195  0.1151 -0.9407 -1.3706
11784SOL     OW36259   4.917   5.264   7.485 -0.9222  0.2422  0.2849
11784SOL    HW136260   4.993   5.207   7.498 -1.9896 -0.8652  2.0148
11784SOL    HW236261   4.844   5.204   7.467 -2.3592  0.8606  3.4367
11785SOL     OW36262   6.100   1.147   5.572 -0.1122  0.1190 -0.3876
11785SOL    HW136263   6.098   1.146   5.476 -1.0005 -0.0327 -0.3806
11785SOL    HW236264   6.192   1.144   5.594  0.1288  0.7201 -1.2507
11786SOL     OW36265   3.785   5.185   2.515  0.7402  0.2780 -0.2267
11786SOL    HW136266   3.696   5.210   2.492  0.6524 -0.2590 -0.4850
11786SOL    HW236267   3.777   5.140   2.599  0.4402 -1.7725 -1.2807
11787SOL     OW36268   4.723   2.867   2.568 -0.2633 -0.0885 -0.7190
11787SOL    HW136269   4.786   2.939   2.574 -0.4389  0.0869 -0.9515
11787SOL    HW236270   4.638   2.910   2.566 -0.3467 -0.2701 -1.4545
11788SOL     OW36271   7.367   4.035   2.273 -0.2487  0.4643 -0.2970
11788SOL    HW136272   7.350   4.099   2.342 -2.3149 -0.0262 -0.2615
11788SOL    HW236273   7.430   3.974   2.310 -0.3265  0.9634  0.6723
11789SOL     OW36274   2.954   0.317   2.735  0.0100  0.2621  0.8334
11789SOL    HW136275   2.976   0.288   2.824 -1.9239 -1.9113  0.6876
11789SOL    HW236276   2.880   0.376   2.746 -1.7150 -1.7763  0.5792
11790SOL     OW36277   7.447   1.497   4.484  1.0536  0.0683 -0.1270
11790SOL    HW136278   7.522   1.516   4.427  1.6478 -0.7476  0.3501
11790SOL    HW236279   7.463   1.407   4.515 -0.8697 -0.6934 -1.1659
11791SOL     OW36280   3.037   3.426   2.909  0.1338  0.2671  0.0088
11791SOL    HW136281   3.013   3.510   2.948 -1.1879  0.5955 -1.4081
11791SOL    HW236282   2.954   3.379   2.902  0.7225 -0.7810 -0.0907
11792SOL     OW36283   2.681   3.077   5.901 -0.2562 -0.9602 -0.2578
11792SOL    HW136284   2.705   3.023   5.826 -1.0781 -1.6727 -0.0199
11792SOL    HW236285   2.625   3.145   5.863  1.5428  0.3589 -0.7160
11793SOL     OW36286   6.851   1.733   6.366 -0.6510 -0.2458  0.0345
11793SOL    HW136287   6.787   1.767   6.428 -1.6848  0.4453 -1.3391
11793SOL    HW236288   6.891   1.811   6.328 -0.1863 -0.6433 -0.3023
11794SOL     OW36289   7.156   5.608   3.922  0.1448 -0.1220  0.1508
11794SOL    HW136290   7.072   5.652   3.939 -0.6516 -1.0489 -1.1931
11794SOL    HW236291   7.159   5.599   3.827  2.0790  0.4387  0.1308
11795SOL     OW36292   1.999   7.150   5.328 -0.4016 -0.3617 -0.2086
11795SOL    HW136293   1.907   7.146   5.302 -0.8543 -1.4545  1.3925
11795SOL    HW236294   2.041   7.077   5.282 -0.8475 -1.2583  0.7518
11796SOL     OW36295   5.481   6.471   3.635  0.3436 -1.1434 -0.4182
11796SOL    HW136296   5.542   6.481   3.562  0.1361 -0.0927 -0.4553
11796SOL    HW236297   5.532   6.497   3.712 -0.2135  0.3545 -0.5221
11797SOL     OW36298   5.486   1.405   1.295 -0.3868  0.2255 -0.2206
11797SOL    HW136299   5.546   1.409   1.220 -0.4851  0.9093 -0.2695
11797SOL    HW236300   5.462   1.496   1.311  0.5296  0.2332  1.3645
11798SOL     OW36301   7.422   6.084   1.366 -0.1593  0.0410  0.2224
11798SOL    HW136302   7.372   6.165   1.356 -0.7610 -0.4725 -1.2015
11798SOL    HW236303   7.407   6.037   1.284  0.8991 -1.1150  0.6693
11799SOL     OW36304   5.487   2.019   4.349 -0.9537 -0.4671  0.0502
11799SOL    HW136305   5.506   2.045   4.439 -0.3971 -0.5756 -0.0314
11799SOL    HW236306   5.490   1.924   4.350  1.2290 -0.4562 -0.5134
11800SOL     OW36307   6.113   5.135   3.504  0.2015 -0.3924  0.1345
11800SOL    HW136308   6.063   5.091   3.435 -0.9277  0.1572  0.5922
11800SOL    HW236309   6.177   5.188   3.456 -0.5260 -0.0683 -0.4975
11801SOL     OW36310   6.530   1.290   4.219 -0.3704  0.2906  0.0161
11801SOL    HW136311   6.577   1.373   4.219 -0.2128  0.2196 -0.8796
11801SOL    HW236312   6.444   1.311   4.255  0.5590  0.2632  2.4031
11802SOL     OW36313   3.441   7.474   5.321 -0.2630  0.1999  0.2230
11802SOL    HW136314   3.505   7.545   5.317  1.1539 -0.7327  3.3162
11802SOL    HW236315   3.487   7.403   5.365 -1.6787 -2.6701 -2.5084
11803SOL     OW36316   5.149   0.494   5.028 -0.4299  0.4636  0.2096
11803SOL    HW136317   5.148   0.438   4.950  0.8033  0.7234 -0.0171
11803SOL    HW236318   5.066   0.542   5.024  0.4814  2.0354 -2.1542
11804SOL     OW36319   4.489   7.357   7.582  0.1005 -0.1201  0.2069
11804SOL    HW136320   4.416   7.372   7.522  0.2018  0.3328  0.1906
11804SOL    HW236321   4.543   7.291   7.539  1.1043  1.4270 -1.0625
11805SOL     OW36322   0.129   3.842   5.409 -0.2875  0.1847  0.3365
11805SOL    HW136323   0.155   3.762   5.363 -0.1561  0.6495 -0.4229
11805SOL    HW236324   0.035   3.850   5.392 -0.3336  0.0967  0.5554
11806SOL     OW36325   2.134   1.711   1.533 -0.7716 -0.2109  0.6852
11806SOL    HW136326   2.097   1.626   1.510 -0.6712 -0.2599  0.7062
11806SOL    HW236327   2.082   1.741   1.607 -2.8704  1.1303 -1.1863
11807SOL     OW36328   4.610   4.463   6.220 -0.2535  0.2867  0.3793
11807SOL    HW136329   4.619   4.369   6.236 -1.7298  0.2603  1.2373
11807SOL    HW236330   4.529   4.471   6.170  0.5364  1.0157 -0.8222
11808SOL     OW36331   5.821   3.825   5.919  0.4129  0.0763 -0.5546
11808SOL    HW136332   5.811   3.769   5.997  2.1877  0.2519 -0.1571
11808SOL    HW236333   5.791   3.770   5.847  0.2391 -0.6729  0.0675
11809SOL     OW36334   7.696   3.541   6.039  0.5952  0.3442  0.4215
11809SOL    HW136335   7.605   3.572   6.037 -0.0764 -1.5184 -1.5943
11809SOL    HW236336   7.745   3.605   5.987  0.3482  1.0772  1.0824
11810SOL     OW36337   4.952   1.841   7.703 -0.0654 -0.2347 -0.2130
11810SOL    HW136338   4.982   1.926   7.732 -1.3983 -0.1165  0.9664
11810SOL    HW236339   5.030   1.796   7.671  1.1006  0.5182  1.4591
11811SOL     OW36340   4.552   6.443   1.524  0.5466 -0.0974 -0.0626
11811SOL    HW136341   4.491   6.469   1.593 -1.7425 -1.1519 -1.5251
11811SOL    HW236342   4.629   6.497   1.537 -1.2029  2.2899  1.1585
11812SOL     OW36343   2.244   6.136   1.858 -0.4975  0.3683  0.4507
11812SOL    HW136344   2.337   6.153   1.873 -0.6444  1.1276  0.5371
11812SOL    HW236345   2.228   6.053   1.903  0.1737  0.1437  0.2903
11813SOL     OW36346   2.315   5.816   0.388  0.0569  0.0057  0.0642
11813SOL    HW136347   2.344   5.779   0.304 -0.6155 -1.6408  0.5170
11813SOL    HW236348   2.222   5.834   0.375  0.6107  2.8062 -0.5410
11814SOL     OW36349   6.335   4.677   6.831  0.2639 -0.4158  0.7912
11814SOL    HW136350   6.398   4.725   6.778 -0.0665 -1.9321 -1.0607
11814SOL    HW236351   6.372   4.677   6.919  3.0679 -1.5890 -0.3006
11815SOL     OW36352   5.741   4.673   1.535  0.6503 -0.0297 -0.4324
11815SOL    HW136353   5.717   4.658   1.627 -1.0688 -0.8793 -0.9882
11815SOL    HW236354   5.798   4.750   1.538  0.7388 -0.1107  1.3530
11816SOL     OW36355   0.165   6.968   4.843  0.3207  0.0385 -0.4554
11816SOL    HW136356   0.087   7.023   4.847 -0.7936 -1.5212  1.1269
11816SOL    HW236357   0.186   6.950   4.935  2.6644  0.5212 -0.8315
11817SOL     OW36358   1.686   7.674   6.815  0.2737 -0.4297  0.0813
11817SOL    HW136359   1.636   7.596   6.840  0.7477 -0.4280  1.0581
11817SOL    HW236360   1.770   7.664   6.859  0.2522  0.7676  0.4231
11818SOL     OW36361   2.453   1.244   6.358 -0.6010 -0.0471 -0.4176
11818SOL    HW136362   2.406   1.162   6.343  0.7256 -1.0992  0.8583
11818SOL    HW236363   2.511   1.253   6.282  1.1270 -1.7260  0.5946
11819SOL     OW36364   5.936   4.014   6.697  0.5622  0.3905 -0.1448
11819SOL    HW136365   5.888   4.027   6.778 -1.4079 -0.4284 -1.1025
11819SOL    HW236366   5.991   3.937   6.713 -0.4366 -0.2772  0.1840
11820SOL     OW36367   3.385   2.198   5.408 -0.0406 -0.0464  0.4153
11820SOL    HW136368   3.349   2.201   5.319 -0.7906 -1.3850  0.6502
11820SOL    HW236369   3.426   2.284   5.420  2.0390 -0.5748 -2.0156
11821SOL     OW36370   5.768   1.387   6.325 -0.4077  0.3223 -0.5757
11821SOL    HW136371   5.803   1.464   6.369  0.6654 -0.9649  0.9434
11821SOL    HW236372   5.673   1.395   6.335 -0.4209  2.1917 -1.8222
11822SOL     OW36373   4.207   5.369   1.576 -0.0055 -0.0207  0.7673
11822SOL    HW136374   4.292   5.382   1.619  0.5380  1.5008 -0.6420
11822SOL    HW236375   4.224   5.388   1.484 -1.6612 -0.7499  0.2829
11823SOL     OW36376   6.084   0.456   4.931 -0.1098  1.1255  0.3195
11823SOL    HW136377   6.040   0.412   4.858  0.8494  0.0073  0.3943
11823SOL    HW236378   6.052   0.409   5.009  2.6452 -1.1014  0.2663
11824SOL     OW36379   6.700   0.542   1.818 -0.5905  0.4773 -0.4910
11824SOL    HW136380   6.608   0.565   1.835 -0.6793  1.5398 -2.1879
11824SOL    HW236381   6.747   0.574   1.895 -1.8083 -1.8713  1.3844
11825SOL     OW36382   7.114   2.816   0.296  0.2955 -0.1452  0.2745
11825SOL    HW136383   7.171   2.893   0.302  0.8439 -0.5359  0.1580
11825SOL    HW236384   7.077   2.808   0.384 -0.2053  0.5769  0.1396
11826SOL     OW36385   1.601   0.272   1.570  0.4461 -0.8351 -0.2508
11826SOL    HW136386   1.607   0.249   1.478 -0.1367  2.3360 -1.1958
11826SOL    HW236387   1.613   0.189   1.617 -0.8370 -2.8178 -3.1733
11827SOL     OW36388   0.822   0.701   0.333 -0.3621  0.3986 -0.0139
11827SOL    HW136389   0.822   0.783   0.284 -2.8074  0.3817 -0.1573
11827SOL    HW236390   0.811   0.727   0.424  0.3500  0.2544  0.1250
11828SOL     OW36391   7.176   3.623   7.304  0.2039 -0.0610  0.1386
11828SOL    HW136392   7.181   3.702   7.359 -1.9684 -0.9013  1.7133
11828SOL    HW236393   7.110   3.644   7.238 -0.7098 -0.6427  0.8310
11829SOL     OW36394   0.277   4.066   6.776 -0.0494 -0.1759  0.3884
11829SOL    HW136395   0.339   3.995   6.764  1.0335  0.7011  0.6256
11829SOL    HW236396   0.302   4.132   6.712 -2.6001 -0.9475 -1.6086
11830SOL     OW36397   6.415   0.667   3.882  0.4269 -0.0952  0.6385
11830SOL    HW136398   6.488   0.675   3.944 -0.8223 -0.0706  2.1534
11830SOL    HW236399   6.348   0.725   3.917  0.0059  0.6358 -1.2718
11831SOL     OW36400   5.112   0.540   2.402 -0.1537 -0.2065  0.8006
11831SOL    HW136401   5.162   0.609   2.358 -0.8535  0.9177  1.6808
11831SOL    HW236402   5.028   0.582   2.424 -1.7979 -2.2376 -1.2314
11832SOL     OW36403   7.007   4.852   1.506 -0.9743  0.0926 -0.5636
11832SOL    HW136404   7.042   4.916   1.568  1.4825 -1.5357 -0.1124
11832SOL    HW236405   6.914   4.846   1.526 -1.2117  3.1723 -0.3701
11833SOL     OW36406   3.517   6.167   4.983 -0.6353  0.0218  0.0769
11833SOL    HW136407   3.542   6.076   4.970 -0.3804 -0.0865  1.2445
11833SOL    HW236408   3.557   6.214   4.909  0.9995 -0.5058  0.5971
11834SOL     OW36409   1.213   0.316   3.539 -0.0552  0.2792  0.0848
11834SOL    HW136410   1.298   0.352   3.513 -1.2293  2.4239 -1.0215
11834SOL    HW236411   1.179   0.275   3.460 -0.0702 -0.5707  0.5243
11835SOL     OW36412   5.655   6.341   2.063 -0.6502  0.0369  0.2501
11835SOL    HW136413   5.611   6.296   2.134 -0.6475 -2.1587 -1.0489
11835SOL    HW236414   5.588   6.400   2.026 -1.0064  0.2784  1.2681
11836SOL     OW36415   0.815   6.499   7.202  0.4294  0.1492  0.2505
11836SOL    HW136416   0.817   6.436   7.131 -0.3760  0.2043  0.1631
11836SOL    HW236417   0.741   6.472   7.257 -0.1306  1.1673  0.0439
11837SOL     OW36418   2.565   6.177   3.751  0.8545 -0.2342 -0.7748
11837SOL    HW136419   2.573   6.123   3.829 -0.2370  2.5667  1.4704
11837SOL    HW236420   2.656   6.197   3.727  1.2361 -1.9842 -0.9353
11838SOL     OW36421   5.331   6.662   3.150  0.6037 -0.3929  0.7062
11838SOL    HW136422   5.373   6.629   3.070 -0.0549  0.2183  0.0862
11838SOL    HW236423   5.334   6.758   3.140 -1.2369 -0.3311  0.4558
11839SOL     OW36424   2.395   0.595   7.030  0.1290 -0.2233 -0.1078
11839SOL    HW136425   2.374   0.501   7.035  1.4490 -0.4893  1.0324
11839SOL    HW236426   2.310   0.638   7.017 -0.7706 -1.4311  1.4262
11840SOL     OW36427   2.457   5.228   0.240 -0.0804  0.8536  0.8290
11840SOL    HW136428   2.466   5.136   0.217  1.8159  1.2612 -0.2478
11840SOL    HW236429   2.374   5.255   0.200  0.3407  0.0969 -0.6144
11841SOL     OW36430   4.409   2.154   2.170 -0.1736 -0.2075  0.1402
11841SOL    HW136431   4.468   2.096   2.218 -0.2326  0.8838  1.6078
11841SOL    HW236432   4.447   2.241   2.181 -0.7376  0.1996 -0.9850
11842SOL     OW36433   5.201   2.220   3.928  0.4345 -0.1918  0.3565
11842SOL    HW136434   5.224   2.253   4.015  1.2155 -0.4464  0.2510
11842SOL    HW236435   5.151   2.291   3.888  0.0837 -0.0633  1.0011
11843SOL     OW36436   2.723   5.253   4.026 -0.0451 -0.1314 -0.0602
11843SOL    HW136437   2.639   5.239   3.983  1.5935 -0.2794 -3.5694
11843SOL    HW236438   2.720   5.344   4.055 -1.1898  0.0718 -0.7324
11844SOL     OW36439   4.942   1.567   5.954  0.0717 -0.1797  0.0893
11844SOL    HW136440   4.879   1.542   6.021 -0.2169  0.8836  0.2355
11844SOL    HW236441   5.027   1.566   5.998  0.2432 -1.9944 -0.2050
11845SOL     OW36442   0.891   4.454   1.074  0.3322  0.0420  0.3460
11845SOL    HW136443   0.940   4.407   1.007 -0.9813  0.7064 -1.1426
11845SOL    HW236444   0.926   4.543   1.072  1.5944 -0.3717  1.9235
11846SOL     OW36445   5.968   2.218   7.387  0.3178  0.1406 -0.2276
11846SOL    HW136446   6.006   2.180   7.466 -0.7511  0.9631  0.7140
11846SOL    HW236447   5.886   2.258   7.416 -0.2607  0.1992 -1.8123
11847SOL     OW36448   7.079   1.882   0.381  0.0896 -0.0361 -0.0243
11847SOL    HW136449   7.022   1.823   0.330  0.8604 -1.2231  0.4517
11847SOL    HW236450   7.018   1.943   0.422 -0.9851 -1.8013  1.1689
11848SOL     OW36451   3.516   1.894   5.468  0.5214 -0.8234  0.4562
11848SOL    HW136452   3.445   1.854   5.517 -0.6170  0.1600 -0.3464
11848SOL    HW236453   3.481   1.977   5.438  2.0086 -0.3227  0.0122
11849SOL     OW36454   4.777   7.590   7.441 -0.5060  0.3585 -0.2166
11849SOL    HW136455   4.731   7.656   7.492 -0.6328  0.8728 -0.9907
11849SOL    HW236456   4.713   7.520   7.429 -0.5104  0.2841  0.2281
11850SOL     OW36457   5.559   5.708   2.434  0.0956 -0.4385 -0.2638
11850SOL    HW136458   5.471   5.687   2.466 -0.1537  0.4238 -0.3681
11850SOL    HW236459   5.567   5.802   2.445  1.2436 -0.5921  0.3087
11851SOL     OW36460   6.181   5.274   0.712 -0.2361  0.3286  0.3080
11851SOL    HW136461   6.098   5.293   0.757 -0.0217  2.4063 -0.0858
11851SOL    HW236462   6.154   5.231   0.630 -0.7448 -1.3515  1.3000
11852SOL     OW36463   6.551   2.490   7.342  0.3035 -0.2580  0.6492
11852SOL    HW136464   6.605   2.443   7.278  0.3325 -0.1419  0.5880
11852SOL    HW236465   6.586   2.464   7.427  1.6198  1.1799  0.5822
11853SOL     OW36466   1.311   2.102   2.465  0.2442 -0.2665  0.4787
11853SOL    HW136467   1.361   2.138   2.538  0.2501 -0.4607  0.5714
11853SOL    HW236468   1.223   2.137   2.477  0.9123  2.2439 -1.1508
11854SOL     OW36469   1.678   2.596   5.777 -1.1888  0.4238 -0.3566
11854SOL    HW136470   1.593   2.633   5.752 -0.4958  1.6413 -0.9766
11854SOL    HW236471   1.714   2.562   5.696 -0.8023  0.5055 -0.2195
11855SOL     OW36472   2.824   3.880   5.101 -0.5046 -0.0468  0.4743
11855SOL    HW136473   2.837   3.919   5.015  1.1881  1.3956  1.3349
11855SOL    HW236474   2.862   3.793   5.094 -0.3317  0.0795 -0.2236
11856SOL     OW36475   7.490   1.264   1.214  0.1073 -0.0783 -0.4635
11856SOL    HW136476   7.458   1.176   1.195 -0.0704  0.0978 -0.9983
11856SOL    HW236477   7.543   1.287   1.138  0.4957  0.1164 -0.1380
11857SOL     OW36478   4.427   5.241   0.320 -0.3289 -0.1088 -0.3445
11857SOL    HW136479   4.392   5.172   0.263  0.6027 -0.1883 -0.8384
11857SOL    HW236480   4.485   5.195   0.380 -0.1150  0.1717 -0.3361
11858SOL     OW36481   1.558   1.739   0.931 -0.0908 -0.6377  0.5323
11858SOL    HW136482   1.634   1.789   0.962  0.7147 -0.6753 -1.2931
11858SOL    HW236483   1.547   1.766   0.840 -0.3778 -2.8746 -0.1536
11859SOL     OW36484   5.875   4.540   6.225  0.3080 -0.5818 -0.0374
11859SOL    HW136485   5.822   4.484   6.282 -2.0804  2.5542  1.1442
11859SOL    HW236486   5.962   4.539   6.265 -0.5431 -0.8128  1.9675
11860SOL     OW36487   5.483   2.520   6.427 -0.1779  0.0573 -0.3191
11860SOL    HW136488   5.529   2.464   6.489  0.0972 -2.4985 -2.6127
11860SOL    HW236489   5.547   2.537   6.358 -1.7858 -1.4278 -2.3190
11861SOL     OW36490   2.026   3.254   5.979 -0.0575  0.1384 -0.0466
11861SOL    HW136491   1.941   3.299   5.986  0.4426  1.2735 -0.9567
11861SOL    HW236492   2.026   3.216   5.892 -0.7015 -2.2070  0.9016
11862SOL     OW36493   0.920   1.115   3.003  0.3972 -0.4306  0.1620
11862SOL    HW136494   0.991   1.115   2.938 -0.2828  0.6015 -0.6069
11862SOL    HW236495   0.872   1.196   2.987 -0.8261 -0.9932  0.8148
11863SOL     OW36496   2.642   3.861   6.840  0.4598 -0.2517 -0.1856
11863SOL    HW136497   2.658   3.768   6.854 -0.1551 -0.4473 -0.6847
11863SOL    HW236498   2.687   3.881   6.758  0.7574 -0.0580  0.0229
11864SOL     OW36499   6.607   5.741   0.814  0.1505  0.1997 -0.0754
11864SOL    HW136500   6.528   5.689   0.822  0.6823 -0.7965 -1.0758
11864SOL    HW236501   6.620   5.752   0.720  0.6289  1.2591  0.0903
11865SOL     OW36502   0.773   1.958   3.678 -0.4193 -0.0227 -0.2449
11865SOL    HW136503   0.758   2.050   3.700 -0.6567  0.1027 -0.9189
11865SOL    HW236504   0.849   1.933   3.731  1.6119  1.4360 -2.2775
11866SOL     OW36505   0.837   6.879   0.680  0.4214 -0.9256 -0.0955
11866SOL    HW136506   0.780   6.804   0.665 -2.7043  0.9154  1.4085
11866SOL    HW236507   0.878   6.861   0.765 -1.4912 -0.3838  1.0031
11867SOL     OW36508   2.780   7.636   3.194  0.1739 -0.0253 -0.0712
11867SOL    HW136509   2.708   7.696   3.214  0.0976 -0.6966  1.8469
11867SOL    HW236510   2.739   7.551   3.184  0.5516 -0.1732 -0.4019
11868SOL     OW36511   3.527   6.871   3.487  0.8140  0.2715 -0.1985
11868SOL    HW136512   3.537   6.909   3.575 -0.0010 -0.9015  0.4381
11868SOL    HW236513   3.567   6.784   3.495 -2.6680 -1.4435  0.2188
11869SOL     OW36514   4.846   6.019   0.547  0.4148 -0.2151 -0.0137
11869SOL    HW136515   4.930   6.030   0.593  1.5438  0.7761 -2.1412
11869SOL    HW236516   4.852   5.933   0.507  1.5067  0.7199 -2.0445
11870SOL     OW36517   5.126   7.589   4.592  0.6169 -0.0172  0.6562
11870SOL    HW136518   5.141   7.543   4.509 -1.3032 -0.0002  0.2550
11870SOL    HW236519   5.179   7.540   4.656  1.5545 -0.4734 -0.4306
11871SOL     OW36520   3.784   6.055   5.646  0.0558  0.2321  0.3131
11871SOL    HW136521   3.877   6.074   5.631  0.1461  1.0126  1.6708
11871SOL    HW236522   3.785   5.988   5.715 -0.4015  0.9356  1.0118
11872SOL     OW36523   2.185   1.342   1.078 -0.2240  0.0775  0.1635
11872SOL    HW136524   2.230   1.427   1.075  0.1761 -0.1128  0.6441
11872SOL    HW236525   2.255   1.277   1.068 -0.5184 -0.2003 -0.1214
11873SOL     OW36526   3.981   7.229   4.549  0.0487 -0.7184  0.5487
11873SOL    HW136527   3.996   7.295   4.616  0.0152  0.2632 -0.3736
11873SOL    HW236528   4.060   7.176   4.550  1.4900  1.2251 -0.7167
11874SOL     OW36529   6.295   5.116   0.917  0.7642 -0.2508 -0.6456
11874SOL    HW136530   6.272   5.164   0.837  1.5598 -0.3697 -0.9560
11874SOL    HW236531   6.220   5.129   0.975  1.0302  1.5322 -0.6414
11875SOL     OW36532   3.722   5.178   5.429 -0.2979 -0.3398 -0.0715
11875SOL    HW136533   3.758   5.267   5.424  0.7551 -0.8060 -1.1381
11875SOL    HW236534   3.728   5.155   5.522 -3.3835  1.7770  0.8341
11876SOL     OW36535   0.783   5.731   2.310 -0.0010  0.4632  0.0441
11876SOL    HW136536   0.748   5.682   2.385  0.5414  0.4372  0.2902
11876SOL    HW236537   0.821   5.663   2.253 -1.0339  0.4156 -0.6060
11877SOL     OW36538   0.028   3.993   3.695 -0.0958  0.0817  0.2706
11877SOL    HW136539   0.039   4.045   3.615  0.3251  0.2920  0.4678
11877SOL    HW236540   0.089   3.920   3.685 -0.9963 -0.6452 -0.2118
11878SOL     OW36541   0.635   0.257   0.897 -0.7141  0.3335 -0.2729
11878SOL    HW136542   0.616   0.317   0.969  1.9625  1.0653 -0.0698
11878SOL    HW236543   0.623   0.170   0.935 -0.0019  0.7170  0.9004
11879SOL     OW36544   4.659   1.691   5.476 -0.3776 -0.2070 -0.6386
11879SOL    HW136545   4.653   1.613   5.420  0.4208 -0.7866  0.0741
11879SOL    HW236546   4.628   1.662   5.561 -0.1259  0.2723 -0.3822
11880SOL     OW36547   3.264   4.919   4.520 -0.4329 -0.4612 -0.1149
11880SOL    HW136548   3.185   4.960   4.483 -1.2713 -1.0905  0.9088
11880SOL    HW236549   3.239   4.827   4.530  0.2538 -0.5632  0.7186
11881SOL     OW36550   4.130   1.651   4.107 -0.0341 -0.1804 -0.5517
11881SOL    HW136551   4.074   1.724   4.082  1.1551  1.6385  1.6907
11881SOL    HW236552   4.070   1.581   4.130 -1.3829  1.2722  0.5652
11882SOL     OW36553   4.070   2.402   4.686  0.0031 -0.5599 -0.3134
11882SOL    HW136554   4.136   2.414   4.618 -0.2015 -1.5956 -0.7098
11882SOL    HW236555   4.024   2.485   4.690  0.5298 -0.2345 -0.8906
11883SOL     OW36556   5.505   1.014   2.936 -0.1857  0.2999 -0.4300
11883SOL    HW136557   5.453   1.034   2.858 -0.4481 -0.8014 -0.5474
11883SOL    HW236558   5.449   1.037   3.009 -0.5597 -0.1733 -0.5625
11884SOL     OW36559   6.777   6.934   1.195 -0.2018  0.4850  0.0085
11884SOL    HW136560   6.844   6.879   1.236  0.4979  0.7051 -0.8213
11884SOL    HW236561   6.814   6.960   1.111 -1.9920 -0.7908 -1.2713
11885SOL     OW36562   0.814   5.817   4.258 -0.4516 -0.4497 -0.4448
11885SOL    HW136563   0.810   5.912   4.252 -0.4550 -0.3642  0.6822
11885SOL    HW236564   0.737   5.786   4.211  0.0534  0.0586 -1.6227
11886SOL     OW36565   1.955   2.673   5.138  0.5092  0.5913  0.0518
11886SOL    HW136566   1.938   2.760   5.101  0.6335  0.9396  0.7943
11886SOL    HW236567   2.050   2.670   5.149  0.4473  0.6091  0.6125
11887SOL     OW36568   7.012   1.467   4.493 -0.0563  0.3532  0.2726
11887SOL    HW136569   7.071   1.411   4.543  0.9218  0.2268 -0.9586
11887SOL    HW236570   6.926   1.425   4.500  0.1931 -0.0120  1.2559
11888SOL     OW36571   1.816   3.086   6.442 -0.4567  0.0184 -0.1640
11888SOL    HW136572   1.836   2.995   6.418 -0.8933  0.1547 -1.0771
11888SOL    HW236573   1.721   3.087   6.455 -0.4374  0.3201 -0.0489
11889SOL     OW36574   1.056   4.052   2.779 -0.1012 -0.1864 -0.2653
11889SOL    HW136575   0.968   4.080   2.755  0.7869  0.1187 -3.6937
11889SOL    HW236576   1.107   4.133   2.782  0.2143 -0.4152  1.0874
11890SOL     OW36577   5.568   2.141   2.255 -0.6172 -0.8899  0.6526
11890SOL    HW136578   5.604   2.110   2.172 -0.5511  0.1004  0.2987
11890SOL    HW236579   5.616   2.092   2.322  0.8449 -0.1984  0.1662
11891SOL     OW36580   7.263   6.467   5.934 -0.1802 -0.1193  0.4841
11891SOL    HW136581   7.175   6.482   5.971 -1.4275  0.7628 -2.5505
11891SOL    HW236582   7.303   6.554   5.933 -0.5489  0.0530 -1.0359
11892SOL     OW36583   3.204   4.823   5.919 -0.2013  0.3124  0.0090
11892SOL    HW136584   3.110   4.837   5.929 -0.1369  0.3486  0.6021
11892SOL    HW236585   3.214   4.728   5.911 -0.3577  0.3650 -0.8625
11893SOL     OW36586   5.131   5.070   5.321 -0.0309 -0.1576  0.0988
11893SOL    HW136587   5.168   4.987   5.290  1.6526  0.2529  0.8543
11893SOL    HW236588   5.053   5.044   5.370  0.6034 -1.3449  0.5375
11894SOL     OW36589   2.397   3.969   5.761 -0.4866  0.0243 -0.0068
11894SOL    HW136590   2.400   3.904   5.691 -1.4500 -2.0153  1.7496
11894SOL    HW236591   2.332   4.032   5.731  1.9409  1.5310 -2.7089
11895SOL     OW36592   5.202   6.696   4.856  0.4196  0.3852 -0.5331
11895SOL    HW136593   5.239   6.675   4.941 -1.1609 -0.0201  0.0984
11895SOL    HW236594   5.110   6.668   4.863  0.4174 -0.2514 -2.5883
11896SOL     OW36595   7.307   6.105   1.982  0.7036 -0.3127 -0.5472
11896SOL    HW136596   7.351   6.029   2.021  0.1267 -1.7637 -2.6026
11896SOL    HW236597   7.378   6.155   1.942  0.9203 -0.6244 -0.5603
11897SOL     OW36598   0.086   2.941   3.426  0.2331 -0.2184  0.3006
11897SOL    HW136599   0.050   3.003   3.490 -0.8619 -0.1672 -0.3296
11897SOL    HW236600   0.054   2.973   3.341  1.6247 -0.3118 -0.2757
11898SOL     OW36601   1.041   5.329   1.809 -0.6714  0.0857 -0.0221
11898SOL    HW136602   1.116   5.294   1.760 -0.4802  1.2416 -0.6031
11898SOL    HW236603   0.992   5.380   1.745 -1.9044 -0.5559  0.3899
11899SOL     OW36604   6.291   1.568   1.581 -0.2655  0.1236  0.2066
11899SOL    HW136605   6.278   1.662   1.569  1.2424  0.4784  1.0815
11899SOL    HW236606   6.382   1.560   1.607  0.0941 -1.7503 -1.4440
11900SOL     OW36607   3.341   5.109   3.125 -0.2204  0.3476  0.1033
11900SOL    HW136608   3.409   5.173   3.103  0.0037  0.7387  1.8030
11900SOL    HW236609   3.382   5.053   3.191 -0.8047 -0.8591 -0.5246
11901SOL     OW36610   1.533   3.978   2.949  0.6764  0.4112  0.2262
11901SOL    HW136611   1.558   3.931   3.029 -0.9375 -0.0181  0.5283
11901SOL    HW236612   1.465   4.039   2.978 -0.9018 -0.6733 -1.0062
11902SOL     OW36613   4.490   3.177   5.422 -0.1782 -0.1068  0.1235
11902SOL    HW136614   4.437   3.130   5.486  0.6412  1.3330  1.9486
11902SOL    HW236615   4.496   3.266   5.456  1.8342  0.2588 -0.9910
11903SOL     OW36616   0.771   3.577   6.547 -0.1302 -0.2584  0.3248
11903SOL    HW136617   0.854   3.542   6.516  0.0007  0.5719 -0.2910
11903SOL    HW236618   0.713   3.500   6.554  0.8218 -0.9216  1.2730
11904SOL     OW36619   6.746   0.573   0.967  0.4114 -0.5187 -0.0961
11904SOL    HW136620   6.682   0.641   0.988  0.6921 -0.3674  0.2883
11904SOL    HW236621   6.693   0.495   0.950  0.0663 -0.1036 -0.9804
11905SOL     OW36622   6.065   6.639   4.593  0.3686 -0.1445  0.2916
11905SOL    HW136623   6.140   6.691   4.621  1.4539 -1.6712  0.3088
11905SOL    HW236624   6.017   6.698   4.534  1.2015  1.0827  0.7829
11906SOL     OW36625   3.882   1.785   7.455 -0.2332  0.0033  0.5997
11906SOL    HW136626   3.943   1.800   7.384 -2.8260 -0.5514 -1.9258
11906SOL    HW236627   3.894   1.692   7.477 -0.0608 -0.0647  0.2259
11907SOL     OW36628   2.528   5.009   5.564 -0.0489 -0.1726  0.2245
11907SOL    HW136629   2.449   4.957   5.577  0.2546 -0.5281  0.6587
11907SOL    HW236630   2.504   5.097   5.595 -0.0845 -0.4291  0.9542
11908SOL     OW36631   6.477   4.033   0.107 -0.5255 -0.1318 -0.2923
11908SOL    HW136632   6.466   3.998   0.019 -1.0710 -0.0729 -0.2545
11908SOL    HW236633   6.537   3.972   0.150 -2.9293 -2.1802  0.3851
11909SOL     OW36634   0.907   4.676   7.652  0.3133  0.3850  0.7966
11909SOL    HW136635   0.945   4.736   7.586  0.0466  1.2822  1.4353
11909SOL    HW236636   0.827   4.644   7.611  0.2220  0.8270  0.6223
11910SOL     OW36637   2.309   0.593   0.488  0.3505  0.6746 -0.0579
11910SOL    HW136638   2.393   0.633   0.511  2.1970 -2.8790  0.0747
11910SOL    HW236639   2.332   0.518   0.434 -2.9409  0.5454 -1.5573
11911SOL     OW36640   7.143   0.088   5.988 -0.6740  0.5661  0.3592
11911SOL    HW136641   7.125   0.076   6.081 -1.4032  0.9410  0.2700
11911SOL    HW236642   7.141  -0.000   5.952 -0.4909  0.4292  0.6768
11912SOL     OW36643   5.309   1.626   3.101 -0.1440  1.0789 -0.2382
11912SOL    HW136644   5.380   1.605   3.040 -1.2260 -1.1869 -0.8180
11912SOL    HW236645   5.352   1.631   3.187  0.9047  1.1077 -0.7507
11913SOL     OW36646   2.333   5.533   5.673 -0.2121 -0.3081  0.1899
11913SOL    HW136647   2.405   5.563   5.618  0.0723 -0.5827  0.4049
11913SOL    HW236648   2.339   5.586   5.752  0.7943 -1.4447  0.9184
11914SOL     OW36649   0.298   3.745   7.006 -0.0145  0.3721 -0.0574
11914SOL    HW136650   0.303   3.828   7.052 -1.2822  0.7769 -0.6046
11914SOL    HW236651   0.249   3.765   6.926 -1.5111 -1.1673  0.4393
11915SOL     OW36652   2.124   3.451   6.843 -0.3623 -0.0069  0.6478
11915SOL    HW136653   2.079   3.376   6.881  1.2434 -2.0048 -1.0973
11915SOL    HW236654   2.060   3.492   6.786 -0.8845 -0.8996  0.5778
11916SOL     OW36655   4.112   0.685   0.175 -0.2728 -0.2860  0.3274
11916SOL    HW136656   4.028   0.678   0.128  0.1559  1.3370 -0.7588
11916SOL    HW236657   4.095   0.747   0.246  0.7096  2.7169 -1.8472
11917SOL     OW36658   7.500   3.368   2.299  0.1337  0.6656 -0.2297
11917SOL    HW136659   7.482   3.289   2.249 -0.6069  2.1999 -2.5959
11917SOL    HW236660   7.596   3.375   2.299  0.2436  2.3567 -4.7181
11918SOL     OW36661   2.048   1.852   3.940  0.1089 -0.0456 -0.1986
11918SOL    HW136662   2.082   1.783   3.882 -1.0735 -0.9598  0.1587
11918SOL    HW236663   2.123   1.911   3.953  0.7792 -0.5599 -1.5475
11919SOL     OW36664   6.700   7.067   1.411  0.8744 -0.4213 -0.0306
11919SOL    HW136665   6.729   7.019   1.334 -0.5839  1.7901 -2.0964
11919SOL    HW236666   6.628   7.015   1.447  1.3877 -1.3277 -0.2854
11920SOL     OW36667   6.158   4.999   2.396 -0.5070  0.0992 -0.2851
11920SOL    HW136668   6.077   5.047   2.377 -0.2495  1.5405  1.8730
11920SOL    HW236669   6.149   4.974   2.488  1.1291 -0.5476 -0.2738
11921SOL     OW36670   6.404   0.764   6.818  0.6159 -0.3424  0.6013
11921SOL    HW136671   6.315   0.797   6.813 -0.5511 -3.1549  0.8596
11921SOL    HW236672   6.456   0.838   6.851 -1.4522  1.5606 -0.1700
11922SOL     OW36673   6.442   4.712   1.557 -0.7382  0.7690  0.7147
11922SOL    HW136674   6.404   4.782   1.610  0.3616  2.1653 -0.2460
11922SOL    HW236675   6.536   4.714   1.578 -0.9323 -1.8168  2.1712
11923SOL     OW36676   6.928   5.215   3.404  1.0658 -0.2894  0.5318
11923SOL    HW136677   6.871   5.260   3.467 -0.6792  0.0498 -1.2118
11923SOL    HW236678   6.998   5.177   3.458  0.2771  0.9474  2.5230
11924SOL     OW36679   5.123   0.101   5.152  0.0712  0.4310  0.4079
11924SOL    HW136680   5.043   0.079   5.104  1.0961  1.1602 -1.7658
11924SOL    HW236681   5.190   0.109   5.084  2.1859 -0.8564  2.2001
11925SOL     OW36682   5.829   3.951   1.843  0.2537 -0.2966 -0.2927
11925SOL    HW136683   5.794   3.963   1.931  0.4533 -2.1634  0.0868
11925SOL    HW236684   5.828   4.039   1.804 -2.5129  0.1473  0.5449
11926SOL     OW36685   4.383   1.674   6.105  0.1299 -0.1561  0.4572
11926SOL    HW136686   4.310   1.703   6.051  1.4944  1.7121 -0.5018
11926SOL    HW236687   4.348   1.599   6.154 -1.8717 -0.4221 -1.2233
11927SOL     OW36688   4.816   0.801   2.172  0.2615  0.9175  0.3864
11927SOL    HW136689   4.882   0.833   2.234  2.0773 -1.1085 -0.3589
11927SOL    HW236690   4.844   0.837   2.088 -0.3912  1.1399  0.2597
11928SOL     OW36691   2.888   4.021   1.044 -0.0388  0.5203 -0.4528
11928SOL    HW136692   2.822   4.074   0.999 -0.0627  0.9327  0.0563
11928SOL    HW236693   2.953   4.085   1.075  0.0066  0.2410  0.0449
11929SOL     OW36694   4.523   2.782   1.910  0.3655  0.2077  0.9070
11929SOL    HW136695   4.484   2.852   1.964 -0.5249 -0.3181  0.9605
11929SOL    HW236696   4.514   2.813   1.820 -1.6205 -0.5867  0.8006
11930SOL     OW36697   4.019   2.124   0.554 -0.1671  0.3360 -0.2678
11930SOL    HW136698   4.035   2.153   0.464 -0.4616  2.0064  0.1778
11930SOL    HW236699   4.091   2.064   0.573 -0.7832 -1.0650 -2.0149
11931SOL     OW36700   4.517   1.979   5.419 -0.0879  0.2446 -0.2667
11931SOL    HW136701   4.527   1.922   5.496  0.6204  0.0453 -0.4915
11931SOL    HW236702   4.599   2.029   5.416 -0.7284  1.3408 -0.0363
11932SOL     OW36703   4.033   4.155   1.712  0.0120  0.1776  0.0435
11932SOL    HW136704   3.983   4.226   1.672 -0.3446  0.1870  0.5072
11932SOL    HW236705   4.080   4.115   1.638  0.2877  0.9458 -0.2076
11933SOL     OW36706   6.020   6.625   6.636 -1.1308  0.0732 -0.4574
11933SOL    HW136707   6.069   6.661   6.562 -1.5177 -1.1292 -1.3339
11933SOL    HW236708   5.968   6.698   6.669  0.1632  1.0113 -0.4054
11934SOL     OW36709   5.694   6.275   2.494  0.4298  0.2990  0.0497
11934SOL    HW136710   5.632   6.202   2.501 -0.4934  0.7019 -2.6469
11934SOL    HW236711   5.742   6.258   2.413  1.6916  1.6170  0.4801
11935SOL     OW36712   1.877   2.061   6.176  0.0030  0.2911  0.4441
11935SOL    HW136713   1.795   2.046   6.223  0.3544 -0.2115  0.9142
11935SOL    HW236714   1.898   1.976   6.138  0.9132  0.0995  1.3320
11936SOL     OW36715   0.533   1.531   4.567 -0.2365  0.4196 -0.4300
11936SOL    HW136716   0.591   1.605   4.587  0.1692  0.2418 -0.9484
11936SOL    HW236717   0.585   1.453   4.585 -0.9149  0.2330  0.8794
11937SOL     OW36718   0.076   1.186   5.298  0.1503  0.7922 -0.3455
11937SOL    HW136719  -0.007   1.234   5.292 -0.2996  0.1989  0.7920
11937SOL    HW236720   0.058   1.102   5.256 -0.6815 -0.3751  2.1467
11938SOL     OW36721   0.653   7.462   5.600 -0.3612 -0.4675  0.4045
11938SOL    HW136722   0.689   7.464   5.511  1.1701 -0.4601  0.9962
11938SOL    HW236723   0.583   7.527   5.598  0.2820  0.2383 -0.5579
11939SOL     OW36724   6.884   4.434   7.506  0.1627 -0.3247 -0.3221
11939SOL    HW136725   6.885   4.464   7.596  1.3604 -0.5099 -0.2621
11939SOL    HW236726   6.844   4.506   7.457 -0.7733 -0.3479  0.3815
11940SOL     OW36727   0.431   4.611   5.717 -0.4336 -0.1428 -0.5924
11940SOL    HW136728   0.517   4.568   5.717  0.1540  0.9488  0.6398
11940SOL    HW236729   0.450   4.701   5.743 -2.0453 -0.0862  0.4971
11941SOL     OW36730   3.360   1.029   3.356 -0.3902 -0.0730  0.1274
11941SOL    HW136731   3.405   1.009   3.274  2.4407 -0.4894  1.6287
11941SOL    HW236732   3.334   1.121   3.349  0.9518  0.2588 -0.7642
11942SOL     OW36733   5.317   4.427   5.236  0.2143  0.2261  0.4347
11942SOL    HW136734   5.225   4.435   5.208 -0.2535  1.4727  2.1608
11942SOL    HW236735   5.333   4.332   5.237 -0.3632  0.0557 -1.9004
11943SOL     OW36736   7.315   0.708   1.392  0.3217  0.4932  0.2507
11943SOL    HW136737   7.241   0.700   1.332  1.7440 -1.1148 -1.4008
11943SOL    HW236738   7.297   0.787   1.443 -0.6318  2.3451 -2.7284
11944SOL     OW36739   2.769   6.971   2.202  0.5028 -0.0099  0.8204
11944SOL    HW136740   2.760   6.900   2.266  1.2378 -1.3607 -0.5021
11944SOL    HW236741   2.715   6.943   2.128 -0.1778  1.4334  0.7549
11945SOL     OW36742   4.973   5.617   4.587  0.4820  0.1370  0.3260
11945SOL    HW136743   4.934   5.605   4.674 -1.5819  0.4095 -0.5087
11945SOL    HW236744   4.999   5.529   4.561  0.4970 -0.0523  0.9456
11946SOL     OW36745   0.352   0.371   5.075  0.1307 -0.3084  0.5903
11946SOL    HW136746   0.282   0.342   5.016  0.3639 -0.0592  0.1830
11946SOL    HW236747   0.395   0.290   5.102  0.8341 -0.3682 -0.6130
11947SOL     OW36748   6.455   4.163   3.937  0.6471  0.3869  0.6968
11947SOL    HW136749   6.473   4.091   3.877  1.5288  1.0059  0.1819
11947SOL    HW236750   6.458   4.124   4.024  2.3872 -0.0028  0.5073
11948SOL     OW36751   0.780   6.993   1.460  0.0681  0.5537 -0.8755
11948SOL    HW136752   0.750   6.935   1.390  0.8063  0.0133 -0.7511
11948SOL    HW236753   0.833   7.059   1.415 -1.4264  1.6592 -1.1304
11949SOL     OW36754   1.211   0.536   0.414  0.1201  0.2096 -0.0042
11949SOL    HW136755   1.304   0.528   0.396  0.2950 -0.0529  0.9559
11949SOL    HW236756   1.195   0.476   0.487 -0.4346  1.5512  1.0246
11950SOL     OW36757   4.917   4.621   3.986 -0.4928  0.5671 -0.5598
11950SOL    HW136758   5.002   4.630   4.029 -0.4406 -0.4505 -0.4322
11950SOL    HW236759   4.933   4.564   3.911 -0.8476  1.2853 -1.2018
11951SOL     OW36760   4.712   5.685   1.503 -0.0970 -0.0796 -0.0390
11951SOL    HW136761   4.799   5.713   1.475 -1.1389  2.0027 -1.4354
11951SOL    HW236762   4.685   5.751   1.567 -0.6016 -0.7986  0.5113
11952SOL     OW36763   1.251   3.607   7.352  0.4165  0.3066  0.5701
11952SOL    HW136764   1.316   3.676   7.363 -0.1736  1.2787 -1.5025
11952SOL    HW236765   1.295   3.541   7.298 -0.0950  0.7091 -0.3682
11953SOL     OW36766   6.683   5.822   0.548  0.3106 -0.3265  0.1180
11953SOL    HW136767   6.670   5.916   0.555 -0.7518 -0.4577  0.0588
11953SOL    HW236768   6.596   5.787   0.528  0.6932 -1.3171  0.1254
11954SOL     OW36769   0.921   2.773   3.475 -0.2027  0.1232  0.6120
11954SOL    HW136770   0.893   2.849   3.526  0.8171  0.2177  1.0552
11954SOL    HW236771   0.963   2.715   3.539 -0.6752 -0.6655  0.2218
11955SOL     OW36772   2.913   7.517   4.912  0.0168 -0.9389  0.8312
11955SOL    HW136773   2.818   7.527   4.912  0.2517  3.4649 -0.7915
11955SOL    HW236774   2.940   7.550   4.998  0.1170  1.6313 -0.0806
11956SOL     OW36775   5.362   7.345   3.746 -0.6334 -0.1663 -0.1191
11956SOL    HW136776   5.275   7.320   3.715  0.4405 -0.7312 -3.0175
11956SOL    HW236777   5.356   7.439   3.763 -1.8563 -0.2470 -0.0515
11957SOL     OW36778   5.914   0.893   5.451  0.2941  0.6234 -0.1362
11957SOL    HW136779   5.933   0.868   5.541  3.5739  0.8099 -0.6687
11957SOL    HW236780   5.883   0.983   5.457 -0.1965  0.4039  0.8334
11958SOL     OW36781   1.594   4.195   2.416 -0.4728 -0.1694  0.2834
11958SOL    HW136782   1.524   4.256   2.440  0.2048  0.2628  1.3023
11958SOL    HW236783   1.667   4.252   2.390 -0.4111 -0.5978 -0.4953
11959SOL     OW36784   6.190   4.736   5.186 -0.0514 -0.3045  0.3385
11959SOL    HW136785   6.231   4.815   5.152  0.1497  0.1337  1.5425
11959SOL    HW236786   6.098   4.759   5.199  0.4296  0.5170  2.8217
11960SOL     OW36787   4.622   1.978   0.427  0.3986  0.2589 -0.0901
11960SOL    HW136788   4.561   1.922   0.380  0.2405 -1.0657  1.5817
11960SOL    HW236789   4.571   2.055   0.451 -0.1126 -0.0269 -0.2487
11961SOL     OW36790   0.143   5.074   4.296 -0.2603  0.2766 -0.1580
11961SOL    HW136791   0.084   5.089   4.370  0.4909 -0.8079  0.6991
11961SOL    HW236792   0.230   5.078   4.334  0.1656  0.2147 -1.1028
11962SOL     OW36793   3.264   7.010   7.351  0.1957  0.1475 -0.7341
11962SOL    HW136794   3.251   6.928   7.397 -0.9036  0.6034 -0.1796
11962SOL    HW236795   3.359   7.016   7.338  0.2995 -1.1380 -0.6868
11963SOL     OW36796   7.099   6.459   2.710 -0.1393 -0.5354  0.1798
11963SOL    HW136797   7.134   6.373   2.734 -0.9022 -1.2212 -1.0761
11963SOL    HW236798   7.007   6.455   2.734 -0.3494 -0.3453 -0.5650
11964SOL     OW36799   3.313   0.607   2.571 -0.3713  0.2851  0.6796
11964SOL    HW136800   3.390   0.614   2.515 -0.2988 -0.5564  0.6564
11964SOL    HW236801   3.273   0.694   2.568 -0.3805  0.2598 -0.6892
11965SOL     OW36802   2.245   7.113   5.126  0.2427 -0.2200  0.0953
11965SOL    HW136803   2.287   7.059   5.193 -0.7942 -1.3877 -0.1674
11965SOL    HW236804   2.254   7.063   5.045  0.7445  0.7894 -0.4980
11966SOL     OW36805   1.964   1.024   6.484  0.4176  0.2588 -0.3716
11966SOL    HW136806   2.010   1.069   6.554  0.0129  0.3441 -0.1598
11966SOL    HW236807   1.967   0.932   6.508  0.4775  0.2634 -0.3607
11967SOL     OW36808   7.426   2.748   1.949 -0.6607  0.2149 -0.1725
11967SOL    HW136809   7.348   2.772   1.998 -0.5429  0.2282  0.0123
11967SOL    HW236810   7.400   2.751   1.857 -1.0358 -0.3624 -0.0867
11968SOL     OW36811   0.753   4.096   5.536  0.0153 -0.4722  0.2472
11968SOL    HW136812   0.716   4.106   5.449  0.7036 -1.2616 -0.1502
11968SOL    HW236813   0.812   4.021   5.529  0.0546 -0.5720  1.3995
11969SOL     OW36814   5.806   1.210   3.914  0.4608 -0.4561  0.2492
11969SOL    HW136815   5.900   1.200   3.924  0.8863  1.4790 -1.2840
11969SOL    HW236816   5.791   1.304   3.910 -1.4573 -0.7219 -0.2802
11970SOL     OW36817   4.725   1.812   0.113 -0.3747 -0.0162  0.0648
11970SOL    HW136818   4.700   1.905   0.112  0.9633  0.4082  1.4073
11970SOL    HW236819   4.787   1.803   0.040 -2.3798 -0.4988 -1.6813
11971SOL     OW36820   4.829   5.293   4.196  0.1087  0.4550  0.2408
11971SOL    HW136821   4.911   5.333   4.167  0.8628  0.2552  2.0325
11971SOL    HW236822   4.823   5.211   4.147  0.2716  1.1022 -0.9004
11972SOL     OW36823   2.694   2.748   2.617 -0.8116 -0.7922  0.3925
11972SOL    HW136824   2.702   2.730   2.523 -0.3178  0.5811  0.1487
11972SOL    HW236825   2.609   2.791   2.625 -0.6469 -0.4778  0.4878
11973SOL     OW36826   2.651   6.613   5.645  0.9295  0.4928 -0.0289
11973SOL    HW136827   2.610   6.695   5.671 -1.2160 -0.4187 -0.3167
11973SOL    HW236828   2.620   6.598   5.555 -0.5716 -1.6543  0.7461
11974SOL     OW36829   4.635   0.532   2.825  0.3909  0.2519 -0.3264
11974SOL    HW136830   4.588   0.599   2.774  1.0749  1.8126  0.9972
11974SOL    HW236831   4.703   0.581   2.871  2.0955 -1.6594 -0.6915
11975SOL     OW36832   0.933   1.608   3.330 -0.4449 -0.0170  0.0267
11975SOL    HW136833   0.980   1.686   3.359  0.6700 -1.3123  1.9463
11975SOL    HW236834   0.937   1.548   3.404 -2.0588 -1.5809 -1.0472
11976SOL     OW36835   4.153   7.376   3.825  0.4773  0.4359  0.0139
11976SOL    HW136836   4.197   7.455   3.855  1.7833  0.2794 -1.3742
11976SOL    HW236837   4.105   7.404   3.746  0.7251 -0.0855 -0.3284
11977SOL     OW36838   7.063   4.207   7.261 -0.2001 -0.1323  0.0098
11977SOL    HW136839   7.033   4.293   7.231 -1.7548 -0.6027  0.1658
11977SOL    HW236840   6.994   4.176   7.319  0.6073 -1.2632  0.4073
11978SOL     OW36841   3.218   7.503   0.632 -0.0068  0.3891  0.2617
11978SOL    HW136842   3.276   7.506   0.707  1.0514 -0.1650 -0.5068
11978SOL    HW236843   3.201   7.594   0.610  0.5631  0.5555  0.5016
11979SOL     OW36844   2.473   0.136   0.610  0.2114  0.1229 -0.3656
11979SOL    HW136845   2.485   0.047   0.577  0.8103 -0.7940  2.1455
11979SOL    HW236846   2.561   0.171   0.619  0.0461  0.4405  0.0416
11980SOL     OW36847   0.344   5.318   5.104  0.2016 -0.2115  0.6124
11980SOL    HW136848   0.267   5.263   5.089  0.3521 -0.9135  2.1648
11980SOL    HW236849   0.349   5.326   5.199  1.0951  1.2224  0.4678
11981SOL     OW36850   0.482   4.171   7.337  0.0029 -0.4864 -0.7289
11981SOL    HW136851   0.496   4.218   7.420 -0.5962 -1.0725 -0.2816
11981SOL    HW236852   0.403   4.209   7.300  1.6355  1.5616 -2.3516
11982SOL     OW36853   3.814   4.743   2.511  0.2203 -0.5741 -0.0537
11982SOL    HW136854   3.896   4.701   2.537  0.8478  0.0988 -0.8841
11982SOL    HW236855   3.841   4.821   2.463 -0.8998  0.8658  1.5408
11983SOL     OW36856   1.584   3.312   6.226  0.8847  0.3048 -0.2232
11983SOL    HW136857   1.573   3.406   6.214 -0.5311  0.0361 -1.3448
11983SOL    HW236858   1.583   3.299   6.321  1.6077  1.4593 -0.0484
11984SOL     OW36859   2.617   5.329   6.857  0.3651  0.2779  0.0396
11984SOL    HW136860   2.656   5.391   6.795  0.6191 -0.0732 -0.1563
11984SOL    HW236861   2.680   5.257   6.860  0.9195  0.7877  1.5581
11985SOL     OW36862   7.731   0.063   2.718  0.0423 -0.2775  0.1019
11985SOL    HW136863   7.754  -0.019   2.761  1.3217  0.6245  1.2038
11985SOL    HW236864   7.636   0.060   2.710 -0.0007 -1.4979  0.8796
11986SOL     OW36865   7.500   3.614   7.549 -0.2756  0.0220 -0.0387
11986SOL    HW136866   7.594   3.614   7.563 -0.4588 -0.9443  1.3732
11986SOL    HW236867   7.470   3.696   7.589 -0.0457  0.3515 -0.5284
11987SOL     OW36868   7.502   4.659   4.665 -0.3359 -0.2114  0.4424
11987SOL    HW136869   7.596   4.643   4.657  0.2647  1.6674  2.5633
11987SOL    HW236870   7.462   4.575   4.646  1.5522 -0.5132 -2.9264
11988SOL     OW36871   1.357   7.424   6.150 -0.2138 -0.5616 -0.3708
11988SOL    HW136872   1.448   7.454   6.156  0.2569 -1.7384 -1.1143
11988SOL    HW236873   1.331   7.409   6.241  0.3100 -0.1383 -0.1461
11989SOL     OW36874   6.398   1.104   5.588  0.4069  0.3291 -0.2870
11989SOL    HW136875   6.481   1.135   5.622  0.7315 -0.2769 -0.5191
11989SOL    HW236876   6.409   1.106   5.493  0.8135 -1.4824 -0.3061
11990SOL     OW36877   4.516   1.337   2.882 -0.4749  0.1386  0.0448
11990SOL    HW136878   4.572   1.322   2.806 -1.0337 -0.9184 -0.1900
11990SOL    HW236879   4.443   1.388   2.848  0.0867  1.0908  0.2434
11991SOL     OW36880   7.521   3.873   1.355  0.4341  0.0698  0.1781
11991SOL    HW136881   7.484   3.893   1.269 -0.0139 -0.8564  0.1460
11991SOL    HW236882   7.514   3.778   1.363 -0.5717  0.2333  1.7084
11992SOL     OW36883   6.220   4.873   6.190  0.3482  0.4511  0.1889
11992SOL    HW136884   6.247   4.844   6.103 -0.0702  0.1312  0.1602
11992SOL    HW236885   6.278   4.946   6.210 -2.5152  3.7710 -2.3704
11993SOL     OW36886   2.662   2.396   0.953  0.4299 -0.0449 -0.5108
11993SOL    HW136887   2.605   2.355   1.018  1.5726 -0.7407  0.0724
11993SOL    HW236888   2.746   2.406   0.997  0.9339  0.4231 -1.5468
11994SOL     OW36889   1.550   3.469   4.443  0.5827  0.3428  0.3548
11994SOL    HW136890   1.553   3.561   4.416  0.3465  0.2833  0.1225
11994SOL    HW236891   1.462   3.458   4.478  0.1708 -0.1195 -0.7873
11995SOL     OW36892   4.012   0.472   7.489 -0.2324 -0.5947 -0.1331
11995SOL    HW136893   4.006   0.460   7.394 -1.1539  0.3231 -0.2162
11995SOL    HW236894   4.000   0.567   7.502 -0.5989 -0.7691  0.9255
11996SOL     OW36895   4.568   5.394   4.183  0.2815 -0.0647 -0.1483
11996SOL    HW136896   4.554   5.347   4.101 -2.6019 -1.8230  1.1924
11996SOL    HW236897   4.658   5.371   4.209  0.2967 -1.6999 -1.4772
11997SOL     OW36898   5.478   6.976   1.175 -0.0630  0.1938 -0.2530
11997SOL    HW136899   5.570   6.951   1.172 -0.1608 -0.1085 -1.2370
11997SOL    HW236900   5.437   6.924   1.105 -0.5416  2.0015 -1.3967
11998SOL     OW36901   7.424   7.345   0.916  0.3300  0.7491 -0.0833
11998SOL    HW136902   7.350   7.357   0.976  0.0961 -2.0617  0.3304
11998SOL    HW236903   7.383   7.331   0.830  0.2788 -1.0700  0.1896
11999SOL     OW36904   4.120   3.651   2.078  0.5536 -0.0589 -0.1970
11999SOL    HW136905   4.179   3.685   2.145 -0.9155 -0.9182  1.6309
11999SOL    HW236906   4.051   3.607   2.127 -1.8509  1.2239 -2.1793
12000SOL     OW36907   4.052   6.643   0.803  0.0836  0.6623  0.1738
12000SOL    HW136908   4.067   6.735   0.824 -2.1238  0.6265  2.4299
12000SOL    HW236909   4.111   6.595   0.862  0.6048  0.5989 -0.3885
12001SOL     OW36910   0.917   6.447   4.548 -0.8447  0.3637  0.0619
12001SOL    HW136911   0.879   6.456   4.460 -0.5277 -0.8710 -0.2118
12001SOL    HW236912   0.846   6.474   4.607 -1.1282  1.0097 -0.5554
12002SOL     OW36913   0.573   5.313   0.153 -0.1831 -0.3038  0.2564
12002SOL    HW136914   0.600   5.243   0.093 -1.3228 -0.4533 -0.1207
12002SOL    HW236915   0.614   5.392   0.118  2.4704 -0.9594  1.6108
12003SOL     OW36916   3.901   7.315   6.593  0.4962 -0.3126  0.6793
12003SOL    HW136917   3.916   7.391   6.650  0.3082 -0.0620  0.3944
12003SOL    HW236918   3.983   7.266   6.598  1.6691  1.2979 -1.2692
12004SOL     OW36919   6.917   3.749   7.172  0.0251  0.1333 -0.0338
12004SOL    HW136920   6.905   3.662   7.134  0.5083 -0.1038  0.3364
12004SOL    HW236921   6.880   3.742   7.260  0.2995  0.2254  0.0904
12005SOL     OW36922   2.245   1.073   6.645  0.1814  0.3783  0.1574
12005SOL    HW136923   2.340   1.079   6.657  0.2250  0.7417 -0.3371
12005SOL    HW236924   2.222   0.986   6.677  0.5941  0.5131  0.8413
12006SOL     OW36925   5.628   4.716   5.352 -0.1332  0.1087  0.1815
12006SOL    HW136926   5.691   4.724   5.424 -0.2288  1.0503  0.1733
12006SOL    HW236927   5.543   4.713   5.395 -0.0685 -1.8165  0.2271
12007SOL     OW36928   4.219   1.492   6.245  0.2857 -0.3218  0.4188
12007SOL    HW136929   4.137   1.488   6.196 -0.4113 -0.8982  1.6171
12007SOL    HW236930   4.263   1.409   6.225  0.4626 -0.1395  0.0176
12008SOL     OW36931   5.161   6.347   5.799  0.7299  1.0100  0.1034
12008SOL    HW136932   5.213   6.404   5.855  3.3615 -1.1801  0.0856
12008SOL    HW236933   5.163   6.262   5.842 -1.2735  0.3617 -0.9354
12009SOL     OW36934   5.733   6.630   3.457  0.4658 -0.0592 -0.1724
12009SOL    HW136935   5.666   6.629   3.388 -1.2686  1.6451  1.3756
12009SOL    HW236936   5.744   6.722   3.478  0.3664 -0.5458  2.3265
12010SOL     OW36937   7.694   7.373   4.485 -0.4453 -0.4216 -0.1558
12010SOL    HW136938   7.733   7.384   4.399  0.8441  0.1636  0.4695
12010SOL    HW236939   7.713   7.455   4.531  0.7080 -1.4638  1.3501
12011SOL     OW36940   5.041   5.849   1.224 -0.5728  0.7186 -0.6988
12011SOL    HW136941   4.967   5.844   1.164 -0.1230  1.2368 -1.3107
12011SOL    HW236942   5.106   5.902   1.178  0.1247  0.3958 -0.1157
12012SOL     OW36943   0.038   4.593   3.639  0.5907 -0.5126 -0.0425
12012SOL    HW136944   0.088   4.648   3.579  0.6782 -1.3613 -0.7855
12012SOL    HW236945  -0.053   4.624   3.630  0.5116 -0.9627 -1.0464
12013SOL     OW36946   3.300   3.686   2.729 -0.2300  0.2325 -0.2947
12013SOL    HW136947   3.352   3.652   2.802 -0.5134  0.7072  0.1406
12013SOL    HW236948   3.363   3.700   2.658  0.1416  0.2685  0.0403
12014SOL     OW36949   1.309   2.637   4.513  0.3472  0.8257 -0.4652
12014SOL    HW136950   1.248   2.591   4.455 -1.5048  1.9340  0.5173
12014SOL    HW236951   1.377   2.572   4.532 -1.1684 -0.8797 -0.6344
12015SOL     OW36952   5.112   6.705   7.037 -0.3590 -0.6829  0.6695
12015SOL    HW136953   5.061   6.748   7.107 -0.0976 -0.1338  0.5269
12015SOL    HW236954   5.091   6.755   6.958  0.5453 -0.3232  0.6423
12016SOL     OW36955   2.726   0.448   1.094  0.5117  0.1811 -0.6154
12016SOL    HW136956   2.792   0.445   1.164 -0.1376  2.0700  0.1381
12016SOL    HW236957   2.757   0.385   1.029  1.5063 -1.1362  1.0425
12017SOL     OW36958   7.060   6.455   0.524 -0.4389 -0.4715  0.5720
12017SOL    HW136959   7.100   6.400   0.591  1.9881  0.2555 -0.1610
12017SOL    HW236960   7.126   6.521   0.505 -1.9989  0.7631 -0.8585
12018SOL     OW36961   3.346   1.874   1.826  0.0751 -0.8047 -0.2311
12018SOL    HW136962   3.342   1.959   1.872 -0.7383 -0.3472 -1.1053
12018SOL    HW236963   3.254   1.852   1.809  0.3550 -0.8637 -1.7925
12019SOL     OW36964   2.596   0.130   7.004  0.3557  0.0251  0.1590
12019SOL    HW136965   2.640   0.119   7.088 -0.5799 -1.4351  0.4861
12019SOL    HW236966   2.598   0.043   6.964 -0.7327  0.3109 -0.5700
12020SOL     OW36967   7.657   7.477   1.870 -0.4315 -0.0622 -0.0904
12020SOL    HW136968   7.684   7.447   1.957  0.1559 -1.9735 -0.8860
12020SOL    HW236969   7.716   7.549   1.850  1.6133 -1.6591 -0.1739
12021SOL     OW36970   6.063   6.143   4.334  0.9007 -0.0691  0.5195
12021SOL    HW136971   6.084   6.223   4.285  0.9313  0.6867  1.7142
12021SOL    HW236972   5.987   6.167   4.388  0.8118 -0.8942  0.7791
12022SOL     OW36973   4.491   3.126   1.836  0.3594  0.0350 -0.2592
12022SOL    HW136974   4.475   3.185   1.910  0.0955 -0.9699  0.5002
12022SOL    HW236975   4.423   3.149   1.773  1.9523  2.4721 -1.2170
12023SOL     OW36976   7.015   5.026   5.518  0.4180 -0.3096 -0.1139
12023SOL    HW136977   7.027   4.959   5.586 -0.5849 -1.9859 -1.5085
12023SOL    HW236978   6.956   5.090   5.557  2.8583  0.8742  1.9420
12024SOL     OW36979   7.030   0.028   2.676  0.5878 -0.2990 -0.1857
12024SOL    HW136980   6.953  -0.005   2.724  0.8573 -1.8983 -0.7897
12024SOL    HW236981   6.996   0.054   2.591  0.3866  0.9840  0.2693
12025SOL     OW36982   7.010   1.321   5.188 -0.5469 -0.5577  0.9118
12025SOL    HW136983   7.026   1.411   5.161 -1.1402 -1.2604 -2.1813
12025SOL    HW236984   7.088   1.296   5.237 -1.8095  2.6125  5.1395
12026SOL     OW36985   6.587   7.378   2.169  0.3348 -0.0226 -0.2596
12026SOL    HW136986   6.503   7.422   2.152 -0.0310 -1.7149 -3.8961
12026SOL    HW236987   6.562   7.289   2.192  1.1687 -0.0352  0.6511
12027SOL     OW36988   1.178   4.558   6.157  0.0489  0.6692  0.5204
12027SOL    HW136989   1.107   4.558   6.093 -0.4086 -0.2900  1.0062
12027SOL    HW236990   1.187   4.650   6.183 -1.8057  0.6757  1.3040
12028SOL     OW36991   3.701   2.637   7.528  0.1657 -0.1406 -0.0872
12028SOL    HW136992   3.749   2.710   7.566 -0.5913  1.7164 -2.4881
12028SOL    HW236993   3.720   2.563   7.586  1.0966  1.8791  2.3432
12029SOL     OW36994   2.394   0.365   7.223 -0.3698  0.5606  0.2597
12029SOL    HW136995   2.416   0.307   7.296  3.8232  0.2136 -0.9856
12029SOL    HW236996   2.398   0.453   7.260  1.3344  0.3668  0.6365
12030SOL     OW36997   0.917   0.102   1.784 -0.3422 -0.3553 -0.6873
12030SOL    HW136998   0.868   0.118   1.703 -1.6794 -0.7419  0.0269
12030SOL    HW236999   0.966   0.184   1.798 -2.9630  1.2169  0.0632
12031SOL     OW37000   5.785   5.934   3.159 -0.4145  0.4913  0.0546
12031SOL    HW137001   5.817   5.912   3.072  0.4855 -0.0350  0.4987
12031SOL    HW237002   5.692   5.955   3.147 -0.3018  0.3943 -1.0158
12032SOL     OW37003   6.500   0.689   5.417 -0.0534 -0.4909 -0.1352
12032SOL    HW137004   6.422   0.721   5.464  1.2036  0.1369  1.6486
12032SOL    HW237005   6.550   0.768   5.398  0.2255 -0.9036 -1.1378
12033SOL     OW37006   4.652   1.584   6.052  0.2887  0.0705 -0.5363
12033SOL    HW137007   4.671   1.631   6.133 -0.8217 -0.5216  0.1026
12033SOL    HW237008   4.569   1.621   6.022  1.0396  0.7887 -1.8230
12034SOL     OW37009   0.289   3.394   3.881 -0.1494 -0.2271 -0.2171
12034SOL    HW137010   0.362   3.456   3.869 -1.1932  1.2358  0.7048
12034SOL    HW237011   0.255   3.381   3.793 -0.4228  1.1950 -0.3514
12035SOL     OW37012   2.652   2.643   3.739 -0.0032  0.6993  0.0375
12035SOL    HW137013   2.668   2.687   3.822  0.6274  1.1005 -0.2954
12035SOL    HW237014   2.556   2.632   3.736 -0.0252  0.6340  0.8307
12036SOL     OW37015   6.208   6.979   1.015  0.1404 -0.1949 -0.4838
12036SOL    HW137016   6.212   7.016   1.104 -1.5074 -0.1541 -0.4069
12036SOL    HW237017   6.277   7.027   0.967  0.5844  0.2772  0.5831
12037SOL     OW37018   2.010   4.588   6.542 -0.1223 -0.0670  0.2894
12037SOL    HW137019   1.935   4.567   6.486 -0.2226  1.0090 -0.0095
12037SOL    HW237020   2.041   4.673   6.509 -0.0006  0.4488  1.6685
12038SOL     OW37021   0.388   6.008   3.642 -0.0663  0.2671 -0.5016
12038SOL    HW137022   0.363   6.048   3.724 -2.4201  1.1177 -1.5398
12038SOL    HW237023   0.376   5.914   3.656  1.9233  0.1609  0.8126
12039SOL     OW37024   1.452   3.161   4.027 -0.2851  0.4027 -0.2033
12039SOL    HW137025   1.470   3.252   4.054  3.0879 -0.2900  0.3839
12039SOL    HW237026   1.480   3.157   3.935 -1.3665  0.1612 -0.5342
12040SOL     OW37027   1.215   5.951   7.138  0.3774  0.0475  0.7916
12040SOL    HW137028   1.212   6.043   7.111  1.9243 -0.0499  0.2014
12040SOL    HW237029   1.126   5.919   7.121  0.2794  0.9816 -0.7183
12041SOL     OW37030   0.775   5.258   6.283 -0.5360  0.1844 -0.0560
12041SOL    HW137031   0.729   5.243   6.201  0.6186 -1.0304 -0.5240
12041SOL    HW237032   0.849   5.314   6.259 -0.1592 -0.2256  0.1414
12042SOL     OW37033   6.768   6.636   3.639 -0.7015 -0.5536 -0.5687
12042SOL    HW137034   6.746   6.654   3.548 -0.5000 -0.1555 -0.5437
12042SOL    HW237035   6.761   6.541   3.648 -0.6916 -0.5961 -1.0062
12043SOL     OW37036   0.028   7.670   3.754  0.1641 -0.2227  0.0740
12043SOL    HW137037  -0.056   7.716   3.750 -0.1294 -0.6738  0.8689
12043SOL    HW237038   0.038   7.645   3.846  0.7593 -0.9355 -0.1721
12044SOL     OW37039   6.885   6.881   5.556  0.1527 -0.0098  0.1055
12044SOL    HW137040   6.833   6.868   5.636  0.4051 -0.0356  0.2663
12044SOL    HW237041   6.929   6.797   5.543 -2.5982 -1.3163 -2.0492
12045SOL     OW37042   1.731   7.645   1.187 -0.2832 -0.1207  0.2148
12045SOL    HW137043   1.790   7.657   1.262 -0.0611 -3.8892  0.8260
12045SOL    HW237044   1.786   7.604   1.120 -1.0891  0.8893 -1.0940
12046SOL     OW37045   1.111   1.180   0.441 -0.0070 -0.3922  0.8472
12046SOL    HW137046   1.108   1.084   0.440 -0.7176 -0.3782  1.2063
12046SOL    HW237047   1.026   1.207   0.406 -0.4591  0.0915  2.2327
12047SOL     OW37048   2.451   0.294   2.199  0.0251 -0.3195  0.2207
12047SOL    HW137049   2.474   0.373   2.248  1.2668 -0.1835 -0.5186
12047SOL    HW237050   2.371   0.262   2.240  0.9309 -0.1443  2.2188
12048SOL     OW37051   6.215   2.318   6.869  0.2652 -0.0406 -0.1968
12048SOL    HW137052   6.274   2.307   6.794  0.5541 -0.1052  0.0351
12048SOL    HW237053   6.206   2.230   6.906  1.5657  0.2463  0.9087
12049SOL     OW37054   1.874   6.072   1.489 -0.2073  1.3174  0.6657
12049SOL    HW137055   1.819   6.027   1.424 -0.4452  1.3180  0.8658
12049SOL    HW237056   1.818   6.082   1.565 -0.2181  2.1445  0.5520
12050SOL     OW37057   1.949   2.667   5.771 -0.3048  0.0987 -0.2821
12050SOL    HW137058   1.972   2.697   5.858  1.6882 -0.7927 -0.4539
12050SOL    HW237059   1.858   2.638   5.779 -0.2135  0.1830  1.4460
12051SOL     OW37060   4.555   5.124   1.597 -0.4376  0.6334 -0.0428
12051SOL    HW137061   4.497   5.192   1.563  0.3212  1.3871  0.1388
12051SOL    HW237062   4.531   5.045   1.548 -2.0220  0.7691  0.4607
12052SOL     OW37063   4.140   4.237   3.251  0.5342 -0.0157  0.1832
12052SOL    HW137064   4.051   4.251   3.283  0.5252  1.4883 -0.3778
12052SOL    HW237065   4.190   4.309   3.290  1.3727 -0.5232  0.0417
12053SOL     OW37066   6.013   1.715   4.513 -0.1158 -0.1121 -0.3143
12053SOL    HW137067   6.036   1.760   4.595 -0.4266 -0.7296  0.1174
12053SOL    HW237068   6.004   1.786   4.449  0.8101  0.3265  0.0134
12054SOL     OW37069   5.303   4.027   4.077 -0.2259  0.1208 -0.1112
12054SOL    HW137070   5.209   4.029   4.095 -0.1849  0.0692  0.1138
12054SOL    HW237071   5.342   4.074   4.151  0.0108 -0.7728  0.3378
12055SOL     OW37072   2.005   4.870   2.098  0.8993  0.1351  0.3014
12055SOL    HW137073   1.966   4.956   2.087  0.1007 -0.3280 -0.6180
12055SOL    HW237074   1.948   4.811   2.050  2.5045 -0.6327 -0.7430
12056SOL     OW37075   7.149   0.906   7.256  0.5755  0.4576  0.4534
12056SOL    HW137076   7.098   0.964   7.200 -0.2889 -0.4404  0.2851
12056SOL    HW237077   7.218   0.872   7.199  2.0389  2.4031  0.9160
12057SOL     OW37078   7.526   0.018   4.045  0.2201  0.5705 -0.1847
12057SOL    HW137079   7.477  -0.062   4.029  0.2003  0.8397 -1.5539
12057SOL    HW237080   7.470   0.069   4.104 -0.6438  0.3833 -0.8273
12058SOL     OW37081   2.255   4.390   7.576 -0.2878 -0.2448  0.2595
12058SOL    HW137082   2.288   4.374   7.488 -1.6678 -2.5081  0.0698
12058SOL    HW237083   2.282   4.313   7.626 -3.5518 -1.3429  0.5395
12059SOL     OW37084   0.662   0.254   3.036  0.3991 -0.4207  0.3463
12059SOL    HW137085   0.671   0.177   2.980  0.1998  0.0085 -0.2940
12059SOL    HW237086   0.568   0.275   3.031  0.2444 -0.8145  1.4416
12060SOL     OW37087   0.490   1.893   2.802  0.2799  0.1164  0.0767
12060SOL    HW137088   0.579   1.926   2.787  1.0238 -1.9302 -0.4069
12060SOL    HW237089   0.464   1.857   2.717 -1.4230  1.5295 -0.0468
12061SOL     OW37090   0.174   0.203   6.749 -0.2955 -0.8933  0.0493
12061SOL    HW137091   0.128   0.185   6.831  0.8538 -0.9934  0.6931
12061SOL    HW237092   0.261   0.166   6.762  1.4471  2.9374  0.5598
12062SOL     OW37093   3.302   0.479   5.489  0.0484 -0.4286 -0.0714
12062SOL    HW137094   3.349   0.414   5.541  0.4894  1.6748  2.3924
12062SOL    HW237095   3.347   0.562   5.507 -2.5007  1.1363 -0.2801
12063SOL     OW37096   6.540   4.322   1.563 -0.2966 -0.5144  0.0987
12063SOL    HW137097   6.481   4.343   1.491 -0.4191 -0.0528  0.3328
12063SOL    HW237098   6.589   4.245   1.532 -0.6847 -0.6114 -0.2810
12064SOL     OW37099   3.595   7.444   7.612  0.1954  0.3349  0.2871
12064SOL    HW137100   3.618   7.405   7.528  0.2808  0.2930  0.3295
12064SOL    HW237101   3.500   7.455   7.609  0.4646  3.5945 -1.2717
12065SOL     OW37102   2.260   1.836   2.622  0.1750 -0.0387 -0.3214
12065SOL    HW137103   2.304   1.894   2.559  1.4257  1.1413  1.5454
12065SOL    HW237104   2.213   1.895   2.681 -0.8085 -1.1051 -0.0002
12066SOL     OW37105   5.842   6.572   5.514 -0.2919 -0.1447  0.2300
12066SOL    HW137106   5.760   6.576   5.464 -0.2989 -0.6247  0.2025
12066SOL    HW237107   5.903   6.625   5.463 -0.1763 -0.9854 -0.5297
12067SOL     OW37108   0.198   1.576   2.688 -0.1471  0.2915  0.3073
12067SOL    HW137109   0.183   1.667   2.662  1.6384  0.2296 -1.1118
12067SOL    HW237110   0.130   1.526   2.643 -1.1209  0.8999  1.0781
12068SOL     OW37111   4.280   1.802   3.859 -0.7146  0.0132  0.5989
12068SOL    HW137112   4.199   1.839   3.892 -0.7112  1.2986 -0.7017
12068SOL    HW237113   4.336   1.792   3.936 -0.9779  2.1193  1.1170
12069SOL     OW37114   3.545   7.551   4.417  0.1663  0.3335 -0.3325
12069SOL    HW137115   3.530   7.578   4.507  0.8821 -1.3099  0.3191
12069SOL    HW237116   3.495   7.614   4.364 -0.5260  1.1255  1.2039
12070SOL     OW37117   7.572   5.017   2.825  0.2901  0.1202 -0.5146
12070SOL    HW137118   7.513   4.958   2.871 -0.1209 -0.0217 -1.1995
12070SOL    HW237119   7.516   5.063   2.763  0.7696  0.5508 -0.6396
12071SOL     OW37120   2.770   5.105   2.007  0.6042  0.1477  0.0757
12071SOL    HW137121   2.855   5.069   1.984 -0.9325 -1.5753 -3.6830
12071SOL    HW237122   2.715   5.029   2.025 -0.6176  1.1092  0.5908
12072SOL     OW37123   5.666   3.459   6.628 -0.1961  0.0075 -0.2025
12072SOL    HW137124   5.707   3.485   6.710  1.8078  0.8265 -1.3908
12072SOL    HW237125   5.657   3.540   6.578 -0.2891 -0.6159 -1.2461
12073SOL     OW37126   3.831   3.322   5.126 -0.2681  0.2695 -0.0307
12073SOL    HW137127   3.787   3.237   5.127 -0.1723  0.1348  3.5888
12073SOL    HW237128   3.909   3.308   5.072 -1.2318 -1.3328 -1.0917
12074SOL     OW37129   5.775   4.357   6.430  0.2521  0.1833  0.1270
12074SOL    HW137130   5.852   4.321   6.476  1.0356 -0.5282 -1.6650
12074SOL    HW237131   5.749   4.432   6.483  2.1203  0.3738  0.8565
12075SOL     OW37132   2.158   6.033   3.298 -0.1917  0.4564  0.5939
12075SOL    HW137133   2.218   6.049   3.226  1.9632 -1.5937  1.8133
12075SOL    HW237134   2.078   6.002   3.256  1.5679 -2.3654 -0.9765
12076SOL     OW37135   3.433   5.712   3.214  0.6259 -0.3379  0.0816
12076SOL    HW137136   3.405   5.624   3.190 -0.1401  0.3206 -1.6532
12076SOL    HW237137   3.457   5.753   3.131  1.3572  0.9686  0.8996
12077SOL     OW37138   4.995   1.158   4.449 -0.4760 -0.3745  0.4768
12077SOL    HW137139   4.973   1.229   4.388 -0.4421 -1.0575 -0.3433
12077SOL    HW237140   4.935   1.171   4.522  0.5779  1.4350  1.0946
12078SOL     OW37141   0.385   7.147   2.393 -0.5800  0.7090 -0.2087
12078SOL    HW137142   0.402   7.054   2.375 -1.2801  0.6490 -0.5825
12078SOL    HW237143   0.375   7.152   2.488  3.7142  1.1142  0.4215
12079SOL     OW37144   6.168   2.663   1.587  0.2899 -0.0513 -0.0119
12079SOL    HW137145   6.076   2.640   1.598  0.2136 -0.1458 -0.7836
12079SOL    HW237146   6.172   2.756   1.610  0.4213 -0.5431  2.1511
12080SOL     OW37147   6.162   3.618   4.667 -0.2985  0.1935 -0.0930
12080SOL    HW137148   6.183   3.581   4.581  0.6352 -0.5305  0.4226
12080SOL    HW237149   6.111   3.549   4.710 -1.9272  1.0834 -0.5349
12081SOL     OW37150   0.994   7.056   2.887  0.0123  0.5668 -0.3112
12081SOL    HW137151   1.057   7.124   2.865 -1.7523  1.9978 -1.1568
12081SOL    HW237152   0.944   7.042   2.806 -0.0476 -1.3415  0.0061
12082SOL     OW37153   1.967   2.291   5.349 -0.3808 -0.5958  0.2458
12082SOL    HW137154   1.955   2.312   5.256  0.9498  0.8088  0.3478
12082SOL    HW237155   2.038   2.226   5.349  0.3087  0.1406  0.3117
12083SOL     OW37156   4.590   5.931   2.201 -0.4162  0.2051 -0.4824
12083SOL    HW137157   4.570   5.944   2.294 -0.6853 -0.2741 -0.4715
12083SOL    HW237158   4.681   5.900   2.200 -1.1645 -2.2127 -0.1802
12084SOL     OW37159   0.104   1.884   0.361 -0.2484  0.3500 -0.2564
12084SOL    HW137160   0.137   1.877   0.451 -1.1165 -1.2690 -0.0128
12084SOL    HW237161   0.053   1.964   0.360 -0.4143  0.2742  0.7800
12085SOL     OW37162   3.328   7.386   5.072  0.1121  0.3669 -0.3908
12085SOL    HW137163   3.332   7.427   4.986 -0.5942 -1.0267 -1.1249
12085SOL    HW237164   3.398   7.427   5.122  2.7373 -1.0220 -2.6491
12086SOL     OW37165   2.348   0.375   7.708 -0.7393  0.0284  0.5291
12086SOL    HW137166   2.292   0.298   7.706 -0.1202 -0.4079 -1.5384
12086SOL    HW237167   2.293   0.443   7.747 -1.9336 -0.9510  0.6061
12087SOL     OW37168   2.404   7.532   1.957 -0.4713  0.1848  0.3457
12087SOL    HW137169   2.494   7.563   1.960  0.0729 -1.0006 -1.7035
12087SOL    HW237170   2.410   7.439   1.980 -1.4522  0.4951  1.9915
12088SOL     OW37171   5.494   1.489   4.808 -0.9941 -0.1380 -0.2090
12088SOL    HW137172   5.485   1.439   4.727 -0.4827  1.0805 -1.0649
12088SOL    HW237173   5.413   1.473   4.856 -0.8628 -1.7092 -0.4748
12089SOL     OW37174   4.571   6.976   4.164  0.2116 -0.0807 -0.1575
12089SOL    HW137175   4.589   6.942   4.251  0.2978 -0.2315 -0.2340
12089SOL    HW237176   4.622   6.921   4.105 -0.5473 -0.5499 -0.3845
12090SOL     OW37177   4.488   7.458   2.984 -0.0564  0.1513 -0.3943
12090SOL    HW137178   4.495   7.365   2.962 -1.1779 -0.0557  0.0483
12090SOL    HW237179   4.506   7.504   2.902  1.2501 -0.4164 -0.4462
12091SOL     OW37180   6.895   1.437   6.323  0.2111  0.4280 -0.5542
12091SOL    HW137181   6.934   1.524   6.308 -0.7978  0.9140 -0.4605
12091SOL    HW237182   6.829   1.452   6.391 -0.4854 -0.2549 -1.0612
12092SOL     OW37183   4.067   1.208   5.424 -1.1126 -0.2898  0.0086
12092SOL    HW137184   4.007   1.279   5.445 -0.4126  0.0963  0.7750
12092SOL    HW237185   4.108   1.185   5.507  0.9017  0.5130 -0.6895
12093SOL     OW37186   2.266   1.361   6.527  0.2583 -0.2741 -0.2548
12093SOL    HW137187   2.346   1.330   6.485  3.0035  1.2985  3.3559
12093SOL    HW237188   2.236   1.287   6.579  1.9246  0.3674  1.7169
12094SOL     OW37189   4.116   7.303   1.246  0.0910  0.1174 -0.0226
12094SOL    HW137190   4.088   7.382   1.200 -0.1961 -0.4296 -0.8129
12094SOL    HW237191   4.138   7.241   1.176 -1.0344 -0.9786  0.5501
12095SOL     OW37192   7.417   1.455   7.079 -0.2783 -0.0845 -0.3394
12095SOL    HW137193   7.497   1.505   7.065 -0.8858  1.6578  1.9454
12095SOL    HW237194   7.358   1.483   7.008  0.7323 -0.6591 -1.4496
12096SOL     OW37195   6.692   6.514   5.021 -0.0143 -0.1717  0.0227
12096SOL    HW137196   6.631   6.461   4.969 -1.2102  0.3553  0.8373
12096SOL    HW237197   6.677   6.485   5.111  0.6301  0.2841  0.2797
12097SOL     OW37198   3.391   0.705   5.569  0.3715  0.2386 -0.3194
12097SOL    HW137199   3.461   0.731   5.628  0.3089 -0.4756  0.0872
12097SOL    HW237200   3.313   0.748   5.604  0.5566  0.8391 -0.6309
12098SOL     OW37201   7.504   6.222   3.895  0.1666  0.3225 -0.4283
12098SOL    HW137202   7.527   6.302   3.941  2.5235  0.9505 -2.5165
12098SOL    HW237203   7.578   6.205   3.836 -0.6479 -2.8978 -0.7294
12099SOL     OW37204   2.085   7.422   6.073 -0.5972 -0.1737  0.6336
12099SOL    HW137205   2.124   7.439   6.159  1.8367 -1.3933 -0.1433
12099SOL    HW237206   2.030   7.498   6.056 -0.5309  0.4576  2.9337
12100SOL     OW37207   6.897   4.235   3.483 -0.9264  0.3404  0.4465
12100SOL    HW137208   6.924   4.150   3.449 -0.1233  0.6830  0.2150
12100SOL    HW237209   6.841   4.272   3.415 -1.6799 -0.2030  0.7570
12101SOL     OW37210   6.656   3.497   6.688  0.3229 -0.1128  0.4312
12101SOL    HW137211   6.656   3.474   6.781  0.6470 -1.2549  0.1675
12101SOL    HW237212   6.563   3.506   6.666  0.2884  2.0538  1.2782
12102SOL     OW37213   4.696   2.632   5.814 -0.6995 -0.1655  0.8385
12102SOL    HW137214   4.735   2.714   5.784 -0.2513 -0.7958 -0.3767
12102SOL    HW237215   4.758   2.564   5.787 -1.9619 -1.0713  0.1209
12103SOL     OW37216   0.571   5.585   3.978  0.9918 -0.1012  0.5355
12103SOL    HW137217   0.653   5.565   4.024  1.2680  0.3084  0.2307
12103SOL    HW237218   0.600   5.617   3.892  0.5245  0.4584  0.5836
12104SOL     OW37219   4.913   0.923   2.849  0.5344 -0.1909  0.2270
12104SOL    HW137220   4.960   0.874   2.781  0.2850  0.3450 -0.3382
12104SOL    HW237221   4.880   1.001   2.804  0.0396 -0.0181  0.8764
12105SOL     OW37222   5.409   0.293   0.852 -0.1428  0.2518  0.2156
12105SOL    HW137223   5.457   0.376   0.861 -1.1221  0.7702  0.8131
12105SOL    HW237224   5.318   0.316   0.873 -0.0027 -1.5217  3.3805
12106SOL     OW37225   6.590   2.287   0.762  0.3256 -0.6072  1.1713
12106SOL    HW137226   6.678   2.252   0.777  1.4230  1.5244  0.0812
12106SOL    HW237227   6.577   2.281   0.668 -0.1860  0.2096  1.1768
12107SOL     OW37228   0.056   1.411   2.422  0.0689  0.2588  0.3148
12107SOL    HW137229   0.003   1.338   2.455  0.0029  0.8874  1.6862
12107SOL    HW237230   0.109   1.373   2.352 -1.7185 -0.5492 -0.6854
12108SOL     OW37231   0.618   4.400   3.766  0.1806  0.2350 -0.2615
12108SOL    HW137232   0.549   4.465   3.761  0.8108  1.0003  0.6497
12108SOL    HW237233   0.574   4.316   3.750 -0.7061  0.8341 -1.0547
12109SOL     OW37234   1.187   1.657   6.632 -0.5361 -0.1292  0.2557
12109SOL    HW137235   1.155   1.655   6.542 -1.1602  1.6740  0.3844
12109SOL    HW237236   1.161   1.573   6.669 -1.3890 -0.3968 -0.8780
12110SOL     OW37237   3.152   6.148   4.146 -0.3445  0.0988  0.2247
12110SOL    HW137238   3.227   6.207   4.135 -0.4465 -0.0602 -1.5166
12110SOL    HW237239   3.078   6.206   4.160  0.1170  0.2506  2.3561
12111SOL     OW37240   7.606   7.405   0.586  0.1227 -0.1797 -0.3026
12111SOL    HW137241   7.643   7.420   0.673  0.5616 -0.0479 -0.5095
12111SOL    HW237242   7.660   7.458   0.528  0.4346 -1.0079 -0.7815
12112SOL     OW37243   7.714   5.220   5.963 -0.0600 -0.5719  0.0878
12112SOL    HW137244   7.640   5.233   5.904 -0.9956  0.3162  1.4066
12112SOL    HW237245   7.744   5.131   5.944 -0.1004 -0.2048 -1.9329
12113SOL     OW37246   1.981   6.523   2.125  0.3303 -0.1983 -0.1448
12113SOL    HW137247   1.923   6.448   2.111  0.2156 -0.0221 -0.6487
12113SOL    HW237248   2.001   6.553   2.037  0.5758  0.2123  0.0528
12114SOL     OW37249   1.295   6.833   4.661  0.5499 -0.7127 -0.0601
12114SOL    HW137250   1.230   6.785   4.611  0.2314  0.5274 -0.8689
12114SOL    HW237251   1.336   6.766   4.717 -0.8778 -1.6416 -0.0741
12115SOL     OW37252   4.181   7.109   6.231  0.2469 -0.1283  0.4132
12115SOL    HW137253   4.112   7.048   6.257 -1.0666  1.0034 -0.2671
12115SOL    HW237254   4.211   7.148   6.313 -0.9891  0.4380  0.6298
12116SOL     OW37255   1.445   4.605   7.271  0.1113  0.2021 -0.2799
12116SOL    HW137256   1.509   4.647   7.329  0.3536 -2.0282  1.1803
12116SOL    HW237257   1.397   4.545   7.328 -0.8246 -0.8204 -2.0693
12117SOL     OW37258   0.967   1.219   4.646 -0.8097 -0.4700  0.5862
12117SOL    HW137259   0.900   1.206   4.713 -1.6205  1.6507  0.2738
12117SOL    HW237260   0.986   1.313   4.650 -0.9716 -0.2516 -2.2072
12118SOL     OW37261   4.817   2.381   7.623  0.7108 -0.3235  0.4972
12118SOL    HW137262   4.889   2.440   7.646  1.7444 -1.2719 -0.2253
12118SOL    HW237263   4.788   2.412   7.537  0.6033 -0.2692  0.5529
12119SOL     OW37264   6.713   5.302   5.434 -0.5011 -0.0043 -0.0791
12119SOL    HW137265   6.689   5.370   5.371 -1.5517 -0.3170 -0.0350
12119SOL    HW237266   6.629   5.271   5.470  0.0728  0.2234  1.5423
12120SOL     OW37267   3.312   4.348   3.031  0.3426 -0.4882 -0.1991
12120SOL    HW137268   3.301   4.417   3.096  1.2119 -0.4370 -0.0864
12120SOL    HW237269   3.326   4.269   3.082  0.6974 -0.5047 -0.3174
12121SOL     OW37270   5.940   2.272   5.685  0.0614 -0.1297  0.3735
12121SOL    HW137271   6.017   2.301   5.635  0.3413 -1.8188 -0.2643
12121SOL    HW237272   5.977   2.227   5.761 -0.3645  1.8335  1.8178
12122SOL     OW37273   6.067   6.795   5.444  0.6409 -0.1773 -0.6568
12122SOL    HW137274   6.141   6.735   5.436  0.3807 -0.8483  1.4407
12122SOL    HW237275   6.053   6.828   5.355  2.1170 -1.6303 -1.4728
12123SOL     OW37276   6.691   6.346   1.295 -0.1785  0.2728  0.5089
12123SOL    HW137277   6.675   6.258   1.329 -1.4607  0.4350  0.3839
12123SOL    HW237278   6.638   6.403   1.351 -1.5057  0.6596 -1.0510
12124SOL     OW37279   0.982   3.466   2.210  0.5735  0.6448 -0.2056
12124SOL    HW137280   1.029   3.487   2.129 -0.5425  2.0234 -0.5366
12124SOL    HW237281   0.920   3.538   2.221 -0.6556 -0.5220  0.8297
12125SOL     OW37282   5.419   6.458   2.417  0.4195 -0.2141 -0.0017
12125SOL    HW137283   5.489   6.455   2.482 -0.2287 -0.0671  0.7308
12125SOL    HW237284   5.340   6.474   2.469 -0.2619 -1.1499 -0.7141
12126SOL     OW37285   3.687   4.036   0.595  0.6156  0.0246  0.1394
12126SOL    HW137286   3.753   3.984   0.549  0.3181 -0.4655  0.2567
12126SOL    HW237287   3.608   4.027   0.542  0.4396 -0.0248  0.4091
12127SOL     OW37288   0.218   0.902   4.467 -0.4627  0.3831 -0.3411
12127SOL    HW137289   0.146   0.944   4.515 -0.8309  0.5112 -0.9976
12127SOL    HW237290   0.282   0.972   4.455  0.4885 -0.0718  1.5562
12128SOL     OW37291   6.161   1.337   1.669 -0.0992 -0.1175  0.6461
12128SOL    HW137292   6.211   1.277   1.613  0.3743  0.5509  0.3404
12128SOL    HW237293   6.203   1.422   1.656 -1.6484  0.5736 -0.0299
12129SOL     OW37294   4.840   2.102   1.338  0.1454  0.1193  0.2777
12129SOL    HW137295   4.889   2.023   1.364 -2.1842 -0.8361  2.1714
12129SOL    HW237296   4.821   2.088   1.246  3.5291  0.6892 -0.6578
12130SOL     OW37297   2.869   6.286   3.072 -0.4626  0.1668 -0.0914
12130SOL    HW137298   2.888   6.281   2.978 -1.1709 -1.2969 -0.1653
12130SOL    HW237299   2.944   6.335   3.108  0.4704 -0.3608 -1.2321
12131SOL     OW37300   3.147   2.291   6.987  0.4808  0.4546  0.0757
12131SOL    HW137301   3.129   2.222   6.923 -0.5450  1.4770 -0.7819
12131SOL    HW237302   3.243   2.296   6.991  0.5700  0.3122 -1.3337
12132SOL     OW37303   4.763   0.472   7.334 -0.3368 -0.0328  0.2503
12132SOL    HW137304   4.815   0.423   7.269 -0.0568  0.7021 -0.0942
12132SOL    HW237305   4.710   0.405   7.377  0.4796 -0.7312  0.2127
12133SOL     OW37306   3.680   7.517   7.216  0.2998 -0.1037  0.1718
12133SOL    HW137307   3.718   7.583   7.158  1.9343 -0.8265  0.3681
12133SOL    HW237308   3.683   7.436   7.166 -0.9656 -0.2158  0.2268
12134SOL     OW37309   4.698   5.947   6.050 -0.1619 -0.5237 -0.0681
12134SOL    HW137310   4.681   5.931   6.143  1.1194 -1.3207  0.0425
12134SOL    HW237311   4.611   5.947   6.010 -0.9081  1.5487  1.3560
12135SOL     OW37312   3.453   4.498   1.241  0.9309  0.2849 -0.4874
12135SOL    HW137313   3.488   4.415   1.211 -0.2748 -0.8726  1.0778
12135SOL    HW237314   3.432   4.547   1.161 -0.1812 -1.7358 -1.4899
12136SOL     OW37315   3.459   6.513   7.173  0.3199 -0.4475 -0.2138
12136SOL    HW137316   3.378   6.466   7.155  0.2596  0.1673 -1.6983
12136SOL    HW237317   3.529   6.453   7.148  0.3379 -0.7943  0.6133
12137SOL     OW37318   6.762   7.132   1.683 -0.3250 -0.0752  0.2917
12137SOL    HW137319   6.817   7.199   1.642  0.0322  0.0364  0.9428
12137SOL    HW237320   6.753   7.064   1.617  0.2989  0.0700  0.0527
12138SOL     OW37321   1.396   5.387   7.144  0.1440 -0.3661  0.4559
12138SOL    HW137322   1.368   5.376   7.235  1.1969  0.0874  0.8438
12138SOL    HW237323   1.453   5.464   7.145  1.0016 -0.9695 -0.4050
12139SOL     OW37324   2.568   1.967   7.617  0.8651 -0.6789 -0.3084
12139SOL    HW137325   2.662   1.974   7.597  0.4297  2.4076 -1.7998
12139SOL    HW237326   2.554   2.032   7.686 -0.3999 -0.0711 -1.1134
12140SOL     OW37327   0.907   3.875   5.185  0.2642  0.6216 -0.4126
12140SOL    HW137328   0.939   3.806   5.127 -1.1049 -0.7386  0.3683
12140SOL    HW237329   0.965   3.872   5.261  1.0399  1.2798 -0.9667
12141SOL     OW37330   2.878   6.323   1.010 -0.6029 -0.3394  0.3721
12141SOL    HW137331   2.948   6.357   0.953 -1.0034  1.5283  0.9039
12141SOL    HW237332   2.806   6.303   0.949 -0.8138  1.0656  0.1228
12142SOL     OW37333   7.474   5.391   2.500 -0.5807  0.3855  0.2925
12142SOL    HW137334   7.480   5.406   2.405 -0.6335  0.5865  0.3189
12142SOL    HW237335   7.380   5.387   2.517 -0.5729 -1.1704  0.1126
12143SOL     OW37336   5.783   5.477   4.596  0.0776  0.2305 -0.6059
12143SOL    HW137337   5.742   5.422   4.529  0.6454  0.7389 -1.3916
12143SOL    HW237338   5.740   5.562   4.586 -1.1366 -0.1554  0.9181
12144SOL     OW37339   7.251   1.440   1.962 -0.1180 -0.4210 -0.4263
12144SOL    HW137340   7.321   1.386   2.000 -1.5170 -1.2635  1.0929
12144SOL    HW237341   7.195   1.377   1.917 -0.7661  0.0128 -0.2336
12145SOL     OW37342   5.147   3.936   5.934 -0.3798  0.1161  0.0595
12145SOL    HW137343   5.236   3.972   5.940  0.7414 -1.9227 -2.5001
12145SOL    HW237344   5.152   3.873   5.862 -3.6785 -0.8256  0.5309
12146SOL     OW37345   3.509   1.021   1.944 -0.3915 -0.3917  0.5645
12146SOL    HW137346   3.604   1.013   1.941 -0.2121  1.3570 -1.8923
12146SOL    HW237347   3.478   0.932   1.961  1.6296 -0.6948  3.3971
12147SOL     OW37348   5.020   0.864   2.405  0.2569 -0.3679  0.4580
12147SOL    HW137349   5.103   0.851   2.359  0.0652 -1.4694  0.3860
12147SOL    HW237350   5.042   0.855   2.498  0.4577  0.8011  0.5414
12148SOL     OW37351   2.440   6.787   6.785 -0.3130 -0.4072  0.0120
12148SOL    HW137352   2.487   6.785   6.702 -2.1428 -0.4470 -1.0821
12148SOL    HW237353   2.454   6.876   6.818  3.8281 -1.5049  1.8390
12149SOL     OW37354   7.434   6.260   0.718  0.2189 -0.0675  0.1692
12149SOL    HW137355   7.459   6.263   0.810 -1.2345  2.0253  0.5625
12149SOL    HW237356   7.505   6.303   0.672  0.1260  0.4969  0.5470
12150SOL     OW37357   5.597   5.958   5.215  0.8408 -0.0483  0.4236
12150SOL    HW137358   5.554   6.011   5.147  0.7878  0.9710  1.2388
12150SOL    HW237359   5.590   6.010   5.294 -1.6785 -2.4127  1.9346
12151SOL     OW37360   3.652   7.000   5.616 -0.3318  0.1472  0.3569
12151SOL    HW137361   3.606   6.925   5.578 -0.3919  0.3567  0.0175
12151SOL    HW237362   3.609   7.014   5.701 -0.0989 -0.4137  0.5697
12152SOL     OW37363   4.171   4.279   2.130  0.0910 -0.1609 -0.2974
12152SOL    HW137364   4.109   4.218   2.091 -1.4820  0.0549  1.7121
12152SOL    HW237365   4.117   4.351   2.162  1.4661  0.4753  0.7164
12153SOL     OW37366   1.176   2.886   4.477 -0.0051  0.1712  0.2687
12153SOL    HW137367   1.109   2.849   4.535 -0.1920 -0.6409 -0.4373
12153SOL    HW237368   1.246   2.822   4.477 -0.9198 -0.9475 -2.0568
12154SOL     OW37369   7.283   6.583   0.083  0.1690 -0.3861 -0.1534
12154SOL    HW137370   7.205   6.549   0.039 -0.2997 -0.1373  0.4690
12154SOL    HW237371   7.258   6.589   0.176  1.3372 -1.5201  0.2746
12155SOL     OW37372   6.851   6.340   2.812 -0.5878 -0.0585  0.4897
12155SOL    HW137373   6.840   6.311   2.902  2.0093 -0.8122  0.6202
12155SOL    HW237374   6.803   6.423   2.808 -0.2856  0.2836  2.7169
12156SOL     OW37375   0.918   2.522   6.406  0.3676  0.1317  0.6355
12156SOL    HW137376   0.997   2.544   6.357  0.6872 -2.4747 -0.2124
12156SOL    HW237377   0.852   2.506   6.338 -0.2495  0.0850  1.2410
12157SOL     OW37378   1.776   1.658   1.474  0.0718  0.0484 -0.3120
12157SOL    HW137379   1.845   1.636   1.412 -0.7112 -0.4118 -1.0509
12157SOL    HW237380   1.794   1.749   1.498 -0.8409  1.0632 -2.9952
12158SOL     OW37381   5.223   4.680   7.038  0.3477  0.4380 -0.1622
12158SOL    HW137382   5.187   4.716   6.958  2.2514  2.8570 -0.0681
12158SOL    HW237383   5.279   4.608   7.009 -1.8215 -1.1818 -0.5697
12159SOL     OW37384   3.161   6.786   1.582  0.4451 -0.1463  0.0910
12159SOL    HW137385   3.241   6.800   1.531  0.5261 -2.6811 -0.5769
12159SOL    HW237386   3.186   6.726   1.652 -0.5885  0.0936  0.6980
12160SOL     OW37387   2.526   1.915   2.164  0.3367  0.1543  0.2469
12160SOL    HW137388   2.597   1.882   2.219  1.6928  0.4383 -1.2549
12160SOL    HW237389   2.470   1.839   2.148  1.9281 -0.8185 -0.9339
12161SOL     OW37390   2.066   6.445   6.441  0.0096  0.0537  0.2119
12161SOL    HW137391   2.155   6.411   6.429 -0.5822 -1.0789 -1.5048
12161SOL    HW237392   2.060   6.466   6.534  1.6650 -1.0543  0.6159
12162SOL     OW37393   4.192   5.987   7.094 -0.2655 -0.4841 -0.1162
12162SOL    HW137394   4.190   5.943   7.178  0.2683  0.0776  0.1960
12162SOL    HW237395   4.284   6.003   7.077 -0.4042 -0.1576 -0.5778
12163SOL     OW37396   7.500   4.165   3.481 -0.0763 -0.0108  0.2353
12163SOL    HW137397   7.471   4.255   3.498  0.0490  0.1704 -0.4736
12163SOL    HW237398   7.595   4.172   3.475 -0.2124  0.6653 -4.2443
12164SOL     OW37399   7.557   7.087   5.435 -0.1225 -0.1310  0.1747
12164SOL    HW137400   7.527   7.059   5.349 -1.8202  0.0754  0.6651
12164SOL    HW237401   7.652   7.073   5.433 -0.3634 -1.9612 -1.0412
12165SOL     OW37402   2.360   6.573   7.676  0.6140 -0.3987  0.3274
12165SOL    HW137403   2.450   6.544   7.662  1.0256  0.8423  0.2834
12165SOL    HW237404   2.350   6.576   7.771  0.9804  0.4897  0.3471
12166SOL     OW37405   0.831   4.808   5.198 -0.1097 -0.1695 -0.1097
12166SOL    HW137406   0.797   4.795   5.109 -0.3048  1.3674 -0.2947
12166SOL    HW237407   0.848   4.903   5.203  1.6939 -0.5019  0.8539
12167SOL     OW37408   3.741   3.107   3.706 -0.3425  0.4004 -0.0257
12167SOL    HW137409   3.655   3.144   3.724 -0.3747  1.1840 -1.6068
12167SOL    HW237410   3.727   3.012   3.705 -0.8136  0.4390  1.4213
12168SOL     OW37411   1.319   2.332   6.200 -0.5404 -0.4081  0.7668
12168SOL    HW137412   1.300   2.250   6.246  1.5871 -1.2388  0.2405
12168SOL    HW237413   1.358   2.388   6.267 -3.3013  0.8059  1.5048
12169SOL     OW37414   4.577   4.977   4.865 -0.4120  0.1163  0.0938
12169SOL    HW137415   4.589   4.929   4.947 -0.0080  0.0710  0.0095
12169SOL    HW237416   4.542   5.062   4.892 -1.3894 -0.3206  0.2242
12170SOL     OW37417   3.265   7.085   7.079 -0.1133 -0.3441  0.0873
12170SOL    HW137418   3.194   7.047   7.028  0.6238 -2.4487  0.5422
12170SOL    HW237419   3.246   7.060   7.169  2.2713 -2.9254  0.0056
12171SOL     OW37420   5.328   1.440   0.373  0.1519 -0.1756 -0.2338
12171SOL    HW137421   5.278   1.449   0.293 -0.9561 -1.7935  0.2307
12171SOL    HW237422   5.387   1.366   0.357 -0.5909 -0.9867  0.6638
12172SOL     OW37423   2.406   0.583   7.407 -0.4770  0.3713 -0.2663
12172SOL    HW137424   2.337   0.524   7.437  0.4591  0.3356  2.0662
12172SOL    HW237425   2.362   0.667   7.395 -1.4544 -0.3192 -1.7687
12173SOL     OW37426   0.936   1.676   4.486 -0.0275  0.4715 -0.4094
12173SOL    HW137427   0.941   1.618   4.563 -0.8611 -1.2159 -1.5595
12173SOL    HW237428   1.020   1.666   4.443  1.0313  2.5776  0.9925
12174SOL     OW37429   2.824   5.860   2.204 -0.0148 -0.3784  0.0675
12174SOL    HW137430   2.781   5.910   2.134 -0.8009 -0.0738  0.7494
12174SOL    HW237431   2.913   5.893   2.206 -0.9140  2.2164  1.5697
12175SOL     OW37432   4.959   2.670   1.902  0.4209  0.4025 -0.1866
12175SOL    HW137433   4.894   2.601   1.915  3.3603 -2.3717  0.9854
12175SOL    HW237434   4.947   2.697   1.811 -2.0063 -0.2987 -0.1489
12176SOL     OW37435   1.609   6.428   5.215 -0.2557  0.0542 -0.0556
12176SOL    HW137436   1.542   6.450   5.150  1.0319  2.0122 -0.8114
12176SOL    HW237437   1.620   6.333   5.205 -2.7590 -0.3315  0.0160
12177SOL     OW37438   3.108   1.494   5.986 -0.6030  0.1923 -0.1340
12177SOL    HW137439   3.082   1.563   5.925 -0.2805  1.2108  0.8542
12177SOL    HW237440   3.051   1.505   6.061 -0.0862 -0.1769  0.3202
12178SOL     OW37441   3.308   4.098   3.146  0.3523  0.3287 -0.5035
12178SOL    HW137442   3.281   4.018   3.101  1.0154  0.2114 -0.7064
12178SOL    HW237443   3.273   4.089   3.234 -0.3203  0.2164 -0.7759
12179SOL     OW37444   5.118   2.893   2.256 -0.1659  0.8720 -0.3749
12179SOL    HW137445   5.065   2.969   2.231 -1.3986  1.0404  2.4084
12179SOL    HW237446   5.058   2.835   2.301  1.4674 -0.2106  0.5047
12180SOL     OW37447   0.236   1.413   5.778  0.0093  0.2242 -0.5488
12180SOL    HW137448   0.221   1.501   5.744 -0.4374  1.3367  2.2795
12180SOL    HW237449   0.158   1.393   5.830  0.1989 -1.7675 -0.9507
12181SOL     OW37450   4.208   0.871   0.461 -0.8811  0.0576  0.1705
12181SOL    HW137451   4.245   0.808   0.400 -1.4656  1.1860 -1.4149
12181SOL    HW237452   4.283   0.908   0.506 -0.2684  0.4547 -1.1302
12182SOL     OW37453   2.787   7.001   5.637 -0.4976 -0.0705 -0.2435
12182SOL    HW137454   2.778   6.968   5.548 -0.8052  0.7034 -0.5055
12182SOL    HW237455   2.877   7.031   5.644 -0.0880 -1.3425  0.1344
12183SOL     OW37456   6.109   5.973   6.813 -0.1533 -0.2550  0.5943
12183SOL    HW137457   6.128   6.065   6.797  0.1615 -0.3731  0.2571
12183SOL    HW237458   6.014   5.969   6.822 -0.1457  0.1365  0.8450
12184SOL     OW37459   0.101   5.483   1.262 -0.1334  0.4514  0.7765
12184SOL    HW137460   0.087   5.508   1.353 -0.8717 -1.2318  1.1603
12184SOL    HW237461   0.139   5.395   1.266 -1.5337 -0.2640 -0.5381
12185SOL     OW37462   0.571   7.247   7.359  0.2912  0.3843 -0.2100
12185SOL    HW137463   0.608   7.308   7.296  1.8340 -1.8913 -1.6497
12185SOL    HW237464   0.630   7.252   7.435  1.0998 -0.1359 -0.7925
12186SOL     OW37465   1.637   2.784   7.624 -0.5474 -0.3067 -0.7235
12186SOL    HW137466   1.694   2.803   7.550 -0.4745  0.4190 -0.4866
12186SOL    HW237467   1.600   2.869   7.649 -2.1440 -0.8241 -1.1963
12187SOL     OW37468   7.362   6.814   7.677  0.4133 -0.0459  0.4617
12187SOL    HW137469   7.455   6.811   7.701  0.5196 -2.6918  0.0640
12187SOL    HW237470   7.323   6.740   7.724 -0.9465 -0.6183 -1.4295
12188SOL     OW37471   1.685   1.628   3.169 -0.0948  0.6258  0.2654
12188SOL    HW137472   1.617   1.686   3.204  0.1992  0.7649  0.6173
12188SOL    HW237473   1.689   1.556   3.232 -0.6336  0.0944 -0.3062
12189SOL     OW37474   1.870   1.728   2.782 -0.0762 -0.5008 -0.1377
12189SOL    HW137475   1.898   1.743   2.873  1.0257  0.2904 -0.5836
12189SOL    HW237476   1.805   1.797   2.766  0.5354  0.0506 -0.2836
12190SOL     OW37477   5.145   1.536   2.708  0.0538  0.2407  0.5814
12190SOL    HW137478   5.072   1.561   2.766  0.4150 -0.2103  1.2431
12190SOL    HW237479   5.157   1.443   2.724 -0.8885 -0.2822 -1.4295
12191SOL     OW37480   7.661   3.241   4.927 -0.1181 -0.2393  0.0679
12191SOL    HW137481   7.608   3.321   4.928  2.7262  1.8103 -0.3344
12191SOL    HW237482   7.676   3.224   4.834  0.0897 -0.7100  0.1849
12192SOL     OW37483   7.277   3.101   1.525 -0.1880  0.4765  0.3102
12192SOL    HW137484   7.315   3.120   1.440  1.1280  1.7271  1.1388
12192SOL    HW237485   7.273   3.005   1.529  0.3998  0.3878 -0.8410
12193SOL     OW37486   2.949   1.356   2.571 -0.2967 -0.2891 -0.4095
12193SOL    HW137487   2.960   1.450   2.583  0.9126 -0.4284 -0.3801
12193SOL    HW237488   2.860   1.338   2.604 -1.0692  1.0462 -1.6680
12194SOL     OW37489   6.506   2.111   2.720 -0.2164  0.1527  0.5278
12194SOL    HW137490   6.423   2.082   2.756  0.1034 -0.6668  0.6180
12194SOL    HW237491   6.569   2.099   2.791 -0.2234  1.9153  0.8686
12195SOL     OW37492   1.801   2.623   3.651  0.0990  0.6469  0.7501
12195SOL    HW137493   1.753   2.689   3.700 -0.0966  1.1519 -0.0987
12195SOL    HW237494   1.876   2.670   3.614  1.0816 -0.0587  1.7803
12196SOL     OW37495   0.469   0.713   3.955  0.4067  0.2902 -0.2887
12196SOL    HW137496   0.376   0.698   3.968  0.3823  1.4792  1.1645
12196SOL    HW237497   0.512   0.643   4.005  0.2821  0.8983  0.6912
12197SOL     OW37498   7.381   1.181   0.460 -0.0030  0.2286  0.7765
12197SOL    HW137499   7.349   1.164   0.548  0.6219 -0.9372  0.7944
12197SOL    HW237500   7.471   1.213   0.473 -0.4515  1.6054  0.6315
12198SOL     OW37501   5.155   2.067   1.115  0.8854 -0.1515  0.3476
12198SOL    HW137502   5.144   1.996   1.052 -2.3333  1.4503 -1.1311
12198SOL    HW237503   5.074   2.118   1.109  0.5497  0.4683  5.4376
12199SOL     OW37504   5.112   5.909   4.207 -0.2880 -0.2121 -0.1916
12199SOL    HW137505   5.129   5.995   4.244 -0.4599 -0.3186  0.1337
12199SOL    HW237506   5.017   5.901   4.206 -0.2738 -1.1352  1.5024
12200SOL     OW37507   1.466   5.105   3.758  0.3131 -0.0799 -0.1459
12200SOL    HW137508   1.544   5.144   3.718 -0.2388  0.7533 -0.4330
12200SOL    HW237509   1.490   5.092   3.850  0.8685 -0.0560 -0.2825
12201SOL     OW37510   3.004   2.963   5.929  0.4995 -0.4480 -0.0389
12201SOL    HW137511   2.977   3.012   6.006 -0.1051 -1.5490  0.4777
12201SOL    HW237512   3.059   2.892   5.963 -0.5640 -1.5345 -0.4687
12202SOL     OW37513   5.624   1.564   4.076  0.2705  0.0056  0.8107
12202SOL    HW137514   5.697   1.504   4.062  0.9913  1.3649 -1.8478
12202SOL    HW237515   5.659   1.651   4.053 -2.2399  0.6479 -1.0113
12203SOL     OW37516   6.993   1.851   3.301 -0.5270 -0.8033 -0.1449
12203SOL    HW137517   7.050   1.928   3.310 -1.6557  0.1312 -0.6235
12203SOL    HW237518   6.905   1.885   3.318 -0.9709 -2.1634  0.3618
12204SOL     OW37519   6.739   0.840   2.303  0.2054  0.6074  0.5458
12204SOL    HW137520   6.780   0.852   2.217  0.4856 -0.7874  0.4592
12204SOL    HW237521   6.691   0.922   2.318 -1.1140  0.3349 -1.6416
12205SOL     OW37522   5.698   4.624   6.548  0.2671 -0.1253 -0.6344
12205SOL    HW137523   5.632   4.689   6.524 -0.3361 -0.5305 -0.1132
12205SOL    HW237524   5.767   4.675   6.592 -1.0543 -0.0356  1.4530
12206SOL     OW37525   7.311   5.178   4.384  0.4608 -0.2816  0.3969
12206SOL    HW137526   7.271   5.093   4.364  0.4403 -0.3655  0.7896
12206SOL    HW237527   7.250   5.220   4.445  1.5105 -0.9033  1.9402
12207SOL     OW37528   5.591   7.739   3.008  0.0085  0.5111 -0.1523
12207SOL    HW137529   5.678   7.742   3.048  0.3383  0.0602 -0.8216
12207SOL    HW237530   5.607   7.750   2.914 -0.6942  0.8695 -0.2379
12208SOL     OW37531   7.091   4.267   3.263  0.2673  0.0137 -0.6303
12208SOL    HW137532   7.008   4.310   3.240 -0.7336 -1.9913 -1.0229
12208SOL    HW237533   7.076   4.232   3.350  0.4408 -0.9219 -0.9622
12209SOL     OW37534   3.330   0.464   2.781  0.0091 -0.1545 -0.5237
12209SOL    HW137535   3.421   0.491   2.795 -0.4105  0.9738  0.1593
12209SOL    HW237536   3.300   0.519   2.709 -0.1081 -0.5775 -0.7968
12210SOL     OW37537   4.234   0.007   5.575  0.2972  0.2806 -0.6566
12210SOL    HW137538   4.165   0.067   5.602 -0.5201 -1.5141  1.5577
12210SOL    HW237539   4.315   0.048   5.604 -0.1133  0.9478 -0.4389
12211SOL     OW37540   5.956   4.240   7.109 -0.3449 -0.0294 -0.0009
12211SOL    HW137541   5.911   4.169   7.063  0.1006  0.4726 -1.2573
12211SOL    HW237542   5.916   4.320   7.075 -0.6959  0.3474  1.2416
12212SOL     OW37543   1.633   6.113   1.648  0.3421  0.4054  0.4479
12212SOL    HW137544   1.551   6.144   1.611  0.9370  0.9098 -0.4808
12212SOL    HW237545   1.620   6.019   1.659 -0.1709  0.3942 -0.1923
12213SOL     OW37546   3.559   0.925   5.877  0.5391 -0.1517 -0.6220
12213SOL    HW137547   3.498   0.931   5.951  0.2796  0.2440 -0.8709
12213SOL    HW237548   3.586   1.015   5.860  0.5605 -0.2357 -1.0469
12214SOL     OW37549   2.460   0.425   0.273 -0.3546 -0.0851 -0.6995
12214SOL    HW137550   2.447   0.331   0.261  0.6954 -0.4084  0.4634
12214SOL    HW237551   2.392   0.466   0.219 -2.7970 -1.5446  1.0401
12215SOL     OW37552   2.415   1.604   2.593  0.0692  0.1384 -0.0807
12215SOL    HW137553   2.506   1.632   2.602  0.1640  0.2772 -1.3442
12215SOL    HW237554   2.364   1.682   2.613  0.1481 -0.3214  2.1708
12216SOL     OW37555   7.037   5.198   0.591 -0.3443 -0.1819 -0.8254
12216SOL    HW137556   6.961   5.229   0.541 -0.6767 -1.4055 -1.1193
12216SOL    HW237557   7.008   5.115   0.629  1.2374 -1.2997 -1.9576
12217SOL     OW37558   4.746   4.614   7.380 -0.1794  0.0141  0.2819
12217SOL    HW137559   4.775   4.656   7.461  1.4852 -0.8855  0.1893
12217SOL    HW237560   4.671   4.562   7.407 -0.6500  0.9735  0.9117
12218SOL     OW37561   0.803   5.030   7.395 -0.1349 -0.4523  0.3815
12218SOL    HW137562   0.800   5.066   7.307 -1.3925 -3.1676 -0.7886
12218SOL    HW237563   0.877   4.969   7.394  0.9303  0.7059  1.8109
12219SOL     OW37564   4.643   5.761   0.076  0.3852  0.0759 -0.1561
12219SOL    HW137565   4.613   5.697   0.140 -1.1036 -0.1706 -1.0629
12219SOL    HW237566   4.738   5.763   0.087  0.2528 -0.6506  1.3896
12220SOL     OW37567   4.828   6.968   3.476  0.1869 -0.1101 -0.4787
12220SOL    HW137568   4.793   7.054   3.453  0.9790  0.5006  0.4953
12220SOL    HW237569   4.919   6.971   3.446 -0.0758 -1.0303 -1.4246
12221SOL     OW37570   5.030   5.234   1.551  0.5608 -0.3690  0.4373
12221SOL    HW137571   5.071   5.311   1.588  0.9801 -0.4962  0.2455
12221SOL    HW237572   4.994   5.187   1.626  1.1005 -0.4520  0.6428
12222SOL     OW37573   0.187   3.379   3.630  0.0447 -0.3121 -0.8679
12222SOL    HW137574   0.244   3.359   3.557 -0.8900  0.7680 -1.9334
12222SOL    HW237575   0.118   3.434   3.593  0.3569  1.5626  1.0958
12223SOL     OW37576   5.709   4.336   5.464 -0.0952 -0.1038  0.1164
12223SOL    HW137577   5.769   4.261   5.471 -0.1372 -0.3660 -1.6877
12223SOL    HW237578   5.741   4.398   5.529  1.3680 -0.7711  0.0951
12224SOL     OW37579   6.858   7.561   2.308 -0.5699 -0.2942 -0.4403
12224SOL    HW137580   6.793   7.534   2.373  2.1306 -4.8185  0.8612
12224SOL    HW237581   6.822   7.532   2.225 -0.9049 -1.4095  0.0700
12225SOL     OW37582   1.707   4.327   2.875 -0.4197  0.1252 -0.0177
12225SOL    HW137583   1.727   4.239   2.844 -0.1031  0.3438 -0.4485
12225SOL    HW237584   1.673   4.373   2.798 -1.0803  0.2314  0.3274
12226SOL     OW37585   5.341   6.985   0.617  0.2279  0.1153  0.1398
12226SOL    HW137586   5.323   7.050   0.550  0.2138  0.5740  0.5814
12226SOL    HW237587   5.356   6.904   0.569  0.3358  0.4642 -0.4189
12227SOL     OW37588   7.131   4.091   3.042  0.1527 -0.3917 -0.0090
12227SOL    HW137589   7.109   4.167   3.096  1.2724 -0.8091  1.0819
12227SOL    HW237590   7.064   4.026   3.062 -0.2358 -0.0575 -0.1974
12228SOL     OW37591   1.010   5.933   2.626  0.6621  0.5640  0.0092
12228SOL    HW137592   0.942   5.948   2.692  1.2022 -0.7804  0.9064
12228SOL    HW237593   1.072   5.874   2.668  1.8945  0.9852 -1.1364
12229SOL     OW37594   3.394   3.821   3.502  0.0859 -0.3935 -0.5718
12229SOL    HW137595   3.348   3.880   3.443 -1.2130  0.1933  0.9296
12229SOL    HW237596   3.416   3.876   3.578  0.4271 -1.4399  0.1057
12230SOL     OW37597   4.051   3.126   2.276  0.0541  0.2979 -0.0204
12230SOL    HW137598   3.964   3.147   2.240  0.2887  1.7201  0.1767
12230SOL    HW237599   4.050   3.166   2.363  1.1864  1.0097 -0.3266
12231SOL     OW37600   3.487   4.544   2.122 -0.3485  0.2398  0.0403
12231SOL    HW137601   3.580   4.549   2.101 -0.8006  1.9198 -1.8456
12231SOL    HW237602   3.482   4.475   2.188  2.0752 -0.7937 -0.7021
12232SOL     OW37603   2.080   3.883   2.802  0.5249 -0.5101 -0.6907
12232SOL    HW137604   2.012   3.821   2.828 -0.8161  1.0867 -0.1682
12232SOL    HW237605   2.053   3.966   2.843  2.0599  0.4944 -1.6095
12233SOL     OW37606   6.739   6.395   4.057  1.0053 -0.5533  0.4278
12233SOL    HW137607   6.661   6.448   4.044  0.7705 -0.3441  2.3849
12233SOL    HW237608   6.804   6.456   4.092  1.4226 -1.1117  0.6415
12234SOL     OW37609   2.200   5.378   1.591 -0.2314 -0.2382 -0.1063
12234SOL    HW137610   2.193   5.295   1.544  1.7547 -0.0249 -0.8598
12234SOL    HW237611   2.234   5.353   1.678 -1.7226 -0.3948  0.4657
12235SOL     OW37612   1.732   4.513   7.350 -0.0876  0.0970 -0.0832
12235SOL    HW137613   1.654   4.462   7.374  0.7038 -0.6071  1.0680
12235SOL    HW237614   1.720   4.597   7.394 -0.5322  0.2677 -0.5142
12236SOL     OW37615   3.145   1.874   4.930 -0.5200 -0.3580  0.3227
12236SOL    HW137616   3.068   1.819   4.915 -0.0911 -0.5392 -1.3675
12236SOL    HW237617   3.209   1.815   4.971 -0.7835 -0.5573  0.4531
12237SOL     OW37618   2.530   6.942   1.729 -0.1041  0.2174  0.3583
12237SOL    HW137619   2.578   7.025   1.728  0.0246  0.1545  0.8821
12237SOL    HW237620   2.567   6.894   1.803  0.5181 -0.7196 -0.5311
12238SOL     OW37621   4.428   6.775   0.388 -0.0093  0.2057 -0.5375
12238SOL    HW137622   4.440   6.694   0.439  0.8839  1.8083  1.9729
12238SOL    HW237623   4.335   6.796   0.399 -0.4693 -0.8968 -1.9779
12239SOL     OW37624   6.691   1.999   7.644 -0.1175 -0.0069  0.1506
12239SOL    HW137625   6.660   1.983   7.555 -1.1749 -1.5518  0.7381
12239SOL    HW237626   6.759   1.933   7.657  2.6516  2.4808 -0.6528
12240SOL     OW37627   7.399   2.385   6.336  0.1434 -0.3271  0.0907
12240SOL    HW137628   7.486   2.374   6.373  0.4128 -1.5771 -0.8548
12240SOL    HW237629   7.341   2.342   6.399  0.2582 -0.0015  0.4267
12241SOL     OW37630   0.200   1.023   6.407 -0.3732 -0.3980  0.0653
12241SOL    HW137631   0.182   0.934   6.440 -0.7384 -0.8049 -1.1644
12241SOL    HW237632   0.255   1.009   6.330  1.6185  0.6137  1.2411
12242SOL     OW37633   2.867   4.663   7.330 -0.7386 -0.1290  0.0685
12242SOL    HW137634   2.807   4.593   7.356 -1.0410  0.4018  0.8617
12242SOL    HW237635   2.811   4.726   7.284 -0.5239 -0.2732 -0.3919
12243SOL     OW37636   5.998   4.383   7.380  0.2881 -0.1347 -0.3537
12243SOL    HW137637   6.042   4.462   7.412  1.2478 -1.3270  1.4155
12243SOL    HW237638   5.922   4.417   7.333  2.2897  1.9630 -2.4112
12244SOL     OW37639   0.629   5.606   2.512  0.4655 -0.4110  0.1143
12244SOL    HW137640   0.677   5.595   2.594  0.1613  0.3472  0.3918
12244SOL    HW237641   0.538   5.615   2.538  0.3455 -0.3590 -0.3193
12245SOL     OW37642   3.820   4.727   2.992  0.3867  0.8786  0.0988
12245SOL    HW137643   3.914   4.742   2.979  0.9020 -1.7022  0.3943
12245SOL    HW237644   3.813   4.694   3.081 -0.9926  2.0726  0.4720
12246SOL     OW37645   5.145   1.508   4.447 -0.1474 -0.2534 -0.2825
12246SOL    HW137646   5.124   1.476   4.360  0.6996 -1.5580 -0.0362
12246SOL    HW237647   5.219   1.454   4.476  1.1119  1.6947  0.3285
12247SOL     OW37648   0.496   3.101   0.135 -0.0461 -0.1299  0.1599
12247SOL    HW137649   0.545   3.183   0.134  0.1444 -0.2181  1.0912
12247SOL    HW237650   0.460   3.093   0.047  2.2939 -0.4495 -0.8343
12248SOL     OW37651   2.448   2.014   7.392 -0.2225 -0.3439  0.2446
12248SOL    HW137652   2.501   1.985   7.466  1.2183 -0.4465 -0.7931
12248SOL    HW237653   2.505   2.072   7.342 -0.7676 -1.1228 -1.3694
12249SOL     OW37654   3.005   3.378   4.451 -0.3968  0.0299  0.8908
12249SOL    HW137655   2.955   3.394   4.371  0.4482  1.4837  0.6211
12249SOL    HW237656   3.066   3.452   4.457 -0.8477  0.2899  3.2174
12250SOL     OW37657   0.671   4.001   3.018 -0.2772 -0.2154 -0.1641
12250SOL    HW137658   0.712   3.939   3.079 -0.7944 -0.0679  0.3384
12250SOL    HW237659   0.667   4.083   3.067 -1.3174 -0.2640 -0.1461
12251SOL     OW37660   6.456   3.624   7.532 -0.3350 -0.0128  0.1024
12251SOL    HW137661   6.502   3.565   7.592  0.1239  0.4551  0.2187
12251SOL    HW237662   6.520   3.644   7.464 -0.3412  0.6786  0.2864
12252SOL     OW37663   3.692   5.084   4.486 -0.3432  0.5486 -0.1276
12252SOL    HW137664   3.759   5.119   4.545 -0.1672  0.7651 -0.4500
12252SOL    HW237665   3.741   5.046   4.413 -0.4400 -2.0806  1.0717
12253SOL     OW37666   5.515   2.617   5.602 -0.2333 -0.1434  0.1246
12253SOL    HW137667   5.571   2.540   5.597  0.5360  0.3107  1.2715
12253SOL    HW237668   5.534   2.667   5.523 -1.3048 -1.4706 -1.0193
12254SOL     OW37669   2.572   5.441   6.072  0.4574  0.2139 -0.1067
12254SOL    HW137670   2.539   5.501   6.005 -0.7153  0.4685  0.6615
12254SOL    HW237671   2.587   5.359   6.026 -1.6933 -0.0450 -0.4518
12255SOL     OW37672   4.910   6.699   4.842 -0.0126  0.6568 -0.6262
12255SOL    HW137673   4.924   6.713   4.748 -1.6996  1.1088 -0.8424
12255SOL    HW237674   4.852   6.770   4.869 -1.5452 -0.8128  0.1950
12256SOL     OW37675   5.952   6.881   5.927  0.1948 -0.0904  0.7454
12256SOL    HW137676   5.996   6.870   6.012  0.7648 -0.8842  0.3579
12256SOL    HW237677   5.970   6.800   5.880 -0.2106  0.2990 -0.1026
12257SOL     OW37678   6.484   5.572   5.083  0.1074 -0.1876 -0.0998
12257SOL    HW137679   6.524   5.536   5.003  0.3214 -0.9086  0.3270
12257SOL    HW237680   6.390   5.566   5.067  0.1475 -0.5077 -0.2222
12258SOL     OW37681   1.257   5.940   7.411  0.5351 -0.5571 -0.0121
12258SOL    HW137682   1.348   5.968   7.420 -0.0532  1.0792  1.2540
12258SOL    HW237683   1.243   5.934   7.316  1.7832 -0.2105 -0.2342
12259SOL     OW37684   6.573   7.628   5.902 -0.0281 -0.0614  0.2331
12259SOL    HW137685   6.487   7.616   5.862  0.1564  0.2152 -0.2593
12259SOL    HW237686   6.590   7.545   5.947  0.5603 -1.1447 -1.8429
12260SOL     OW37687   1.559   0.218   5.056  0.1483  0.0783 -0.3715
12260SOL    HW137688   1.526   0.172   5.133  0.8366 -0.9087 -0.6436
12260SOL    HW237689   1.490   0.208   4.991 -0.7573  1.5421  0.3193
12261SOL     OW37690   1.838   7.440   4.373  0.2694 -0.0192  0.1190
12261SOL    HW137691   1.881   7.440   4.458  0.7954 -1.6891 -0.1122
12261SOL    HW237692   1.886   7.375   4.322 -0.4047  0.5311 -1.2695
12262SOL     OW37693   3.231   2.039   0.932  0.1050  0.1903 -0.1012
12262SOL    HW137694   3.215   1.973   0.999  0.3393  0.5955  0.3607
12262SOL    HW237695   3.226   2.122   0.978 -1.0739  0.5561 -0.8461
12263SOL     OW37696   0.549   1.480   0.512  0.0996  0.4752  0.3801
12263SOL    HW137697   0.577   1.442   0.429 -0.0194  1.4049 -0.1045
12263SOL    HW237698   0.513   1.407   0.561 -0.5442  0.0365 -0.7032
12264SOL     OW37699   1.349   2.566   7.252 -0.4763  0.2898  0.0661
12264SOL    HW137700   1.352   2.474   7.278 -0.8991  0.4061  0.5512
12264SOL    HW237701   1.256   2.584   7.237 -0.4910  0.8435  0.7566
12265SOL     OW37702   5.147   1.151   3.693  0.0775 -0.3980  0.0622
12265SOL    HW137703   5.243   1.146   3.697  0.2446  0.7531 -1.5185
12265SOL    HW237704   5.123   1.103   3.613 -0.5536  0.2375 -0.1419
12266SOL     OW37705   6.110   5.347   7.339 -0.3681 -0.5512 -0.3016
12266SOL    HW137706   6.046   5.329   7.270 -1.4310 -0.3694  0.6256
12266SOL    HW237707   6.078   5.426   7.382 -0.1193 -1.0670  0.8678
12267SOL     OW37708   7.406   1.405   0.226 -0.3046 -0.2475 -0.2781
12267SOL    HW137709   7.450   1.446   0.151 -1.2634  1.0386 -0.1850
12267SOL    HW237710   7.400   1.312   0.202  0.3454 -0.0419 -1.3231
12268SOL     OW37711   7.512   2.797   4.789  0.1162  0.0964  0.4319
12268SOL    HW137712   7.437   2.838   4.746  0.1902 -0.4596 -0.2502
12268SOL    HW237713   7.504   2.822   4.881 -0.0600  1.3008  0.1049
12269SOL     OW37714   3.794   5.531   6.547 -0.3276 -0.0255  0.2113
12269SOL    HW137715   3.875   5.583   6.551 -1.2903  1.7059 -1.2052
12269SOL    HW237716   3.729   5.585   6.592 -1.4577  0.2796 -1.6772
12270SOL     OW37717   0.263   1.788   6.802  0.0272 -0.3211 -0.1361
12270SOL    HW137718   0.247   1.704   6.758  4.1399 -0.8505 -1.0249
12270SOL    HW237719   0.270   1.766   6.894  1.4642 -1.1140 -0.3999
12271SOL     OW37720   5.984   0.557   7.195  0.6845 -0.7554  0.8003
12271SOL    HW137721   6.051   0.609   7.238 -0.0303 -0.1859  1.2480
12271SOL    HW237722   5.996   0.469   7.231  0.7102 -0.4927  1.4605
12272SOL     OW37723   4.491   5.169   2.733 -0.0075  0.2534 -0.5455
12272SOL    HW137724   4.450   5.099   2.683  0.2080  0.7991 -1.5115
12272SOL    HW237725   4.565   5.197   2.679  0.8267  0.2023  0.5397
12273SOL     OW37726   6.679   0.393   3.213 -0.1652 -0.6301  0.3089
12273SOL    HW137727   6.674   0.431   3.125 -0.8856  0.0530  0.6330
12273SOL    HW237728   6.685   0.469   3.272 -2.0139 -0.9629  1.0004
12274SOL     OW37729   4.955   7.672   3.021  0.0251 -0.4862 -0.0380
12274SOL    HW137730   5.012   7.658   2.946 -0.9944 -1.1872 -0.7120
12274SOL    HW237731   4.901   7.593   3.025 -1.0639  0.2522  0.4154
12275SOL     OW37732   6.610   0.321   0.936 -0.3398  0.6400 -0.6117
12275SOL    HW137733   6.543   0.323   0.868  2.1308  2.3387 -3.1812
12275SOL    HW237734   6.563   0.293   1.015 -3.4170 -1.1201 -2.8750
12276SOL     OW37735   6.203   4.199   6.156  0.2250  0.1784  0.1463
12276SOL    HW137736   6.227   4.247   6.077 -0.1702  0.7543  0.3706
12276SOL    HW237737   6.234   4.254   6.228 -0.2238  0.1033  0.4039
12277SOL     OW37738   4.887   1.513   0.746 -0.4172  0.1296 -0.4417
12277SOL    HW137739   4.974   1.540   0.775 -0.5204 -0.4810  0.4611
12277SOL    HW237740   4.870   1.568   0.669  1.3438 -0.7370 -1.5238
12278SOL     OW37741   5.933   2.744   5.905 -0.4313  0.2707  0.2075
12278SOL    HW137742   5.966   2.712   5.820 -1.3071  0.7203 -0.3174
12278SOL    HW237743   5.838   2.737   5.898 -0.7549  3.4193 -0.1553
12279SOL     OW37744   4.834   4.113   1.863  0.3734 -0.0365  0.3654
12279SOL    HW137745   4.740   4.104   1.877  0.5301 -0.9805  0.8504
12279SOL    HW237746   4.868   4.141   1.948  0.9077 -2.6812  1.1011
12280SOL     OW37747   0.501   0.503   7.511  0.3011 -0.1745 -0.5748
12280SOL    HW137748   0.566   0.517   7.580 -1.9819  0.2559  1.5959
12280SOL    HW237749   0.516   0.412   7.483  2.0810  0.0467 -0.4735
12281SOL     OW37750   0.877   5.375   0.827 -0.0913  0.3029  0.0449
12281SOL    HW137751   0.901   5.437   0.897  1.8482 -2.5650  2.1464
12281SOL    HW237752   0.796   5.334   0.858  0.5546 -0.6829  0.4827
12282SOL     OW37753   2.871   2.866   2.383  0.1779 -0.0784 -0.5169
12282SOL    HW137754   2.948   2.910   2.418  0.7273  1.1445 -3.0604
12282SOL    HW237755   2.800   2.930   2.393 -0.2844 -0.7202  0.6363
12283SOL     OW37756   1.517   0.496   3.705  0.1188 -0.2524 -0.3462
12283SOL    HW137757   1.555   0.552   3.773  1.7977 -0.9326 -0.6676
12283SOL    HW237758   1.452   0.444   3.752  2.4696 -2.0004  1.2743
12284SOL     OW37759   1.604   5.036   1.023  0.2653  0.4906  0.4467
12284SOL    HW137760   1.682   4.982   1.035 -0.9912 -1.4509  0.4502
12284SOL    HW237761   1.531   4.976   1.039 -1.2460  2.6131  2.0913
12285SOL     OW37762   6.297   6.016   0.973  0.0752  0.2762 -1.2276
12285SOL    HW137763   6.373   6.073   0.965  1.0033 -0.8500 -0.6577
12285SOL    HW237764   6.228   6.073   1.007  1.0957  0.9863 -0.2898
12286SOL     OW37765   2.986   1.061   3.362  0.5499  0.1699 -0.2924
12286SOL    HW137766   2.988   1.147   3.318 -2.3553 -0.0702 -1.1489
12286SOL    HW237767   2.999   0.998   3.292  1.7671 -0.1349  0.1915
12287SOL     OW37768   0.814   4.538   1.908 -0.3509 -0.0400 -0.5113
12287SOL    HW137769   0.908   4.530   1.894 -0.2386 -0.1187  0.2386
12287SOL    HW237770   0.781   4.576   1.827  0.4375  0.7175 -0.4958
12288SOL     OW37771   6.739   3.754   5.646  0.0111 -0.1202 -0.3164
12288SOL    HW137772   6.737   3.701   5.726 -0.0840 -1.6725 -1.3052
12288SOL    HW237773   6.702   3.838   5.672  0.3738 -0.4466  1.3669
12289SOL     OW37774   7.244   3.928   6.309 -0.7342  0.5267 -0.0280
12289SOL    HW137775   7.278   3.888   6.229  1.2090 -0.0946  1.0364
12289SOL    HW237776   7.319   3.973   6.347 -1.3554  0.0651  1.8850
12290SOL     OW37777   1.159   0.604   7.494  0.1609  0.4082  0.1747
12290SOL    HW137778   1.209   0.638   7.420  1.7447  0.5423  1.2590
12290SOL    HW237779   1.183   0.511   7.497 -0.7876  0.1398 -0.1436
12291SOL     OW37780   2.202   5.298   6.324 -0.3107  0.0995 -0.8527
12291SOL    HW137781   2.129   5.359   6.331 -1.2651 -0.9962 -1.0514
12291SOL    HW237782   2.278   5.354   6.309 -1.1438  1.2447 -0.9401
12292SOL     OW37783   7.719   3.434   5.427  0.2404  0.6750  0.0414
12292SOL    HW137784   7.759   3.423   5.341 -0.3335  0.8956 -0.2534
12292SOL    HW237785   7.625   3.434   5.411  0.1194  0.3383  0.7144
12293SOL     OW37786   4.697   0.816   3.226 -0.3103 -0.3978  0.0112
12293SOL    HW137787   4.734   0.899   3.256 -1.9809  0.7509 -0.9586
12293SOL    HW237788   4.648   0.783   3.302  0.4945 -0.6114  0.4510
12294SOL     OW37789   0.248   1.083   3.400  0.6181  0.4402  0.3091
12294SOL    HW137790   0.162   1.041   3.411  0.6067  0.9298  2.3531
12294SOL    HW237791   0.231   1.176   3.412  1.0562  0.8580 -1.8217
12295SOL     OW37792   2.837   6.768   0.683 -0.6142  0.3018  0.0894
12295SOL    HW137793   2.788   6.850   0.682 -1.0775  0.0398  0.8083
12295SOL    HW237794   2.827   6.733   0.594 -0.3130  1.0719 -0.2588
12296SOL     OW37795   4.914   5.255   7.178  0.2557 -0.1411 -0.4863
12296SOL    HW137796   4.994   5.212   7.147  0.0205 -0.1407 -1.1113
12296SOL    HW237797   4.890   5.207   7.257  0.7979 -0.2250 -0.3666
12297SOL     OW37798   7.743   1.076   4.035  0.0048  0.0640 -0.3857
12297SOL    HW137799   7.685   1.000   4.037  0.2208 -0.0998 -0.3034
12297SOL    HW237800   7.756   1.099   4.127  0.4643 -0.2053 -0.3769
12298SOL     OW37801   5.165   5.350   5.386  0.1024  0.2970 -0.2543
12298SOL    HW137802   5.150   5.263   5.349  2.3176 -0.5734  0.7242
12298SOL    HW237803   5.196   5.333   5.475  2.5152  1.9566 -0.6804
12299SOL     OW37804   3.181   4.410   7.503 -0.1047  0.1571  0.2066
12299SOL    HW137805   3.114   4.356   7.545  1.6954 -0.9190  1.8519
12299SOL    HW237806   3.155   4.413   7.411 -2.4614 -0.0923  0.7855
12300SOL     OW37807   2.999   6.612   2.445 -0.0486  0.1398 -0.1408
12300SOL    HW137808   2.915   6.621   2.490 -0.4706  0.1846 -0.9312
12300SOL    HW237809   3.052   6.559   2.504  0.0964  1.8564  1.3601
12301SOL     OW37810   2.615   2.706   0.848 -0.8334 -0.1998 -0.1957
12301SOL    HW137811   2.638   2.616   0.823  0.8921  0.1906 -0.1565
12301SOL    HW237812   2.631   2.709   0.943 -0.0223  0.3651 -0.3374
12302SOL     OW37813   0.581   7.470   3.640 -0.4644  0.1351 -0.1131
12302SOL    HW137814   0.554   7.389   3.685 -1.2106 -0.1067 -0.9592
12302SOL    HW237815   0.510   7.532   3.658 -0.1437  0.4424  0.1014
12303SOL     OW37816   1.731   2.426   7.380 -0.0576 -0.3298 -0.2671
12303SOL    HW137817   1.726   2.360   7.310  2.1219 -0.2589 -0.5851
12303SOL    HW237818   1.708   2.508   7.337  0.3623 -0.4237 -0.6832
12304SOL     OW37819   6.226   4.357   7.168 -0.5711 -0.4414 -0.4113
12304SOL    HW137820   6.205   4.441   7.127  0.4741  0.3041  0.5209
12304SOL    HW237821   6.150   4.338   7.223 -0.3720  0.4252  0.1776
12305SOL     OW37822   5.496   5.193   6.256  0.0352  0.3215  0.1512
12305SOL    HW137823   5.421   5.196   6.316 -0.9112 -1.8250 -0.8359
12305SOL    HW237824   5.563   5.144   6.303 -0.9283 -1.9104 -0.6813
12306SOL     OW37825   7.459   2.612   2.914 -0.2763  0.1815  0.1229
12306SOL    HW137826   7.554   2.627   2.912 -0.4052  1.2372  0.9255
12306SOL    HW237827   7.448   2.523   2.879  0.9348  0.3431 -0.7199
12307SOL     OW37828   5.604   0.149   0.121  0.5762  0.0169 -0.1975
12307SOL    HW137829   5.611   0.155   0.217  0.4211  0.8095 -0.2324
12307SOL    HW237830   5.670   0.084   0.097  2.3528  1.5786  0.2129
12308SOL     OW37831   2.634   2.215   7.294 -0.0641  0.2789 -0.3629
12308SOL    HW137832   2.727   2.216   7.273  0.1129 -0.3923  0.3305
12308SOL    HW237833   2.630   2.239   7.387 -0.5286 -0.1862 -0.2549
12309SOL     OW37834   4.728   1.735   7.540  0.1729  0.0866 -0.5113
12309SOL    HW137835   4.794   1.804   7.553 -0.1595  0.6280 -1.5900
12309SOL    HW237836   4.648   1.771   7.579 -0.1814  0.6391 -1.6978
12310SOL     OW37837   6.662   1.930   0.579  0.5417 -0.5147 -0.2349
12310SOL    HW137838   6.673   1.941   0.673 -0.1398 -0.3207 -0.1735
12310SOL    HW237839   6.591   1.990   0.556  2.2117  1.1871 -1.2682
12311SOL     OW37840   3.659   7.131   0.266  0.1358 -0.3053 -0.5504
12311SOL    HW137841   3.588   7.195   0.274  0.3192 -0.3365  3.1734
12311SOL    HW237842   3.713   7.164   0.195 -2.2605  1.0782 -1.8462
12312SOL     OW37843   1.151   0.913   1.519  0.9348  0.2105  0.3214
12312SOL    HW137844   1.188   1.001   1.523 -1.0955  1.0952  1.1850
12312SOL    HW237845   1.176   0.880   1.433  0.0583  2.4670 -0.8908
12313SOL     OW37846   6.379   6.692   7.403  0.2046  0.0249 -0.2943
12313SOL    HW137847   6.333   6.655   7.478  1.5371 -1.9258 -0.3739
12313SOL    HW237848   6.344   6.644   7.328  0.9971 -0.1166 -0.5764
12314SOL     OW37849   0.715   1.291   3.048 -0.2957 -0.1673  0.3324
12314SOL    HW137850   0.659   1.312   2.973 -0.0306  0.1223  0.2113
12314SOL    HW237851   0.729   1.374   3.092 -0.8707 -0.4225  1.0090
12315SOL     OW37852   7.080   0.714   2.922  0.1739  0.0764  0.2707
12315SOL    HW137853   7.087   0.808   2.936  1.2584 -0.1121  1.2281
12315SOL    HW237854   7.002   0.688   2.970 -0.0020  0.4587  0.1903
12316SOL     OW37855   2.089   6.439   7.419  0.6099  0.0086 -0.1845
12316SOL    HW137856   2.152   6.394   7.476  2.1308  0.8110 -1.1757
12316SOL    HW237857   2.100   6.398   7.334  0.0757  0.4305 -0.4578
12317SOL     OW37858   3.212   1.644   2.709 -0.2992  0.3936 -0.8211
12317SOL    HW137859   3.275   1.606   2.771 -1.2007 -1.1116 -0.7765
12317SOL    HW237860   3.243   1.617   2.623 -0.2078  0.7049 -0.8883
12318SOL     OW37861   4.824   4.077   3.768  0.4533 -0.5086  0.2472
12318SOL    HW137862   4.839   4.079   3.674  0.7905 -1.3010  0.2807
12318SOL    HW237863   4.762   4.149   3.784  1.9868  0.9907 -0.2786
12319SOL     OW37864   2.048   6.263   3.845  0.0052  0.2233  0.2805
12319SOL    HW137865   2.103   6.205   3.791  0.6849  0.4491  0.7160
12319SOL    HW237866   2.078   6.351   3.824 -2.0518  0.5764 -1.5219
12320SOL     OW37867   1.581   2.517   7.581 -1.3874  0.1758 -0.0360
12320SOL    HW137868   1.634   2.472   7.516 -1.6197  1.0316 -0.8303
12320SOL    HW237869   1.620   2.603   7.589 -0.6722 -0.2758  1.8087
12321SOL     OW37870   1.702   4.137   4.745  0.2574 -0.8273 -0.1186
12321SOL    HW137871   1.690   4.063   4.685  0.9168 -0.6245 -0.5116
12321SOL    HW237872   1.614   4.174   4.755 -0.2373 -2.1763  0.7787
12322SOL     OW37873   6.080   6.970   3.828  0.1927 -0.3585 -0.0373
12322SOL    HW137874   6.097   6.922   3.746  0.3935 -1.1070  0.4309
12322SOL    HW237875   6.011   7.032   3.805  2.2400  1.4971 -1.5102
12323SOL     OW37876   6.994   5.161   6.708  0.8953 -0.1992  0.6213
12323SOL    HW137877   7.037   5.245   6.688 -0.1532  0.0686 -0.6490
12323SOL    HW237878   6.920   5.158   6.648 -1.4254 -0.2243  3.2924
12324SOL     OW37879   0.292   2.352   5.036  0.0113  0.0719 -0.1352
12324SOL    HW137880   0.321   2.434   5.076 -0.6335  0.8603 -1.2425
12324SOL    HW237881   0.216   2.376   4.983 -1.5323 -1.6023  1.1937
12325SOL     OW37882   7.416   1.758   4.282 -0.1775  0.2401 -0.2402
12325SOL    HW137883   7.466   1.835   4.253 -1.1852  0.8293 -0.4943
12325SOL    HW237884   7.355   1.793   4.348 -2.2723  0.1762 -2.0079
12326SOL     OW37885   2.886   5.360   4.461 -0.1630  0.4094  0.3284
12326SOL    HW137886   2.924   5.446   4.445 -0.1600  0.9656  2.8244
12326SOL    HW237887   2.929   5.329   4.541 -0.9488 -1.4389  0.0914
12327SOL     OW37888   4.264   3.346   6.109  0.1808  0.0540 -0.6603
12327SOL    HW137889   4.290   3.438   6.096  1.9848 -0.5736 -1.9145
12327SOL    HW237890   4.347   3.298   6.109 -0.6862 -1.5332  0.6252
12328SOL     OW37891   3.894   6.843   5.175 -0.2168 -0.0140 -0.2579
12328SOL    HW137892   3.957   6.771   5.179  0.2646  0.3690 -0.7971
12328SOL    HW237893   3.849   6.841   5.260  2.2465  1.2698  1.2057
12329SOL     OW37894   1.160   2.794   2.494 -0.2143 -0.6954 -0.1344
12329SOL    HW137895   1.208   2.871   2.461 -0.7035  0.5655  1.9352
12329SOL    HW237896   1.227   2.726   2.501  0.1484 -0.6585 -2.4299
12330SOL     OW37897   1.207   0.352   0.652  0.2434 -0.9475 -0.1128
12330SOL    HW137898   1.288   0.366   0.700  0.1617 -1.4666  0.1706
12330SOL    HW237899   1.211   0.262   0.622 -0.6837 -1.2939  0.7595
12331SOL     OW37900   2.590   4.686   4.380  0.2094  0.1541  0.1425
12331SOL    HW137901   2.549   4.698   4.466  0.7366  0.5324  0.3396
12331SOL    HW237902   2.642   4.606   4.390 -0.4631 -0.3244 -0.1073
12332SOL     OW37903   2.799   7.183   6.673 -0.1062  0.1426 -0.2283
12332SOL    HW137904   2.891   7.173   6.648 -0.4168 -0.3232 -1.2380
12332SOL    HW237905   2.750   7.149   6.598 -1.1061 -2.4674  1.4559
12333SOL     OW37906   3.928   3.445   4.321  0.6310  0.1523 -0.6987
12333SOL    HW137907   3.957   3.355   4.334 -1.7945 -0.7141 -0.7902
12333SOL    HW237908   3.882   3.443   4.237  0.9333  1.5939 -0.9148
12334SOL     OW37909   6.797   6.702   4.858 -0.1215  0.0406  0.1391
12334SOL    HW137910   6.856   6.753   4.914  0.1921  0.4819 -0.5732
12334SOL    HW237911   6.776   6.625   4.909  0.3732  0.3090  0.7589
12335SOL     OW37912   2.324   3.108   2.521 -0.0064  0.0758  0.2648
12335SOL    HW137913   2.380   3.172   2.565  0.9289  0.4497 -1.3802
12335SOL    HW237914   2.240   3.154   2.510  0.4221  0.7638 -0.2263
12336SOL     OW37915   1.786   2.775   2.717  0.1856 -0.3581  0.1114
12336SOL    HW137916   1.778   2.706   2.782  0.8049 -0.6899 -0.1519
12336SOL    HW237917   1.698   2.788   2.684 -0.5246  1.1246  2.3228
12337SOL     OW37918   5.129   0.895   4.823 -0.3474  0.5557 -0.2980
12337SOL    HW137919   5.208   0.854   4.859 -2.7390 -1.4171  3.3028
12337SOL    HW237920   5.131   0.984   4.859 -0.4750  0.0250  1.0830
12338SOL     OW37921   6.219   4.143   0.564 -0.5470  0.1369  0.3086
12338SOL    HW137922   6.272   4.105   0.494  0.5603 -0.1922  1.2783
12338SOL    HW237923   6.265   4.224   0.587 -0.5165 -0.0886  1.0760
12339SOL     OW37924   6.628   4.028   6.922 -0.4715  0.1674 -0.0604
12339SOL    HW137925   6.650   4.059   7.009 -2.4765  0.9383  0.2349
12339SOL    HW237926   6.532   4.025   6.921 -0.4748 -1.1254 -1.7931
12340SOL     OW37927   5.413   2.925   4.261  0.2501  0.3026 -0.8505
12340SOL    HW137928   5.482   2.987   4.236 -0.4713  1.1967 -0.7105
12340SOL    HW237929   5.356   2.975   4.320 -0.3373 -0.5116 -0.7045
12341SOL     OW37930   4.509   0.143   3.020 -0.0283 -0.1062 -0.5648
12341SOL    HW137931   4.586   0.134   3.077 -0.5028  0.9175  0.2639
12341SOL    HW237932   4.482   0.234   3.030 -1.4950 -0.5087 -0.6766
12342SOL     OW37933   5.263   0.618   7.679  0.1525  0.2155 -0.0676
12342SOL    HW137934   5.233   0.695   7.631  2.2309 -0.3664 -2.5404
12342SOL    HW237935   5.333   0.651   7.736 -0.7973  0.5489  0.9321
12343SOL     OW37936   5.116   1.217   7.328 -0.3354  0.3395 -0.7790
12343SOL    HW137937   5.106   1.252   7.417  4.4553 -1.3215  0.7273
12343SOL    HW237938   5.168   1.283   7.282  0.6863 -0.5746 -0.9730
12344SOL     OW37939   0.353   0.604   5.547 -0.2026  0.3512  0.5210
12344SOL    HW137940   0.372   0.565   5.462 -0.3230  1.1534  0.1156
12344SOL    HW237941   0.262   0.633   5.541 -0.1504  0.5929  0.8583
12345SOL     OW37942   1.418   5.638   0.913  0.3872  0.4491  0.0229
12345SOL    HW137943   1.454   5.726   0.914  1.0027  0.2234  2.4075
12345SOL    HW237944   1.376   5.627   0.998  0.5637 -1.6629 -0.0932
12346SOL     OW37945   2.367   1.962   2.398  0.8571  0.3252  0.4713
12346SOL    HW137946   2.415   1.939   2.319  0.4196 -0.9187  0.5463
12346SOL    HW237947   2.288   2.006   2.366  0.7882  0.0202  0.2118
12347SOL     OW37948   2.486   2.806   2.227 -0.2543 -0.3953  0.7839
12347SOL    HW137949   2.504   2.878   2.288 -0.4786  0.8098 -0.5193
12347SOL    HW237950   2.542   2.824   2.151  0.7399 -2.3906  0.9791
12348SOL     OW37951   2.525   7.069   0.132  0.2693  0.8187  0.6000
12348SOL    HW137952   2.527   7.162   0.152  2.9405  1.4213 -1.8761
12348SOL    HW237953   2.602   7.033   0.177  0.1614  0.1042  0.2307
12349SOL     OW37954   5.549   2.266   6.877  0.1304  0.3123 -0.2087
12349SOL    HW137955   5.511   2.214   6.948 -1.0765 -0.2348 -1.2136
12349SOL    HW237956   5.495   2.345   6.873 -1.7341 -0.9477 -2.3448
12350SOL     OW37957   2.552   1.103   3.883  0.3410  0.3964  0.0561
12350SOL    HW137958   2.628   1.078   3.935  0.1988  0.6822  0.4105
12350SOL    HW237959   2.587   1.127   3.798  0.6925  0.9268  0.3486
12351SOL     OW37960   3.803   6.534   6.427  0.3846  0.1152 -0.1243
12351SOL    HW137961   3.792   6.453   6.378 -0.1982 -0.8003  1.4400
12351SOL    HW237962   3.885   6.522   6.475 -0.2716 -0.0289  0.9745
12352SOL     OW37963   4.919   2.533   3.258 -0.4661 -0.0972  0.1475
12352SOL    HW137964   4.932   2.628   3.254 -0.6963 -0.0889 -0.3878
12352SOL    HW237965   4.901   2.507   3.168  0.5391 -0.7870  0.1272
12353SOL     OW37966   4.042   4.928   2.668 -0.2306 -0.0219  0.6162
12353SOL    HW137967   4.079   4.884   2.591  1.9383  1.5561  0.6516
12353SOL    HW237968   4.014   5.014   2.635 -0.7456  0.0788  1.3031
12354SOL     OW37969   0.017   3.091   0.029  0.2059  0.1616  0.6557
12354SOL    HW137970  -0.015   3.044  -0.047 -1.0308 -0.0181  1.2630
12354SOL    HW237971   0.080   3.154  -0.006  0.1468 -0.3702 -0.4262
12355SOL     OW37972   6.701   2.417   5.694  0.2130  0.7616 -0.5472
12355SOL    HW137973   6.611   2.445   5.680 -0.1913 -0.2096 -0.0009
12355SOL    HW237974   6.703   2.326   5.664  0.9504  0.7016 -0.3390
12356SOL     OW37975   2.435   5.239   5.706 -0.6657  0.4023  0.1245
12356SOL    HW137976   2.422   5.204   5.794  0.4690  1.1601  0.6039
12356SOL    HW237977   2.418   5.333   5.714 -0.5981  0.4707 -0.4748
12357SOL     OW37978   2.680   6.026   2.058 -0.1265 -0.5057  0.3032
12357SOL    HW137979   2.610   5.971   2.092 -1.0713  1.1110  1.1466
12357SOL    HW237980   2.636   6.107   2.031  1.4462  0.7524  1.3192
12358SOL     OW37981   1.686   5.541   1.529 -0.1089 -0.1985 -0.1582
12358SOL    HW137982   1.751   5.577   1.589 -0.7477  0.3273  0.2266
12358SOL    HW237983   1.733   5.472   1.481  0.7233  0.1746  0.1104
12359SOL     OW37984   1.372   3.752   0.720 -0.4355  0.4944 -0.5268
12359SOL    HW137985   1.346   3.826   0.775  0.0953  0.3689 -0.1021
12359SOL    HW237986   1.373   3.788   0.631 -1.7025  0.5849 -0.5132
12360SOL     OW37987   4.376   3.038   7.370  0.1896  0.0495 -0.1916
12360SOL    HW137988   4.366   3.120   7.418  1.0457  0.8834 -1.3927
12360SOL    HW237989   4.442   2.989   7.420  0.1393  0.3586  0.1858
12361SOL     OW37990   6.213   7.197   5.688 -0.2752 -0.2150 -0.1996
12361SOL    HW137991   6.187   7.144   5.613 -1.7937 -1.1990  0.9648
12361SOL    HW237992   6.222   7.135   5.760 -2.1169  1.0425  1.2157
12362SOL     OW37993   7.126   4.484   5.357 -0.3854 -0.8072 -0.4370
12362SOL    HW137994   7.107   4.423   5.428 -1.9141 -0.4665 -0.5192
12362SOL    HW237995   7.221   4.493   5.358 -0.2846 -1.7316  0.7874
12363SOL     OW37996   6.398   1.559   5.892 -0.2781  0.3257 -0.0835
12363SOL    HW137997   6.393   1.655   5.888  1.5248  0.4520 -0.0309
12363SOL    HW237998   6.445   1.535   5.812 -0.1755 -0.4712  0.2121
12364SOL     OW37999   6.098   6.366   7.481 -0.0585  0.0507 -0.1293
12364SOL    HW138000   6.083   6.272   7.496  2.0281 -0.3039  0.1415
12364SOL    HW238001   6.077   6.407   7.565  2.1425 -0.6572  0.8403
12365SOL     OW38002   3.683   0.944   0.550 -0.5917  0.4878 -0.1879
12365SOL    HW138003   3.680   0.929   0.645 -0.6902  0.7044 -0.1558
12365SOL    HW238004   3.774   0.929   0.526 -0.7496 -0.4840 -0.2110
12366SOL     OW38005   3.428   0.149   7.532  0.1568  0.1163  0.0673
12366SOL    HW138006   3.422   0.111   7.444 -2.1836  0.9815 -0.2304
12366SOL    HW238007   3.493   0.219   7.525  0.3775 -0.1780 -0.8399
12367SOL     OW38008   2.871   2.400   5.154  0.1050 -0.2815  0.1555
12367SOL    HW138009   2.835   2.322   5.113 -0.2457  0.4321 -0.9469
12367SOL    HW238010   2.931   2.436   5.089 -3.2788  2.9909 -1.5378
12368SOL     OW38011   0.995   3.868   4.020 -0.3208  0.6466  0.0604
12368SOL    HW138012   1.013   3.782   4.058 -0.3811  0.0016 -1.3389
12368SOL    HW238013   0.988   3.852   3.926 -1.7201  1.9604 -0.0898
12369SOL     OW38014   2.825   7.671   1.166 -0.1041 -0.2765 -0.3905
12369SOL    HW138015   2.833   7.718   1.249 -0.4437  0.0246 -0.5274
12369SOL    HW238016   2.734   7.642   1.163 -0.4573  0.8686 -1.2672
12370SOL     OW38017   6.877   0.439   1.212 -0.6146 -0.2255 -0.0042
12370SOL    HW138018   6.906   0.351   1.189 -0.8413 -0.2754 -0.1049
12370SOL    HW238019   6.782   0.438   1.195 -0.3935  0.4778 -1.4081
12371SOL     OW38020   6.038   3.211   3.763  0.2270  0.2788  0.0424
12371SOL    HW138021   6.015   3.185   3.674 -1.0913 -0.6512  0.6253
12371SOL    HW238022   6.126   3.177   3.777 -0.3538 -1.4144 -0.2161
12372SOL     OW38023   4.120   6.449   6.987  0.1340  0.1498  0.1485
12372SOL    HW138024   4.200   6.438   6.936 -0.4959 -1.3780 -0.5742
12372SOL    HW238025   4.086   6.361   6.999 -0.7098  0.6382  1.6842
12373SOL     OW38026   4.151   2.160   2.029  0.4726  0.2319 -0.2449
12373SOL    HW138027   4.202   2.101   1.973 -1.6706 -1.2711 -0.7428
12373SOL    HW238028   4.215   2.201   2.087  2.4128 -0.3038 -1.9159
12374SOL     OW38029   3.432   4.494   7.446 -0.0778  0.9292 -0.1339
12374SOL    HW138030   3.345   4.455   7.459  0.2089  0.2101 -0.3439
12374SOL    HW238031   3.487   4.421   7.420  0.1474  1.7247 -2.0532
12375SOL     OW38032   6.970   7.436   3.269  0.0007 -0.2372  0.2460
12375SOL    HW138033   7.015   7.506   3.222 -1.0161  0.5555  0.4234
12375SOL    HW238034   6.879   7.440   3.239  0.0562 -1.9909 -0.3200
12376SOL     OW38035   2.105   2.147   4.796  0.1089  0.0183  0.2960
12376SOL    HW138036   2.142   2.223   4.753  0.5251 -0.3444 -0.0003
12376SOL    HW238037   2.163   2.130   4.870  0.7804 -0.7880 -0.3985
12377SOL     OW38038   6.986   0.063   2.417  0.2468  0.0263 -0.1401
12377SOL    HW138039   6.968  -0.029   2.397  1.5775 -0.1067 -0.8816
12377SOL    HW238040   7.063   0.084   2.364  1.3576  0.9118  1.7063
12378SOL     OW38041   5.274   1.833   5.441  0.0602 -0.0516 -0.3020
12378SOL    HW138042   5.265   1.802   5.531  0.4478 -0.1751 -0.3033
12378SOL    HW238043   5.254   1.926   5.446 -1.1952 -0.3014 -0.3143
12379SOL     OW38044   0.603   5.031   6.707  0.2012 -0.3599 -0.2054
12379SOL    HW138045   0.674   5.025   6.771  0.0670 -0.4368 -0.0634
12379SOL    HW238046   0.647   5.038   6.622  0.3911  0.6700 -0.0351
12380SOL     OW38047   0.002   4.823   6.827  0.2123 -0.1479  0.3875
12380SOL    HW138048   0.078   4.766   6.821  0.4513  0.1346  0.6930
12380SOL    HW238049  -0.051   4.801   6.750  0.5684 -0.3901  0.2100
12381SOL     OW38050   5.819   1.289   6.722  0.3521  0.8683  0.0452
12381SOL    HW138051   5.889   1.274   6.659  0.7778  0.8858  0.5035
12381SOL    HW238052   5.811   1.385   6.727 -1.3222  0.8812 -1.7466
12382SOL     OW38053   3.823   1.607   3.442  0.0251  0.0927 -0.2340
12382SOL    HW138054   3.754   1.671   3.458 -1.3883 -0.7382 -2.4527
12382SOL    HW238055   3.781   1.523   3.461  0.8992 -0.3369 -0.1829
12383SOL     OW38056   1.267   7.480   3.005 -0.2383 -0.2149 -0.0315
12383SOL    HW138057   1.248   7.438   3.089  0.4766  0.2179  0.3618
12383SOL    HW238058   1.275   7.573   3.027  0.1219 -0.1229 -0.5500
12384SOL     OW38059   2.914   7.329   5.431  0.0557  0.2377 -0.0178
12384SOL    HW138060   2.975   7.334   5.357 -0.4409  0.7083 -0.4074
12384SOL    HW238061   2.898   7.420   5.455 -0.2850  0.1079  0.2531
12385SOL     OW38062   1.396   3.994   2.356  0.1038  0.5232  0.0694
12385SOL    HW138063   1.473   4.038   2.319 -0.1721  0.0507 -1.1045
12385SOL    HW238064   1.415   3.901   2.348 -0.4757  0.4066  0.0151
12386SOL     OW38065   1.198   1.002   7.264  0.4055  0.3010 -0.7168
12386SOL    HW138066   1.156   0.972   7.183 -0.1502 -0.5007 -0.1533
12386SOL    HW238067   1.131   0.991   7.331  1.1714  0.0050  0.0270
12387SOL     OW38068   2.613   1.428   1.137  0.5712  0.1181  0.0870
12387SOL    HW138069   2.681   1.391   1.082 -0.2841  2.0100 -2.4631
12387SOL    HW238070   2.545   1.361   1.142  0.4012  0.1205 -1.7684
12388SOL     OW38071   5.583   0.778   7.665  0.3770  0.1507  0.8978
12388SOL    HW138072   5.538   0.861   7.680 -1.5917 -0.8279  0.7194
12388SOL    HW238073   5.555   0.721   7.737 -0.0964 -1.0382 -0.1814
12389SOL     OW38074   6.054   4.874   0.255  0.1163 -0.6522  0.7688
12389SOL    HW138075   6.076   4.781   0.257  0.1106 -0.7630 -1.5010
12389SOL    HW238076   6.055   4.897   0.162  0.7978  1.7911  1.2976
12390SOL     OW38077   0.553   0.108   3.409 -0.0737 -0.4147 -0.0018
12390SOL    HW138078   0.551   0.119   3.504 -0.9159  0.5665 -0.1233
12390SOL    HW238079   0.606   0.180   3.377 -1.4527  0.4552 -0.4144
12391SOL     OW38080   3.807   2.010   4.328  0.6223 -0.2189  0.6619
12391SOL    HW138081   3.878   1.954   4.358  0.6178  0.4709  2.0440
12391SOL    HW238082   3.851   2.083   4.283  0.6827 -0.6728 -0.0371
12392SOL     OW38083   1.251   7.151   1.855  0.3205 -0.0328 -0.0551
12392SOL    HW138084   1.324   7.182   1.909  1.3391 -0.2845 -1.2315
12392SOL    HW238085   1.185   7.220   1.860  0.6599  0.2251  0.9911
12393SOL     OW38086   0.481   2.673   0.180 -0.1233  0.0996  0.1930
12393SOL    HW138087   0.410   2.622   0.140 -0.4992 -0.7926  1.9349
12393SOL    HW238088   0.561   2.633   0.145 -0.4356 -1.1404  0.8357
12394SOL     OW38089   1.659   0.831   4.059 -0.3188  0.2014  0.1836
12394SOL    HW138090   1.735   0.887   4.045  0.5039 -0.3022  2.2535
12394SOL    HW238091   1.636   0.844   4.150 -1.0187 -1.7167  0.3265
12395SOL     OW38092   0.251   1.823   6.433  0.2257 -0.3339 -0.9844
12395SOL    HW138093   0.190   1.772   6.486 -2.4828  1.9577 -1.6194
12395SOL    HW238094   0.227   1.802   6.342 -0.7363  1.6607 -1.2537
12396SOL     OW38095   3.585   1.763   1.976  0.0670 -0.1274  0.0809
12396SOL    HW138096   3.494   1.772   1.948 -0.6206 -0.4487  2.0609
12396SOL    HW238097   3.597   1.669   1.988  0.4994 -0.0408  0.3572
12397SOL     OW38098   0.657   6.177   6.722  0.0278  0.1450 -0.0955
12397SOL    HW138099   0.696   6.264   6.710  0.8841 -0.1620  0.4078
12397SOL    HW238100   0.579   6.193   6.776 -1.2216  0.9093 -2.0207
12398SOL     OW38101   5.030   3.117   1.924  0.5378  0.5939 -0.3049
12398SOL    HW138102   4.972   3.056   1.970 -0.6265  0.9793 -1.2103
12398SOL    HW238103   5.116   3.077   1.929 -0.2812 -1.4155 -1.3419
12399SOL     OW38104   1.350   4.046   7.386  0.3514 -0.0759  0.0164
12399SOL    HW138105   1.371   4.139   7.376  0.1126 -0.1630 -1.5575
12399SOL    HW238106   1.301   4.024   7.307  0.3824 -1.5392  0.3767
12400SOL     OW38107   6.271   4.071   1.846  0.1014  0.1114  0.2165
12400SOL    HW138108   6.336   4.117   1.898  2.0949 -0.5069 -1.6003
12400SOL    HW238109   6.206   4.041   1.910  1.6530  0.6304  2.1228
12401SOL     OW38110   5.227   6.627   2.860 -0.2037  0.4843  0.3060
12401SOL    HW138111   5.149   6.681   2.872 -1.9960 -1.5825 -1.1046
12401SOL    HW238112   5.202   6.564   2.792  3.1097  0.4049 -1.0102
12402SOL     OW38113   5.346   3.103   6.398  0.2791 -0.1158 -0.1137
12402SOL    HW138114   5.289   3.119   6.323  1.9259 -1.7729 -1.8195
12402SOL    HW238115   5.423   3.157   6.381  0.0288  0.7023  1.2257
12403SOL     OW38116   5.486   4.040   7.160 -0.0974 -0.1532 -0.0108
12403SOL    HW138117   5.466   4.127   7.126 -0.0286  0.0976  0.5663
12403SOL    HW238118   5.569   4.051   7.208  0.1170 -0.6233 -0.2580
12404SOL     OW38119   2.869   4.755   3.859 -0.5791 -0.6877 -0.4578
12404SOL    HW138120   2.846   4.765   3.767 -0.9513 -1.0497 -0.4091
12404SOL    HW238121   2.827   4.829   3.903  1.4061  0.7604 -0.8582
12405SOL     OW38122   1.769   6.431   5.789  0.1126  0.1788 -0.2766
12405SOL    HW138123   1.764   6.374   5.712 -0.1962 -1.3389  0.8089
12405SOL    HW238124   1.710   6.390   5.852  0.2295  1.4821  0.7177
12406SOL     OW38125   3.383   5.142   6.909 -0.0470 -0.4034  0.4129
12406SOL    HW138126   3.386   5.210   6.977  0.8002  0.4011 -0.3906
12406SOL    HW238127   3.450   5.168   6.846  1.1920 -2.6637  0.6921
12407SOL     OW38128   0.828   5.679   4.697 -0.0067 -0.4256  0.9087
12407SOL    HW138129   0.772   5.708   4.769 -1.4394 -0.4444 -0.1558
12407SOL    HW238130   0.840   5.757   4.643  2.3944  0.0033  1.9494
12408SOL     OW38131   4.702   5.429   2.087  0.0241  0.1146  0.1229
12408SOL    HW138132   4.721   5.335   2.081  2.0367  0.5137 -0.6832
12408SOL    HW238133   4.724   5.452   2.177 -0.9341 -0.2647  0.4598
12409SOL     OW38134   3.108   1.601   1.984 -0.2114 -0.0618  0.1914
12409SOL    HW138135   3.072   1.590   1.897 -0.2970 -0.1764  0.2419
12409SOL    HW238136   3.120   1.696   1.993 -0.6277 -0.0107  0.2254
12410SOL     OW38137   1.214   5.011   0.146 -0.5734  0.0639  0.0078
12410SOL    HW138138   1.128   5.052   0.152 -0.9057 -0.6255 -0.0316
12410SOL    HW238139   1.196   4.918   0.131  0.1758 -0.0449 -0.2737
12411SOL     OW38140   4.605   0.394   0.859  0.3827  0.1769  0.6742
12411SOL    HW138141   4.612   0.319   0.919  0.9272 -1.3236 -1.1694
12411SOL    HW238142   4.666   0.374   0.789 -1.2845  1.1332 -1.1484
12412SOL     OW38143   5.606   5.566   5.045 -0.0370 -0.7808  0.1088
12412SOL    HW138144   5.601   5.482   4.999 -1.9790 -0.8823  0.4402
12412SOL    HW238145   5.530   5.566   5.103  0.5618  0.7411  0.9420
12413SOL     OW38146   4.685   0.336   4.032  0.7665  0.3503 -0.2101
12413SOL    HW138147   4.602   0.340   4.080  0.2187 -1.8841 -0.8324
12413SOL    HW238148   4.709   0.427   4.017 -1.5239  1.0616  0.0954
12414SOL     OW38149   1.188   4.918   2.815  0.2153 -0.3648  0.2888
12414SOL    HW138150   1.284   4.914   2.816  0.2253 -0.2242  0.0127
12414SOL    HW238151   1.166   4.967   2.894  0.4363  0.6526 -0.2452
12415SOL     OW38152   2.972   4.658   2.189 -0.2455 -0.0629  0.0372
12415SOL    HW138153   2.948   4.579   2.237 -0.7164  0.4213  0.6089
12415SOL    HW238154   3.042   4.630   2.130 -2.1466 -1.5371 -1.6934
12416SOL     OW38155   2.959   4.847   0.643 -0.8912  0.0026  0.0850
12416SOL    HW138156   2.871   4.811   0.628 -2.1893  1.5559  3.1669
12416SOL    HW238157   2.971   4.911   0.573 -1.5811 -1.1683 -1.1632
12417SOL     OW38158   1.237   5.906   6.349  0.1155  0.1816 -0.4477
12417SOL    HW138159   1.232   5.840   6.418  0.7970 -1.6566 -2.0640
12417SOL    HW238160   1.147   5.937   6.339 -0.2743 -0.6920  0.1963
12418SOL     OW38161   6.183   2.096   5.299  0.1744  0.5781  0.0932
12418SOL    HW138162   6.194   2.121   5.208  2.1220  1.2727  0.4810
12418SOL    HW238163   6.123   2.021   5.296  1.3295 -0.3343 -1.8851
12419SOL     OW38164   7.084   3.050   4.226 -0.5847  0.5385 -0.5469
12419SOL    HW138165   7.090   3.098   4.308  1.0926  1.2025 -1.0165
12419SOL    HW238166   7.044   2.966   4.250  1.2218  0.1098  1.2479
12420SOL     OW38167   1.764   7.228   0.346  0.2821  0.2903 -0.3570
12420SOL    HW138168   1.759   7.309   0.295 -0.3756 -0.1045 -0.9460
12420SOL    HW238169   1.786   7.161   0.281  0.4596 -0.0625  0.0627
12421SOL     OW38170   1.689   7.662   5.729  0.2166  0.5977  0.1100
12421SOL    HW138171   1.757   7.722   5.761 -1.1298  1.6407  1.1228
12421SOL    HW238172   1.616   7.719   5.704 -0.1838 -0.4756 -1.2865
12422SOL     OW38173   7.229   0.255   5.084  0.1178 -0.0735  0.1734
12422SOL    HW138174   7.203   0.164   5.068  2.4420 -0.5181 -1.6049
12422SOL    HW238175   7.174   0.307   5.025 -0.5792 -0.3895  0.5288
12423SOL     OW38176   6.892   7.107   2.700 -0.4084 -0.3372  0.0031
12423SOL    HW138177   6.870   7.109   2.607 -0.7637  0.0376  0.0930
12423SOL    HW238178   6.821   7.155   2.742  1.2571  2.0951  0.1931
12424SOL     OW38179   7.307   7.351   3.290 -0.2498 -0.2661 -0.0261
12424SOL    HW138180   7.296   7.280   3.226  0.2961 -1.6152  1.3158
12424SOL    HW238181   7.225   7.400   3.285  0.2616  0.4661 -2.6365
12425SOL     OW38182   5.513   1.400   6.680  0.4819  0.2592  0.0082
12425SOL    HW138183   5.536   1.308   6.665 -0.2175  0.1689 -0.5353
12425SOL    HW238184   5.548   1.419   6.768 -1.2755 -1.1643  1.0860
12426SOL     OW38185   0.576   1.773   3.762  0.1565  0.3636 -0.8224
12426SOL    HW138186   0.492   1.815   3.743 -0.1909  1.1660  2.0648
12426SOL    HW238187   0.635   1.844   3.787  0.4838 -0.4918  1.0588
12427SOL     OW38188   4.203   6.539   4.336 -0.3166  0.2137 -0.5919
12427SOL    HW138189   4.294   6.560   4.317 -0.2305  0.6838  0.2845
12427SOL    HW238190   4.195   6.550   4.430 -1.5191  1.1165 -0.7738
12428SOL     OW38191   2.225   2.696   5.459 -0.0396 -0.7566  0.3062
12428SOL    HW138192   2.228   2.678   5.365 -0.0305  2.7165 -0.4628
12428SOL    HW238193   2.300   2.649   5.494 -0.6225 -2.9683 -1.1868
12429SOL     OW38194   6.373   7.684   4.186  0.2537  0.3414  0.2821
12429SOL    HW138195   6.360   7.611   4.125  1.2765 -0.0703  0.5422
12429SOL    HW238196   6.370   7.762   4.131  2.0955 -0.0747 -0.4629
12430SOL     OW38197   1.858   1.326   5.265 -0.0478  0.5444 -0.0101
12430SOL    HW138198   1.905   1.397   5.308  1.1962  1.3652 -2.5639
12430SOL    HW238199   1.838   1.359   5.178  0.5473 -2.2133 -1.2932
12431SOL     OW38200   1.148   4.854   4.040 -0.4993  0.0043 -0.3524
12431SOL    HW138201   1.085   4.867   3.969 -0.2516 -0.5296 -0.6766
12431SOL    HW238202   1.158   4.941   4.079 -2.1876 -0.0693  0.3575
12432SOL     OW38203   6.242   6.446   1.806  0.2213 -0.2315 -0.2482
12432SOL    HW138204   6.332   6.445   1.839  0.6593 -0.4982 -1.4025
12432SOL    HW238205   6.189   6.468   1.883  1.4168  1.8221  0.0592
12433SOL     OW38206   0.019   2.186   3.561 -0.6824  0.4014 -0.7793
12433SOL    HW138207   0.033   2.279   3.541 -1.4184  0.7340  0.1503
12433SOL    HW238208   0.052   2.139   3.484  0.8044  1.3608 -0.7559
12434SOL     OW38209   7.142   3.746   5.559  0.2642 -0.8871  0.4878
12434SOL    HW138210   7.062   3.783   5.521  1.0042  2.4777  1.8952
12434SOL    HW238211   7.110   3.672   5.611 -1.7971 -0.3797  0.0622
12435SOL     OW38212   5.060   1.203   6.850  0.1291  0.2278 -0.4878
12435SOL    HW138213   5.144   1.208   6.805  1.8776  0.8469  2.5730
12435SOL    HW238214   5.057   1.282   6.905 -1.9012 -0.4057  0.4290
12436SOL     OW38215   0.774   0.803   2.387 -0.2472  0.5752 -0.5494
12436SOL    HW138216   0.711   0.782   2.318 -1.8502  0.7481  0.7893
12436SOL    HW238217   0.814   0.719   2.409  1.5824  0.7388 -2.7822
12437SOL     OW38218   5.694   7.576   3.742 -0.3429  0.1455  0.3814
12437SOL    HW138219   5.695   7.540   3.653  0.9295 -0.1383  0.4943
12437SOL    HW238220   5.663   7.665   3.731  1.0598  0.5596 -0.5567
12438SOL     OW38221   0.191   0.946   5.818  0.6871  0.2553 -0.3374
12438SOL    HW138222   0.195   0.992   5.735  0.8749  1.4329  0.2944
12438SOL    HW238223   0.134   1.000   5.873  0.2531 -0.6960  0.1829
12439SOL     OW38224   4.362   3.600   1.508 -0.0027 -0.1324  0.1742
12439SOL    HW138225   4.433   3.537   1.499 -1.3415 -1.8298  0.8891
12439SOL    HW238226   4.357   3.643   1.422  3.7051  2.2068  0.9283
12440SOL     OW38227   3.679   7.362   6.427 -0.3309 -0.3684  0.4699
12440SOL    HW138228   3.764   7.361   6.470  0.5025 -1.3116 -1.0963
12440SOL    HW238229   3.627   7.297   6.474  0.2432 -0.7087  0.6476
12441SOL     OW38230   3.984   4.024   5.445  0.0295 -0.9186  0.2796
12441SOL    HW138231   3.917   4.011   5.379  0.1528 -1.5914  0.2786
12441SOL    HW238232   4.034   3.942   5.445  1.6018 -0.0286 -0.5601
12442SOL     OW38233   7.315   1.477   5.721  0.6412 -0.4875  0.3219
12442SOL    HW138234   7.292   1.565   5.693  0.4785 -0.2237  1.2649
12442SOL    HW238235   7.411   1.477   5.728  0.6744 -0.5241 -0.1233
12443SOL     OW38236   5.322   0.544   6.260 -0.1429 -0.2886 -0.0498
12443SOL    HW138237   5.340   0.515   6.170 -0.1401  1.2009 -0.5499
12443SOL    HW238238   5.396   0.510   6.311  0.7006  0.1978 -0.9107
12444SOL     OW38239   0.438   3.252   0.385 -0.0507 -0.1154  0.6654
12444SOL    HW138240   0.499   3.253   0.311  0.3363 -1.4753  0.9328
12444SOL    HW238241   0.352   3.266   0.346  0.2631  0.2673  0.0994
12445SOL     OW38242   2.063   3.639   4.748 -0.2911  0.1705  0.1757
12445SOL    HW138243   2.079   3.561   4.695 -1.3527  0.8674 -1.2336
12445SOL    HW238244   2.037   3.606   4.834  0.8551 -0.9932  0.1026
12446SOL     OW38245   3.234   4.599   6.099 -0.2407  0.3002 -0.6752
12446SOL    HW138246   3.214   4.660   6.170 -1.4354  0.9782 -1.5647
12446SOL    HW238247   3.228   4.512   6.140 -1.5991  0.6503 -0.0940
12447SOL     OW38248   4.581   4.852   7.726  0.1774 -0.4649  0.2282
12447SOL    HW138249   4.617   4.764   7.709  0.6811 -0.0370 -1.0377
12447SOL    HW238250   4.519   4.867   7.655  0.9119  0.6213 -0.2235
12448SOL     OW38251   6.090   2.912   5.662 -0.5819  0.2919 -0.1125
12448SOL    HW138252   6.088   2.988   5.604  0.2674 -0.7282 -1.5723
12448SOL    HW238253   6.060   2.840   5.607  0.1515 -0.6984  0.7392
12449SOL     OW38254   6.025   1.430   2.659 -0.1002 -0.3300  0.1676
12449SOL    HW138255   5.999   1.351   2.612  1.0142 -1.3478  1.2192
12449SOL    HW238256   6.103   1.461   2.614  0.6693 -1.0181  0.9914
12450SOL     OW38257   0.747   0.896   0.874  0.0759 -0.5508 -0.1493
12450SOL    HW138258   0.755   0.807   0.909  0.3139 -0.0088  1.1927
12450SOL    HW238259   0.689   0.941   0.935  1.5306  0.7762  0.2971
12451SOL     OW38260   3.813   2.470   5.465 -0.4274  0.1240 -0.2931
12451SOL    HW138261   3.835   2.426   5.547 -2.1110  2.0188  1.2701
12451SOL    HW238262   3.730   2.430   5.437 -0.5805  0.4514 -0.3122
12452SOL     OW38263   5.221   3.835   6.362  0.3996 -0.1478 -0.1088
12452SOL    HW138264   5.137   3.867   6.395  0.5220 -0.4977  0.5454
12452SOL    HW238265   5.243   3.896   6.291  1.9088  2.9880  2.7394
12453SOL     OW38266   4.493   0.303   0.551 -0.2315  0.1835 -0.7781
12453SOL    HW138267   4.406   0.276   0.522 -1.2348  0.9364  1.2986
12453SOL    HW238268   4.529   0.225   0.594 -0.6612  0.3673 -0.0557
12454SOL     OW38269   1.452   2.922   2.187 -0.1176  0.4281  0.1469
12454SOL    HW138270   1.398   2.911   2.109  0.3846  1.4235 -0.3516
12454SOL    HW238271   1.393   2.962   2.251 -0.1557  0.8867 -0.1731
12455SOL     OW38272   7.138   3.097   6.657 -0.1632  0.1166  0.5274
12455SOL    HW138273   7.069   3.084   6.592 -0.5699  2.6986  0.3434
12455SOL    HW238274   7.200   3.156   6.615  0.9011 -0.2148  1.5870
12456SOL     OW38275   2.486   2.163   4.498 -0.3677 -0.4978  0.1603
12456SOL    HW138276   2.567   2.122   4.529  0.1830 -0.3297 -0.9943
12456SOL    HW238277   2.419   2.095   4.511  0.1557 -1.0309  0.1316
12457SOL     OW38278   2.045   6.296   1.777  0.2586  0.0648  0.7173
12457SOL    HW138279   2.028   6.378   1.824 -0.1627  0.6789 -0.4688
12457SOL    HW238280   2.113   6.253   1.829  0.6484  1.2605  1.2524
12458SOL     OW38281   3.743   0.127   7.363 -0.5920  0.2115  0.3051
12458SOL    HW138282   3.751   0.065   7.436  0.0281  0.4028  0.4038
12458SOL    HW238283   3.658   0.106   7.323 -1.7114  1.1836  2.0661
12459SOL     OW38284   4.467   6.668   4.300 -0.0628 -0.0634 -0.3014
12459SOL    HW138285   4.548   6.640   4.257 -0.5064  0.0621 -1.2381
12459SOL    HW238286   4.494   6.742   4.355  0.6257 -0.6334  0.1510
12460SOL     OW38287   4.536   5.581   2.841  0.0185  0.7494  0.3739
12460SOL    HW138288   4.565   5.500   2.884 -1.2203  0.6795  1.1274
12460SOL    HW238289   4.485   5.626   2.908  1.0776  2.4048  0.1302
12461SOL     OW38290   4.382   6.858   4.568 -0.5484  0.2620  0.3954
12461SOL    HW138291   4.436   6.784   4.596 -1.3335  0.0570  1.4034
12461SOL    HW238292   4.310   6.819   4.519 -0.6678  0.4035  0.4572
12462SOL     OW38293   5.906   7.238   7.326  0.4537 -0.7282  0.4376
12462SOL    HW138294   5.947   7.307   7.377  0.3614  0.1342 -0.6276
12462SOL    HW238295   5.928   7.258   7.235  0.3877 -2.0771  0.1047
12463SOL     OW38296   4.010   1.023   4.022 -0.0737  0.0414  0.0369
12463SOL    HW138297   3.923   1.038   3.986  0.2688  0.0871 -0.7868
12463SOL    HW238298   4.028   1.100   4.076 -0.1706  0.4648 -0.5308
12464SOL     OW38299   2.451   6.313   5.393 -0.2315 -0.1235  0.3367
12464SOL    HW138300   2.515   6.374   5.356  0.4808 -0.2073  1.3662
12464SOL    HW238301   2.378   6.369   5.421  0.3249  0.2469  1.0815
12465SOL     OW38302   1.277   1.442   4.078  0.1969  0.1185  0.6126
12465SOL    HW138303   1.342   1.372   4.072  0.0315 -0.2836  2.6357
12465SOL    HW238304   1.196   1.397   4.101 -0.1801  0.8712  0.7629
12466SOL     OW38305   2.610   4.011   0.861  0.5609 -0.3324  0.0722
12466SOL    HW138306   2.638   4.100   0.882 -1.0659  0.1613  0.2982
12466SOL    HW238307   2.515   4.011   0.875  0.3887 -1.8578 -0.7913
12467SOL     OW38308   6.922   2.978   2.944 -0.6031 -0.6312 -0.1498
12467SOL    HW138309   6.839   2.961   2.899  0.1796 -2.6352 -0.9133
12467SOL    HW238310   6.989   2.953   2.882  0.5796 -0.2639  0.9300
12468SOL     OW38311   6.388   6.838   3.480  0.2682  0.8421 -0.3560
12468SOL    HW138312   6.325   6.860   3.412  0.0342  0.9315 -0.1100
12468SOL    HW238313   6.408   6.921   3.522 -0.4022  0.6297  0.3888
12469SOL     OW38314   7.088   5.884   0.900  0.4069  0.0098 -0.3143
12469SOL    HW138315   7.029   5.881   0.975  0.0407 -1.0175 -0.6288
12469SOL    HW238316   7.151   5.952   0.922  0.6111 -0.6210  1.1692
12470SOL     OW38317   7.494   3.504   0.305 -0.2452 -0.2059 -0.2003
12470SOL    HW138318   7.408   3.528   0.338  0.3560  1.5853  0.1872
12470SOL    HW238319   7.481   3.490   0.211 -1.2677 -1.7642  0.1255
12471SOL     OW38320   3.252   2.631   5.711 -0.0693 -0.7626  0.4768
12471SOL    HW138321   3.211   2.605   5.628  1.2945 -0.5037 -0.3016
12471SOL    HW238322   3.233   2.724   5.718 -2.4082 -1.2554  1.7937
12472SOL     OW38323   3.871   3.753   7.178  0.1682 -0.2412 -0.0363
12472SOL    HW138324   3.956   3.791   7.203 -0.0675 -0.4797  1.1934
12472SOL    HW238325   3.881   3.659   7.195 -0.4202 -0.2344  0.3615
12473SOL     OW38326   2.707   5.960   1.427  0.1657 -0.5993  0.7153
12473SOL    HW138327   2.639   5.909   1.384 -1.6216  0.0950  2.5299
12473SOL    HW238328   2.726   6.032   1.366  0.7860 -1.9080 -0.6862
12474SOL     OW38329   4.205   6.053   4.018  0.0174  0.1552  0.4782
12474SOL    HW138330   4.221   6.126   4.078  1.7026  0.5660 -0.4204
12474SOL    HW238331   4.275   5.990   4.037 -0.8820 -0.8368  0.6100
12475SOL     OW38332   4.304   3.725   1.250 -0.2331 -0.3076  0.9422
12475SOL    HW138333   4.284   3.775   1.171 -1.4076 -0.1583  1.3053
12475SOL    HW238334   4.392   3.753   1.275 -0.0593  0.0339 -0.0104
12476SOL     OW38335   2.993   6.265   1.920 -0.0649  0.0083 -0.4765
12476SOL    HW138336   3.088   6.271   1.912 -0.1226  0.0840 -1.1785
12476SOL    HW238337   2.962   6.253   1.830 -0.5900 -1.8387 -0.0967
12477SOL     OW38338   4.179   5.113   4.372 -0.0977  0.1810 -0.2077
12477SOL    HW138339   4.184   5.186   4.310  1.0409  0.6743  0.4268
12477SOL    HW238340   4.188   5.035   4.318  1.2312  0.6181 -0.6555
12478SOL     OW38341   6.723   1.375   7.628 -0.2055  0.5000  0.2190
12478SOL    HW138342   6.796   1.436   7.633 -0.8675  1.3079  0.3523
12478SOL    HW238343   6.712   1.359   7.534 -1.5370  2.5162 -0.0412
12479SOL     OW38344   1.028   4.530   3.777  0.5447 -0.3990 -0.4532
12479SOL    HW138345   1.029   4.478   3.857 -0.2027 -1.6537 -1.2303
12479SOL    HW238346   1.089   4.486   3.719  1.5927  0.8890 -0.3758
12480SOL     OW38347   0.261   0.912   2.864 -0.4382 -0.2391  0.0004
12480SOL    HW138348   0.182   0.965   2.863 -2.3348 -2.6210  3.4775
12480SOL    HW238349   0.296   0.922   2.953 -0.0063 -3.3864  0.3144
12481SOL     OW38350   7.121   4.720   2.853  0.0317 -0.2647  0.0319
12481SOL    HW138351   7.030   4.743   2.876  0.2252  0.0290  0.5117
12481SOL    HW238352   7.171   4.798   2.873  0.8367 -1.3313  2.4818
12482SOL     OW38353   3.495   4.213   5.166  0.0141 -0.3607  0.3572
12482SOL    HW138354   3.514   4.197   5.074 -0.3544  2.7292 -0.3617
12482SOL    HW238355   3.405   4.244   5.167  0.3311  0.6183  1.5944
12483SOL     OW38356   0.125   2.315   1.590  0.0616 -0.1356  0.0391
12483SOL    HW138357   0.112   2.223   1.568  0.1725 -0.1403 -0.0068
12483SOL    HW238358   0.179   2.313   1.669 -1.0028 -0.1371  0.7918
12484SOL     OW38359   3.947   6.295   7.330 -0.8165 -0.0474  0.1656
12484SOL    HW138360   3.971   6.241   7.406 -1.8590 -1.2407 -0.3169
12484SOL    HW238361   4.028   6.341   7.307 -1.0092  2.3042  3.4698
12485SOL     OW38362   5.470   7.067   2.292  0.0454  0.1632  1.1610
12485SOL    HW138363   5.431   7.004   2.232 -1.0943 -0.0350  2.0705
12485SOL    HW238364   5.538   7.111   2.240  0.7254 -1.6409  0.4427
12486SOL     OW38365   3.466   6.761   0.733  0.1647 -0.2304  0.0552
12486SOL    HW138366   3.464   6.848   0.693 -2.0220 -0.5129 -0.5998
12486SOL    HW238367   3.500   6.776   0.821 -1.2689  1.5118  0.3761
12487SOL     OW38368   5.799   0.734   4.144  0.1271 -0.4134  0.1188
12487SOL    HW138369   5.823   0.824   4.164  2.5290 -0.7246 -1.0523
12487SOL    HW238370   5.802   0.728   4.049 -0.4179 -1.6359  0.1495
12488SOL     OW38371   7.552   0.544   0.473 -0.0753 -0.6193 -0.0686
12488SOL    HW138372   7.563   0.534   0.379 -0.6636 -0.9157 -0.1140
12488SOL    HW238373   7.506   0.628   0.483  1.8756  0.4840  0.1018
12489SOL     OW38374   0.214   7.175   7.021 -0.4338 -0.0599  0.0321
12489SOL    HW138375   0.225   7.242   7.088  1.2269 -0.6458  0.3959
12489SOL    HW238376   0.149   7.211   6.961  1.5596  2.6541 -0.7002
12490SOL     OW38377   5.481   2.328   3.774 -0.4502 -0.1323 -0.0471
12490SOL    HW138378   5.539   2.383   3.721 -0.6329 -1.3698 -1.5765
12490SOL    HW238379   5.525   2.324   3.859  0.5172  0.8534 -0.4694
12491SOL     OW38380   1.876   7.670   5.457  0.2130  0.3897 -0.2424
12491SOL    HW138381   1.948   7.718   5.498  1.0481 -0.4930 -0.6147
12491SOL    HW238382   1.810   7.662   5.525  0.4129  1.3198  0.0719
12492SOL     OW38383   6.928   2.543   2.850 -0.3890 -0.0469 -0.3410
12492SOL    HW138384   6.935   2.507   2.938  0.9881 -0.4542 -0.6024
12492SOL    HW238385   7.009   2.518   2.807 -0.5958  1.0347 -1.4085
12493SOL     OW38386   0.013   2.137   1.200 -0.3278 -0.8003 -0.3940
12493SOL    HW138387  -0.012   2.056   1.245 -2.0577 -0.6107 -0.9555
12493SOL    HW238388  -0.070   2.176   1.171  0.4463  1.1976 -0.1155
12494SOL     OW38389   4.174   0.216   0.419 -0.4048  0.2391  0.2060
12494SOL    HW138390   4.211   0.284   0.363  2.2287  1.4883  3.1757
12494SOL    HW238391   4.106   0.261   0.470  2.7897  1.6297  3.7689
12495SOL     OW38392   7.164   3.608   5.951  0.4643 -0.4378 -0.7035
12495SOL    HW138393   7.165   3.569   5.864 -0.6468 -1.1549 -0.4178
12495SOL    HW238394   7.095   3.674   5.948 -0.6144 -1.4864  0.0289
12496SOL     OW38395   5.536   1.161   0.976 -0.1609 -0.7306  0.1360
12496SOL    HW138396   5.473   1.115   0.921 -0.1233 -0.2989 -0.2762
12496SOL    HW238397   5.562   1.238   0.924 -0.5362 -0.0154  0.9875
12497SOL     OW38398   1.041   2.580   4.958 -0.0935  0.5581 -0.0723
12497SOL    HW138399   1.117   2.537   4.918  0.3428  0.0008  1.2942
12497SOL    HW238400   0.983   2.509   4.983 -0.4036  0.8989  0.1912
12498SOL     OW38401   7.650   7.393   5.270 -0.6251 -0.4334  0.1837
12498SOL    HW138402   7.665   7.487   5.267 -2.7955  0.0166  1.1169
12498SOL    HW238403   7.726   7.355   5.227  0.8388  1.6766  0.7299
12499SOL     OW38404   5.321   2.721   5.756 -0.4025  0.3384 -0.4400
12499SOL    HW138405   5.299   2.786   5.690 -1.6371  0.3478 -0.0387
12499SOL    HW238406   5.361   2.649   5.707  1.3255  1.5066 -0.8503
12500SOL     OW38407   5.196   3.878   1.497 -0.3827  0.5718  0.2250
12500SOL    HW138408   5.154   3.810   1.549 -0.4391 -0.1190 -0.7002
12500SOL    HW238409   5.263   3.914   1.555  0.5765 -1.2019  0.3073
12501SOL     OW38410   0.138   6.123   5.787  0.0144 -0.2382 -0.3517
12501SOL    HW138411   0.096   6.168   5.860 -2.7978 -1.8072 -0.8435
12501SOL    HW238412   0.131   6.030   5.810  1.2349 -0.6569 -1.5569
12502SOL     OW38413   4.697   3.259   4.309  0.1834 -0.1248  0.1250
12502SOL    HW138414   4.788   3.231   4.297  0.3171  0.6335 -0.6787
12502SOL    HW238415   4.703   3.349   4.341 -0.2629 -0.7351  2.0582
12503SOL     OW38416   5.327   5.467   4.023  0.0808  0.0665 -0.6396
12503SOL    HW138417   5.391   5.500   4.086  0.5610 -0.1077 -1.0309
12503SOL    HW238418   5.344   5.517   3.943  0.0046 -0.2762 -0.8695
12504SOL     OW38419   6.778   3.360   7.742  0.3719  0.6586  0.5324
12504SOL    HW138420   6.853   3.409   7.709  0.0870 -0.0311 -1.2666
12504SOL    HW238421   6.816   3.282   7.782  0.6239 -0.2344 -1.3429
12505SOL     OW38422   4.470   5.516   1.999 -0.1480  0.2228 -0.4841
12505SOL    HW138423   4.424   5.462   2.063  0.3071  0.7823  0.3377
12505SOL    HW238424   4.563   5.507   2.022 -0.0467  1.1263 -0.4910
12506SOL     OW38425   3.998   3.169   7.546 -0.2894  0.0741  0.0962
12506SOL    HW138426   3.974   3.178   7.638  2.9400 -1.2664  1.1721
12506SOL    HW238427   4.093   3.180   7.544 -0.1466 -0.8250 -2.9755
12507SOL     OW38428   0.722   1.519   2.796  1.0235 -0.3094  0.1540
12507SOL    HW138429   0.651   1.552   2.851  0.5558  2.9681 -2.1149
12507SOL    HW238430   0.784   1.592   2.791  1.2152 -0.5433 -3.2134
12508SOL     OW38431   1.560   1.333   7.443  0.0946 -0.1260 -0.0184
12508SOL    HW138432   1.508   1.357   7.366  0.3663  0.6787  0.0302
12508SOL    HW238433   1.502   1.351   7.517  0.8520  2.1563  0.1236
12509SOL     OW38434   1.538   1.723   6.962 -0.4448 -0.0754  0.7515
12509SOL    HW138435   1.622   1.764   6.979 -0.0568 -0.3078 -0.4989
12509SOL    HW238436   1.474   1.777   7.009  0.1312  1.5040 -0.2236
12510SOL     OW38437   1.365   5.240   2.707  0.1218  0.0391 -0.4047
12510SOL    HW138438   1.345   5.283   2.624 -1.1254  0.0555 -0.1209
12510SOL    HW238439   1.457   5.260   2.723  0.9038 -1.3985 -2.6195
12511SOL     OW38440   1.673   5.576   7.441  1.3389  0.1982  0.5782
12511SOL    HW138441   1.666   5.488   7.476 -2.8346  0.4576  0.9003
12511SOL    HW238442   1.661   5.633   7.516 -0.3528  0.8849 -0.1580
12512SOL     OW38443   5.458   7.164   6.902  0.5139 -0.3356 -0.1841
12512SOL    HW138444   5.543   7.137   6.867 -0.0590 -1.6447 -0.5992
12512SOL    HW238445   5.399   7.091   6.883 -0.2107 -0.4170  2.0453
12513SOL     OW38446   3.078   7.403   5.244 -0.2584  0.7103  0.1706
12513SOL    HW138447   3.064   7.494   5.271  0.1233  0.6138  0.6895
12513SOL    HW238448   3.150   7.408   5.181  0.8991  0.5777  1.4489
12514SOL     OW38449   2.529   2.771   5.089  0.1142  0.2237  0.5847
12514SOL    HW138450   2.584   2.847   5.070  0.4189  0.3989  2.0745
12514SOL    HW238451   2.558   2.705   5.026  0.7346  0.9174  0.1212
12515SOL     OW38452   5.531   2.740   0.425 -0.0189  0.0902 -0.7624
12515SOL    HW138453   5.593   2.811   0.438 -1.2431  1.5204 -2.3247
12515SOL    HW238454   5.479   2.767   0.350 -1.0056 -2.1456 -0.9645
12516SOL     OW38455   0.362   1.710   5.880  0.1519  0.5136  0.4317
12516SOL    HW138456   0.348   1.635   5.938 -0.1562  0.2304 -0.0036
12516SOL    HW238457   0.417   1.770   5.930 -0.0830  0.2533  0.9981
12517SOL     OW38458   5.501   4.380   0.172  0.0160 -0.3220  0.1062
12517SOL    HW138459   5.490   4.379   0.267  0.2430  0.7237  0.1531
12517SOL    HW238460   5.566   4.312   0.155  1.5867  0.9124  0.9312
12518SOL     OW38461   4.154   2.278   2.570  0.1253  0.0479  0.0762
12518SOL    HW138462   4.168   2.204   2.511  0.9409 -0.4554  0.8764
12518SOL    HW238463   4.151   2.355   2.512 -1.5986 -0.6675 -0.8541
12519SOL     OW38464   1.512   6.053   7.465  0.2521  0.2167 -0.6017
12519SOL    HW138465   1.477   6.120   7.523 -1.1136 -1.0122  0.0619
12519SOL    HW238466   1.590   6.020   7.509 -0.4512 -0.3039  0.2816
12520SOL     OW38467   6.654   3.706   0.975 -0.1920 -0.0303 -0.1816
12520SOL    HW138468   6.632   3.630   1.028 -0.0335  1.5639  2.3607
12520SOL    HW238469   6.595   3.701   0.900  0.3363 -2.9962 -0.5239
12521SOL     OW38470   3.045   7.072   6.513  0.4498 -0.3162  0.6971
12521SOL    HW138471   3.053   7.146   6.452 -1.6932 -0.2009  0.4727
12521SOL    HW238472   3.131   7.030   6.511  1.3567  1.4424 -0.0976
12522SOL     OW38473   0.560   5.493   2.249 -0.5274  0.9415  0.9087
12522SOL    HW138474   0.561   5.588   2.237  1.4758  0.9729  0.9053
12522SOL    HW238475   0.652   5.468   2.243 -1.1245 -1.1795 -0.3697
12523SOL     OW38476   2.645   3.211   2.884  0.3118  0.2019  0.0420
12523SOL    HW138477   2.708   3.243   2.949  1.0477  1.5745 -1.2856
12523SOL    HW238478   2.698   3.165   2.820  0.0100  1.4783 -1.1586
12524SOL     OW38479   0.175   3.690   1.776  0.3439  0.1443  0.1550
12524SOL    HW138480   0.103   3.710   1.836 -0.5761  2.1763 -1.4986
12524SOL    HW238481   0.159   3.599   1.751 -1.0144  0.1979  0.6841
12525SOL     OW38482   2.632   1.833   5.837 -0.0788  0.5314  0.1138
12525SOL    HW138483   2.684   1.761   5.872  0.7986  1.0873 -0.0338
12525SOL    HW238484   2.564   1.790   5.785 -1.4409 -0.3340  2.4548
12526SOL     OW38485   1.048   4.524   4.666  0.3233 -0.3732 -0.3115
12526SOL    HW138486   1.082   4.543   4.753  0.6491 -0.5092 -0.4116
12526SOL    HW238487   0.999   4.603   4.642  1.8106  0.4215 -0.7928
12527SOL     OW38488   5.350   3.112   7.394 -0.4227  0.7117 -0.2214
12527SOL    HW138489   5.441   3.103   7.420 -1.0617  0.1108  2.1030
12527SOL    HW238490   5.341   3.204   7.367  0.9070  0.6839 -0.8326
12528SOL     OW38491   1.351   0.244   7.250 -0.2674 -0.4764 -0.1943
12528SOL    HW138492   1.268   0.290   7.260 -0.1993 -0.5024  0.4968
12528SOL    HW238493   1.407   0.305   7.202 -0.4675 -0.1918 -0.0664
12529SOL     OW38494   1.280   7.703   0.751 -0.1351 -0.0544  0.2321
12529SOL    HW138495   1.288   7.717   0.846 -0.0842 -0.9365  0.3602
12529SOL    HW238496   1.363   7.664   0.725 -0.3240 -0.2378 -0.1012
12530SOL     OW38497   6.314   1.648   2.015  0.2190 -0.0927 -0.0528
12530SOL    HW138498   6.238   1.592   2.033  0.6523 -0.7528 -0.2361
12530SOL    HW238499   6.383   1.587   1.987  1.6900  0.1392  2.6991
12531SOL     OW38500   5.043   7.017   1.574 -0.9277 -0.0181  0.1527
12531SOL    HW138501   5.134   7.035   1.549 -0.5490  0.3134  1.6550
12531SOL    HW238502   4.991   7.054   1.502  0.1239 -1.1982 -1.2891
12532SOL     OW38503   6.556   4.544   0.948  0.0369  0.3513 -0.3584
12532SOL    HW138504   6.563   4.452   0.923  2.9506  0.6662 -1.1328
12532SOL    HW238505   6.579   4.546   1.041 -0.1252  0.2805 -0.3176
12533SOL     OW38506   6.911   0.972   3.828  0.1521 -0.1248 -0.5033
12533SOL    HW138507   6.994   1.013   3.850  1.0787 -2.0477 -0.1745
12533SOL    HW238508   6.902   0.982   3.734  0.0767  1.2520 -0.3667
12534SOL     OW38509   2.111   1.117   2.312 -0.7841  0.0520 -0.6607
12534SOL    HW138510   2.058   1.038   2.303  0.3721 -1.0851  1.7719
12534SOL    HW238511   2.052   1.180   2.355 -0.9239 -0.4005 -0.1721
12535SOL     OW38512   3.165   5.233   3.532  0.2615 -0.5312 -0.1933
12535SOL    HW138513   3.128   5.321   3.544  2.0630  0.4847 -1.6379
12535SOL    HW238514   3.103   5.189   3.474  0.6016  0.6901 -1.5287
12536SOL     OW38515   1.374   7.545   4.319 -0.2886  0.5450  0.1474
12536SOL    HW138516   1.314   7.507   4.384 -1.5619  0.8386 -0.8206
12536SOL    HW238517   1.323   7.614   4.277  1.1361  1.6145  0.0959
12537SOL     OW38518   7.729   7.468   0.828  0.6637 -0.2100  0.5224
12537SOL    HW138519   7.767   7.380   0.834  1.1185  0.0087  0.8816
12537SOL    HW238520   7.782   7.521   0.887  1.4583  0.6852 -0.9513
12538SOL     OW38521   1.319   4.151   6.937 -0.2091 -0.2355  0.6902
12538SOL    HW138522   1.393   4.193   6.892  0.0059 -0.1537  1.1163
12538SOL    HW238523   1.313   4.065   6.896 -0.7427  0.2474 -0.2900
12539SOL     OW38524   0.258   2.730   2.136  0.2810  0.7524 -0.0052
12539SOL    HW138525   0.170   2.706   2.106 -0.1030  1.9926  0.0951
12539SOL    HW238526   0.258   2.710   2.229  0.3627  0.0653 -0.1436
12540SOL     OW38527   7.052   2.063   4.574 -0.2398 -0.5026  0.1076
12540SOL    HW138528   7.005   2.140   4.544  1.2325  0.8520  1.1034
12540SOL    HW238529   7.128   2.098   4.621  0.3114 -2.5573  0.8614
12541SOL     OW38530   5.943   6.677   0.609 -0.2595  0.3484 -0.7365
12541SOL    HW138531   6.000   6.600   0.614 -1.0044 -0.1533  2.0588
12541SOL    HW238532   6.002   6.752   0.620  0.0398 -0.1356  1.5122
12542SOL     OW38533   1.484   2.212   3.946  0.1169  0.2089 -0.0652
12542SOL    HW138534   1.422   2.255   4.005 -0.8074  1.3286 -1.7565
12542SOL    HW238535   1.566   2.260   3.958 -0.0239  0.3502  0.3712
12543SOL     OW38536   0.457   2.517   5.202 -0.0533  0.3990 -0.2677
12543SOL    HW138537   0.474   2.513   5.296 -0.3762 -0.7860 -0.2459
12543SOL    HW238538   0.527   2.464   5.163 -2.8395 -3.7332 -0.2454
12544SOL     OW38539   0.789   5.412   4.762 -0.1500  0.1337  0.1651
12544SOL    HW138540   0.803   5.504   4.741  0.4956  0.4848  1.9067
12544SOL    HW238541   0.873   5.370   4.744  0.1110  0.2566  1.0173
12545SOL     OW38542   3.128   4.412   6.970 -0.3605 -0.6503  0.4847
12545SOL    HW138543   3.098   4.432   6.881  2.0417  0.2790 -0.2094
12545SOL    HW238544   3.104   4.320   6.982  0.5719 -1.2687 -1.7720
12546SOL     OW38545   1.600   5.829   3.659 -0.0896  0.3236  0.3820
12546SOL    HW138546   1.566   5.798   3.743 -1.5451 -0.6885 -0.5175
12546SOL    HW238547   1.617   5.922   3.672 -0.1221  0.1407  1.8390
12547SOL     OW38548   1.276   4.678   1.165 -0.0286  1.0012 -0.0557
12547SOL    HW138549   1.269   4.583   1.152 -1.0227  1.1692 -0.8404
12547SOL    HW238550   1.365   4.699   1.138  0.1573  0.3154  0.0019
12548SOL     OW38551   1.847   0.978   5.958  0.6175  0.0213 -0.5105
12548SOL    HW138552   1.935   0.945   5.945  0.6803 -1.2405  2.3988
12548SOL    HW238553   1.790   0.901   5.947  0.0888  0.3873 -0.3929
12549SOL     OW38554   4.153   5.792   3.723  0.5704  0.4191  0.2964
12549SOL    HW138555   4.142   5.722   3.659  0.7078 -0.2961  1.0437
12549SOL    HW238556   4.241   5.825   3.707 -0.0420  1.4956 -1.0883
12550SOL     OW38557   7.116   4.283   2.454  0.1209  0.4854 -0.2376
12550SOL    HW138558   7.091   4.372   2.475  0.2958  0.1249  1.6251
12550SOL    HW238559   7.212   4.284   2.454  0.1258  0.3560 -0.5288
12551SOL     OW38560   1.073   6.544   3.055  0.0085  0.2926  0.0750
12551SOL    HW138561   1.168   6.540   3.040  0.1710 -0.0245  1.1023
12551SOL    HW238562   1.035   6.538   2.968  0.9573  1.2768 -0.4290
12552SOL     OW38563   7.214   4.541   0.936  0.4504 -0.1398  0.2040
12552SOL    HW138564   7.161   4.501   1.005 -1.2603 -0.4050 -1.1743
12552SOL    HW238565   7.218   4.474   0.868  1.1398  0.5207 -0.4222
12553SOL     OW38566   5.414   2.895   0.240 -0.1106  0.4302 -0.0942
12553SOL    HW138567   5.481   2.962   0.251  0.1534  0.2047 -0.2749
12553SOL    HW238568   5.363   2.924   0.164 -1.5000  1.6316  1.2419
12554SOL     OW38569   5.873   4.516   0.276 -0.1323  0.0962 -0.0807
12554SOL    HW138570   5.947   4.458   0.259 -0.0740  0.4422 -1.0737
12554SOL    HW238571   5.865   4.570   0.197  0.0885  1.7443  0.9653
12555SOL     OW38572   7.698   1.256   0.268  0.1272  0.1864 -0.1620
12555SOL    HW138573   7.640   1.320   0.309  0.1417 -0.4853  0.9294
12555SOL    HW238574   7.710   1.289   0.179 -2.0744  0.2590 -0.4916
12556SOL     OW38575   6.036   7.235   1.530  0.9138  0.2647  0.1068
12556SOL    HW138576   6.064   7.154   1.488  3.1586  0.9796  0.1140
12556SOL    HW238577   6.047   7.218   1.624 -2.2785 -0.6663  0.4364
12557SOL     OW38578   5.661   4.185   3.686  0.1502 -0.4715  0.1211
12557SOL    HW138579   5.651   4.179   3.781 -1.8795 -0.7364 -0.0467
12557SOL    HW238580   5.596   4.251   3.660 -2.2010 -3.1753 -1.4109
12558SOL     OW38581   4.729   0.560   5.608 -0.0834 -0.4692  0.5938
12558SOL    HW138582   4.711   0.467   5.607 -0.6208 -0.3943  1.6220
12558SOL    HW238583   4.693   0.591   5.691 -1.8449  1.0398 -0.6325
12559SOL     OW38584   2.960   2.782   3.015  0.0050 -0.6585 -0.1808
12559SOL    HW138585   3.004   2.864   2.994 -0.5943 -0.0990  0.6808
12559SOL    HW238586   2.880   2.808   3.059 -0.0385 -1.7130  0.4090
12560SOL     OW38587   6.011   4.020   2.416  0.1363 -0.4089  0.2940
12560SOL    HW138588   6.089   4.075   2.430 -1.2508  1.4901  0.9790
12560SOL    HW238589   6.046   3.933   2.400  2.5635  0.8305 -2.0923
12561SOL     OW38590   5.369   2.717   3.172 -0.3155  0.2366 -0.2811
12561SOL    HW138591   5.298   2.673   3.125 -2.1532 -0.5406  2.9055
12561SOL    HW238592   5.444   2.659   3.162 -1.8888 -2.2949  1.3372
12562SOL     OW38593   1.942   2.578   1.748 -0.0413 -0.0398 -0.3982
12562SOL    HW138594   2.033   2.599   1.726 -0.1080  3.2477  1.8311
12562SOL    HW238595   1.945   2.552   1.840 -1.3211 -0.3251 -0.4121
12563SOL     OW38596   4.320   6.201   4.647  0.1312  0.2920 -0.1555
12563SOL    HW138597   4.241   6.146   4.641 -1.5592  2.5026  0.4317
12563SOL    HW238598   4.332   6.235   4.559 -0.0474  0.5739 -0.0714
12564SOL     OW38599   5.901   5.280   2.210 -0.1103 -0.0862  0.6080
12564SOL    HW138600   5.870   5.256   2.298 -2.2517  0.7112  0.1359
12564SOL    HW238601   5.852   5.223   2.151 -1.2384  1.6456 -0.2126
12565SOL     OW38602   2.733   6.252   5.171  0.4672 -0.0253  0.0119
12565SOL    HW138603   2.706   6.166   5.138 -0.5983  0.0366  0.6732
12565SOL    HW238604   2.751   6.303   5.092  1.5163 -0.9596 -0.3882
12566SOL     OW38605   1.738   3.342   5.521 -0.3667 -0.3345 -0.1150
12566SOL    HW138606   1.701   3.426   5.494 -1.9712 -0.4314  1.5446
12566SOL    HW238607   1.827   3.343   5.487 -1.3054  0.6889 -2.7922
12567SOL     OW38608   4.761   7.683   6.147 -0.0955  0.2205  0.3046
12567SOL    HW138609   4.741   7.774   6.167  0.6541  0.7189 -1.1378
12567SOL    HW238610   4.772   7.680   6.052 -0.6418 -1.4826  0.2543
12568SOL     OW38611   2.125   6.330   7.169  0.1216  0.1883  0.0423
12568SOL    HW138612   2.158   6.419   7.159  0.7617  0.1805  1.8149
12568SOL    HW238613   2.106   6.302   7.079 -3.3734  3.2982 -0.4632
12569SOL     OW38614   4.823   2.527   4.391  0.0703  0.4236 -0.2320
12569SOL    HW138615   4.795   2.490   4.475  0.6008  1.8083  0.5914
12569SOL    HW238616   4.777   2.610   4.385  0.0494  0.3419 -1.3276
12570SOL     OW38617   1.982   6.390   2.398 -0.4338  0.2180  0.5415
12570SOL    HW138618   2.066   6.423   2.368  0.2898 -1.8334  0.1923
12570SOL    HW238619   1.967   6.311   2.347 -1.3369 -0.8843  2.4002
12571SOL     OW38620   2.647   7.603   3.498 -0.2644  0.6728  0.4374
12571SOL    HW138621   2.584   7.542   3.460  0.6410 -0.1614  0.2219
12571SOL    HW238622   2.636   7.683   3.447 -0.3650  0.1676 -0.3587
12572SOL     OW38623   4.473   0.811   3.069  0.2744 -0.5316  1.1720
12572SOL    HW138624   4.548   0.781   3.120 -0.4018  0.3144  2.7419
12572SOL    HW238625   4.485   0.905   3.061 -0.6559 -0.3693  1.5308
12573SOL     OW38626   4.869   4.235   1.589 -0.1238 -0.8708  0.4871
12573SOL    HW138627   4.852   4.179   1.665 -0.5094  0.6631  1.5985
12573SOL    HW238628   4.864   4.176   1.514  0.9867 -2.5827  1.6765
12574SOL     OW38629   0.841   0.506   2.868 -0.6812  0.6310  0.6330
12574SOL    HW138630   0.764   0.504   2.812  0.0543  0.3887 -0.3985
12574SOL    HW238631   0.876   0.595   2.858  0.3409  0.1184 -0.5626
12575SOL     OW38632   4.991   4.523   2.803  0.2169 -0.3898  0.1766
12575SOL    HW138633   4.970   4.517   2.896  1.2172 -0.1980  0.4324
12575SOL    HW238634   5.012   4.433   2.778 -0.1077 -0.4506  0.1230
12576SOL     OW38635   3.685   2.147   5.410  0.7643  0.3964 -0.5137
12576SOL    HW138636   3.767   2.153   5.361  0.7107 -0.1538 -0.6758
12576SOL    HW238637   3.638   2.228   5.390  1.2941  0.7416 -0.3687
12577SOL     OW38638   3.526   1.798   7.589 -0.5320  0.7946  0.7975
12577SOL    HW138639   3.533   1.798   7.684 -0.3353  3.9872  0.8785
12577SOL    HW238640   3.432   1.793   7.571 -0.6162  1.0695  1.1701
12578SOL     OW38641   5.320   5.293   1.903  0.2518 -0.2018 -0.3500
12578SOL    HW138642   5.287   5.382   1.917  1.7499  0.5191 -1.1846
12578SOL    HW238643   5.391   5.303   1.840 -0.3281 -2.1667 -1.3963
12579SOL     OW38644   2.865   0.479   0.578  0.3288 -0.7630  0.3052
12579SOL    HW138645   2.812   0.441   0.508 -0.4593  0.5711  0.1333
12579SOL    HW238646   2.954   0.480   0.543 -0.0682 -0.0141 -0.7438
12580SOL     OW38647   4.011   5.443   3.871 -0.1322  0.6536  0.3180
12580SOL    HW138648   4.039   5.361   3.911 -2.7260 -1.1606 -1.3122
12580SOL    HW238649   3.961   5.488   3.939 -1.5013 -0.7346  0.2810
12581SOL     OW38650   6.133   4.057   1.031 -0.5566  0.8235  0.0367
12581SOL    HW138651   6.134   3.988   0.964  0.0002  0.9478 -0.0875
12581SOL    HW238652   6.075   4.124   0.996 -0.7795  0.5990 -0.0268
12582SOL     OW38653   7.632   4.937   0.176 -0.3041  0.2582 -0.7259
12582SOL    HW138654   7.665   4.848   0.192 -0.5976  0.5371  1.8293
12582SOL    HW238655   7.705   4.994   0.200 -0.8713  0.7568 -0.1841
12583SOL     OW38656   0.345   5.578   7.487 -0.1486 -0.0596  0.5673
12583SOL    HW138657   0.365   5.573   7.581 -0.6707  0.4229  0.7059
12583SOL    HW238658   0.297   5.497   7.469  0.2612 -0.3213  0.6368
12584SOL     OW38659   1.633   5.493   1.135 -0.0996  0.3164  0.3575
12584SOL    HW138660   1.591   5.407   1.143 -0.2853  0.3592 -0.1488
12584SOL    HW238661   1.722   5.473   1.105  0.3811  0.2003  1.7983
12585SOL     OW38662   4.530   3.416   2.482 -0.4872  0.0957  0.1028
12585SOL    HW138663   4.493   3.468   2.410  1.5593  0.2277 -0.9348
12585SOL    HW238664   4.553   3.480   2.549 -2.1852 -0.0043  0.8392
12586SOL     OW38665   2.145   2.637   6.177 -0.1646 -0.5846 -0.1407
12586SOL    HW138666   2.127   2.620   6.270  2.0559 -2.8191 -0.0079
12586SOL    HW238667   2.234   2.673   6.176  0.2617 -1.6176 -1.4373
12587SOL     OW38668   5.238   5.456   7.701 -0.2185  0.2973 -0.1540
12587SOL    HW138669   5.146   5.482   7.694 -0.6533  0.0191  2.9039
12587SOL    HW238670   5.287   5.535   7.679 -1.2104  0.8187 -0.5858
12588SOL     OW38671   2.340   0.058   6.416  0.3260 -0.0328 -0.1455
12588SOL    HW138672   2.334   0.059   6.512  1.3824  0.8834 -0.0804
12588SOL    HW238673   2.416   0.003   6.397  0.2926  0.0246 -0.4497
12589SOL     OW38674   4.273   3.235   7.187 -0.2834  0.0562 -0.8787
12589SOL    HW138675   4.288   3.302   7.253  1.5959 -1.6042  0.4846
12589SOL    HW238676   4.317   3.267   7.109  1.7430 -0.1200  0.1424
12590SOL     OW38677   0.605   4.568   6.103 -0.0343 -0.0110  0.0959
12590SOL    HW138678   0.625   4.502   6.037 -0.9327  0.2334 -0.4390
12590SOL    HW238679   0.602   4.520   6.185 -0.2101 -0.5575 -0.2245
12591SOL     OW38680   5.194   7.458   6.051 -0.1877 -0.4207 -0.7978
12591SOL    HW138681   5.165   7.375   6.089  0.7484 -0.2900  0.2484
12591SOL    HW238682   5.287   7.444   6.032 -0.3451 -0.0614 -1.9466
12592SOL     OW38683   3.940   5.298   2.072 -0.0379 -0.1452 -0.1824
12592SOL    HW138684   3.960   5.310   1.979 -0.9536 -0.8435 -0.4859
12592SOL    HW238685   3.844   5.294   2.075 -0.1634  1.9489  1.0495
12593SOL     OW38686   0.373   5.414   2.984  0.3961  0.5815 -0.0215
12593SOL    HW138687   0.378   5.373   2.898  1.3073 -0.6787  0.6094
12593SOL    HW238688   0.289   5.461   2.983  0.2191  0.2834 -1.4447
12594SOL     OW38689   2.538   0.886   1.663 -0.2020 -0.5516  0.2080
12594SOL    HW138690   2.497   0.800   1.670 -0.2264 -0.7737 -1.9983
12594SOL    HW238691   2.527   0.911   1.571  0.0527  1.6991  0.7202
12595SOL     OW38692   1.545   4.928   1.529 -0.4359 -0.1816  1.0751
12595SOL    HW138693   1.551   5.014   1.488 -2.4379 -0.1949  0.6561
12595SOL    HW238694   1.614   4.876   1.488 -1.1901  0.3494 -0.9429
12596SOL     OW38695   5.612   7.366   7.342 -0.1268 -0.0115  0.2036
12596SOL    HW138696   5.621   7.322   7.258  0.5354  0.1051  0.2050
12596SOL    HW238697   5.701   7.370   7.377  0.0285  2.1762 -0.2459
12597SOL     OW38698   1.564   6.428   3.790  0.2855 -0.1370 -0.0278
12597SOL    HW138699   1.615   6.507   3.809 -1.5341  0.8869  0.9147
12597SOL    HW238700   1.629   6.360   3.776  1.9163  1.4038 -0.3231
12598SOL     OW38701   1.413   7.691   5.045  0.0904  0.2105 -0.3874
12598SOL    HW138702   1.343   7.637   5.010  0.5561  1.0942 -2.8927
12598SOL    HW238703   1.449   7.640   5.118  0.3893 -2.8291 -2.4678
12599SOL     OW38704   6.894   3.153   3.316 -0.4152  0.6196 -0.1310
12599SOL    HW138705   6.871   3.236   3.357 -2.2490  0.7096 -1.2397
12599SOL    HW238706   6.841   3.150   3.237  0.8730 -0.8603 -0.9906
12600SOL     OW38707   0.909   5.582   5.895  0.4729 -0.1530  0.2757
12600SOL    HW138708   0.932   5.556   5.984  2.8005 -0.3149 -0.3203
12600SOL    HW238709   0.984   5.555   5.842  0.0333  1.7731 -1.4317
12601SOL     OW38710   7.042   5.671   6.482 -0.3186  0.0097 -0.2035
12601SOL    HW138711   7.039   5.716   6.398 -0.4183  1.0429  0.3390
12601SOL    HW238712   6.951   5.662   6.508 -0.2400  1.2096  0.5651
12602SOL     OW38713   0.199   0.598   3.121  0.2602 -0.3410  0.1038
12602SOL    HW138714   0.177   0.586   3.213 -3.3731 -0.7018 -0.6775
12602SOL    HW238715   0.209   0.693   3.111 -0.7309 -0.1661  0.6359
12603SOL     OW38716   3.573   5.227   6.016 -0.2760  0.5929 -0.6171
12603SOL    HW138717   3.608   5.138   6.008  0.8818  1.0091 -0.4637
12603SOL    HW238718   3.651   5.283   6.018 -0.9801  1.6068 -0.6144
12604SOL     OW38719   1.004   0.820   3.072  0.9763 -0.4196 -0.0729
12604SOL    HW138720   0.915   0.840   3.100  0.4612 -0.5252 -1.5779
12604SOL    HW238721   1.043   0.777   3.148  0.1043  0.5713  0.9848
12605SOL     OW38722   6.471   1.578   7.094 -0.1056  0.0222  0.2177
12605SOL    HW138723   6.388   1.613   7.126 -0.0774 -0.5107  0.8984
12605SOL    HW238724   6.526   1.655   7.081 -0.8390  0.4168 -0.6496
12606SOL     OW38725   4.778   5.058   7.419  0.9796 -0.0356  0.1908
12606SOL    HW138726   4.755   5.009   7.498  0.1428  1.8803  1.2011
12606SOL    HW238727   4.746   5.004   7.347  1.0277 -1.4423  1.1805
12607SOL     OW38728   7.285   1.299   0.981  0.2299 -0.6140  0.5892
12607SOL    HW138729   7.313   1.261   1.065  2.5088 -0.5112 -0.0524
12607SOL    HW238730   7.309   1.392   0.989 -0.8677 -0.2966  0.3364
12608SOL     OW38731   6.278   0.619   3.144  0.2290  0.0633  0.6632
12608SOL    HW138732   6.335   0.681   3.189 -0.8065  1.0343  0.6695
12608SOL    HW238733   6.309   0.619   3.054  2.9840 -2.6485  1.4036
12609SOL     OW38734   3.931   7.474   0.208  0.5673 -0.1600 -0.4593
12609SOL    HW138735   3.876   7.480   0.130  1.5105  0.1270 -1.1287
12609SOL    HW238736   3.961   7.564   0.223 -0.0548 -0.1122  0.5790
12610SOL     OW38737   0.538   7.487   2.238  0.1606 -0.2301  0.2731
12610SOL    HW138738   0.522   7.398   2.208  0.7597 -0.1164 -0.4070
12610SOL    HW238739   0.545   7.479   2.333  1.4900 -1.1247  0.1326
12611SOL     OW38740   6.675   4.120   4.701 -0.5492  0.2133 -0.4786
12611SOL    HW138741   6.733   4.132   4.776  1.4200 -1.5784 -1.6100
12611SOL    HW238742   6.587   4.112   4.739  0.3027  0.0359  1.5579
12612SOL     OW38743   5.653   2.461   4.738  0.6114 -0.5274 -0.7553
12612SOL    HW138744   5.626   2.530   4.800 -0.8013 -0.0692 -1.8280
12612SOL    HW238745   5.742   2.439   4.765  1.5230  2.4396 -0.9578
12613SOL     OW38746   7.238   2.345   0.284 -0.7538  0.1339 -0.5447
12613SOL    HW138747   7.193   2.415   0.238  0.4875  1.3201 -0.0080
12613SOL    HW238748   7.221   2.361   0.377 -0.2147 -0.0791 -0.4027
12614SOL     OW38749   7.004   2.209   5.581 -0.2925  0.0429 -0.2221
12614SOL    HW138750   6.971   2.281   5.527  0.6609  1.1073  0.5574
12614SOL    HW238751   7.096   2.229   5.594  0.3786 -2.0973 -1.1613
12615SOL     OW38752   6.937   2.375   1.039  0.2780  0.2144  0.1905
12615SOL    HW138753   6.845   2.398   1.050  0.2302  0.7162 -1.0970
12615SOL    HW238754   6.954   2.312   1.109  0.2230  3.5253  3.5100
12616SOL     OW38755   5.724   7.327   4.459  0.7187  0.1835  0.2628
12616SOL    HW138756   5.668   7.251   4.450  0.2055  0.4247  1.2309
12616SOL    HW238757   5.664   7.401   4.470  1.2053  0.4786  1.0812
12617SOL     OW38758   6.954   5.778   5.666  0.2065  0.2762  0.2694
12617SOL    HW138759   6.882   5.798   5.606  0.1423  1.5220  0.7195
12617SOL    HW238760   6.922   5.807   5.752  1.5849  1.8119  0.3215
12618SOL     OW38761   5.046   3.678   0.997  0.0935  0.0880 -0.0429
12618SOL    HW138762   5.130   3.676   0.950  0.6632  2.7054  0.6926
12618SOL    HW238763   5.071   3.673   1.090 -0.4529  1.7988  0.2238
12619SOL     OW38764   0.791   5.586   1.322 -0.6952  0.5295 -0.3180
12619SOL    HW138765   0.835   5.657   1.367 -2.1916  0.6525  1.0492
12619SOL    HW238766   0.706   5.578   1.366 -1.7619 -0.1470 -2.3576
12620SOL     OW38767   2.904   4.981   5.891 -0.1278  0.5990  0.2729
12620SOL    HW138768   2.895   4.920   5.818 -1.3883  0.9374  0.1140
12620SOL    HW238769   2.884   4.928   5.968 -0.3035  0.5894  0.2225
12621SOL     OW38770   2.333   6.083   2.809  0.2098  0.0336  0.0436
12621SOL    HW138771   2.330   6.078   2.904  0.8458  1.0220  0.1361
12621SOL    HW238772   2.363   6.172   2.791  0.0385 -0.1185 -1.0843
12622SOL     OW38773   6.487   4.862   1.170 -0.1594  0.5813  0.2514
12622SOL    HW138774   6.535   4.899   1.244  1.0115  1.1874 -0.7774
12622SOL    HW238775   6.507   4.768   1.173  1.6536  0.9047 -0.5161
12623SOL     OW38776   2.764   5.730   6.564 -0.7584 -0.8199 -0.2829
12623SOL    HW138777   2.721   5.744   6.648 -0.1166 -1.4439  0.1540
12623SOL    HW238778   2.692   5.720   6.502 -1.2601  1.2150 -0.1037
12624SOL     OW38779   6.345   3.840   4.649 -0.5493  0.2669 -0.6260
12624SOL    HW138780   6.425   3.790   4.634  0.8500  1.2904  2.5177
12624SOL    HW238781   6.290   3.782   4.703 -1.8475 -0.2671 -2.4126
12625SOL     OW38782   0.175   0.020   4.505  0.5191 -0.3261 -0.1951
12625SOL    HW138783   0.130   0.068   4.436 -0.3697  1.3368  1.4474
12625SOL    HW238784   0.214   0.088   4.560  0.2838 -1.5176  1.5266
12626SOL     OW38785   6.191   5.196   4.215  0.1769  0.3179 -0.4113
12626SOL    HW138786   6.191   5.233   4.126  1.2790 -0.1574 -0.6226
12626SOL    HW238787   6.271   5.229   4.255  1.8350 -2.6344 -0.9903
12627SOL     OW38788   5.577   2.278   7.720  1.0849  0.0353  0.2131
12627SOL    HW138789   5.639   2.338   7.761 -1.5008  1.5566  2.1951
12627SOL    HW238790   5.546   2.222   7.792  0.0931 -0.6221 -0.6883
12628SOL     OW38791   1.645   5.771   4.496  0.3597  0.0454 -0.0503
12628SOL    HW138792   1.728   5.792   4.539 -1.2232 -0.3504  3.5147
12628SOL    HW238793   1.614   5.692   4.540 -1.8255  0.0207 -1.4808
12629SOL     OW38794   0.099   3.071   6.767 -0.4557  0.4121 -0.1643
12629SOL    HW138795   0.008   3.092   6.747 -0.1651  1.4763 -0.4512
12629SOL    HW238796   0.121   3.129   6.841  0.3466  1.0748 -0.9047
12630SOL     OW38797   2.382   4.667   7.465 -0.1557 -0.2665  0.1824
12630SOL    HW138798   2.340   4.630   7.543 -1.2530  1.4347  0.4469
12630SOL    HW238799   2.311   4.707   7.415  0.8036  0.4371 -0.6810
12631SOL     OW38800   6.181   6.214   1.670 -0.1912  0.8521  0.1291
12631SOL    HW138801   6.189   6.287   1.731  2.5166  1.6142 -1.0337
12631SOL    HW238802   6.247   6.230   1.604 -1.1374 -1.4398 -1.4922
12632SOL     OW38803   0.187   5.204   3.471 -0.2974  1.0005  0.1162
12632SOL    HW138804   0.273   5.245   3.457 -0.5188  1.2997 -0.3920
12632SOL    HW238805   0.188   5.177   3.562  0.7855 -0.0435 -0.1796
12633SOL     OW38806   6.022   3.479   6.204 -0.2281 -0.1740  0.5358
12633SOL    HW138807   6.110   3.457   6.172 -0.5082  0.1756 -0.5425
12633SOL    HW238808   6.033   3.494   6.297  0.6580 -1.1728  0.6090
12634SOL     OW38809   4.103   3.635   0.673 -0.1292  0.2040 -0.2902
12634SOL    HW138810   4.151   3.713   0.700  0.7923  0.0575 -1.4124
12634SOL    HW238811   4.060   3.604   0.752  3.0773 -0.6956  1.2871
12635SOL     OW38812   0.477   6.729   6.001  0.9169 -0.5009  0.3702
12635SOL    HW138813   0.383   6.719   6.013  0.7668 -1.7220 -1.4661
12635SOL    HW238814   0.494   6.821   6.020 -0.9235  0.1431 -0.8474
12636SOL     OW38815   2.742   7.560   2.745  0.0440 -0.0577  0.1108
12636SOL    HW138816   2.677   7.572   2.675  1.9519 -0.8438 -1.9195
12636SOL    HW238817   2.797   7.638   2.741  1.3012 -0.9438 -0.5962
12637SOL     OW38818   5.077   5.121   3.917  0.1650 -0.4694 -0.0122
12637SOL    HW138819   5.096   5.181   3.989 -1.8125 -0.8812  0.9068
12637SOL    HW238820   5.142   5.051   3.927  0.6408  0.0465  0.6547
12638SOL     OW38821   0.928   1.221   6.607 -0.3554 -0.1480  0.0878
12638SOL    HW138822   0.915   1.297   6.551 -0.5167 -0.4152 -0.2419
12638SOL    HW238823   0.914   1.253   6.696  0.2863  0.3712  0.0123
12639SOL     OW38824   4.999   3.292   6.140  0.2048  0.9280  0.1376
12639SOL    HW138825   4.946   3.251   6.072  1.7865 -0.7873 -0.1390
12639SOL    HW238826   5.044   3.364   6.096  0.3819  0.5030 -0.3855
12640SOL     OW38827   5.748   2.070   7.235 -0.0419  0.1264 -0.6677
12640SOL    HW138828   5.841   2.052   7.244 -0.0483  0.9636  2.4354
12640SOL    HW238829   5.733   2.145   7.292 -2.3268  1.2182 -2.5482
12641SOL     OW38830   2.429   5.043   4.727 -0.1687  0.6329 -0.4728
12641SOL    HW138831   2.408   4.953   4.753  1.9483 -0.2827 -1.6673
12641SOL    HW238832   2.457   5.086   4.807  0.5812 -0.3562 -0.1833
12642SOL     OW38833   3.574   7.014   6.284  0.3271  0.5131 -0.3451
12642SOL    HW138834   3.632   7.078   6.324  0.4176  0.6044 -0.6207
12642SOL    HW238835   3.628   6.936   6.272  1.2389  1.4622 -3.1797
12643SOL     OW38836   6.927   7.156   3.043  0.0056  0.3833  0.1338
12643SOL    HW138837   6.903   7.087   2.981  1.7266  0.0078 -0.1500
12643SOL    HW238838   6.906   7.121   3.129  4.0162 -2.0739  0.3559
12644SOL     OW38839   2.122   5.797   6.292  0.0579  0.5302 -0.4837
12644SOL    HW138840   2.205   5.843   6.309  0.3222 -0.1877  0.2522
12644SOL    HW238841   2.119   5.729   6.359 -0.4882 -0.3091 -1.3445
12645SOL     OW38842   2.059   7.252   3.955 -0.1142  0.0241 -0.2170
12645SOL    HW138843   1.973   7.277   3.922  0.8356  0.4061 -2.6501
12645SOL    HW238844   2.061   7.157   3.950 -0.7170 -0.0472  0.7757
12646SOL     OW38845   2.648   0.472   4.204  0.2532  0.0462 -0.2983
12646SOL    HW138846   2.628   0.560   4.173  0.5171 -0.1254 -0.9668
12646SOL    HW238847   2.565   0.439   4.238 -0.3409 -0.1910 -1.8979
12647SOL     OW38848   5.216   1.744   4.519  0.1700  0.0430  0.2129
12647SOL    HW138849   5.297   1.740   4.468 -1.0259  2.6802 -2.1579
12647SOL    HW238850   5.165   1.668   4.489  0.0252  0.8270 -1.6807
12648SOL     OW38851   2.456   4.285   5.487 -0.3304  0.0180  0.1944
12648SOL    HW138852   2.489   4.357   5.541  0.4149 -0.8213  0.8866
12648SOL    HW238853   2.495   4.300   5.401 -0.4016  0.5899  0.2570
12649SOL     OW38854   4.737   3.104   0.593 -0.4007  0.3073 -0.6181
12649SOL    HW138855   4.811   3.056   0.631 -0.1664  0.7097 -0.5579
12649SOL    HW238856   4.753   3.195   0.617 -0.8135  0.4250 -0.7780
12650SOL     OW38857   4.881   1.025   5.684 -0.3126  0.8916  0.0370
12650SOL    HW138858   4.858   0.982   5.766 -0.1397  1.3424  0.3209
12650SOL    HW238859   4.867   0.957   5.617  0.1986  0.3105  0.5063
12651SOL     OW38860   3.922   0.519   5.136 -0.2604  0.2009  0.0823
12651SOL    HW138861   3.875   0.445   5.174 -1.4249  0.0913 -1.4782
12651SOL    HW238862   4.014   0.494   5.141 -0.5492 -0.8097  0.6662
12652SOL     OW38863   1.795   0.295   1.799 -0.3253  0.3030 -0.1030
12652SOL    HW138864   1.810   0.267   1.709  0.2297  0.6244 -0.1170
12652SOL    HW238865   1.872   0.347   1.821  0.4352 -1.2787  1.1886
12653SOL     OW38866   2.079   2.291   3.166 -0.1542 -0.5703  0.0528
12653SOL    HW138867   2.160   2.320   3.124 -0.2670 -0.1055  0.1538
12653SOL    HW238868   2.047   2.220   3.110 -0.6853  0.5146 -1.0683
12654SOL     OW38869   7.082   5.257   4.837  0.1061  0.6126  0.3731
12654SOL    HW138870   7.120   5.325   4.893  0.6452 -0.8219  1.7984
12654SOL    HW238871   7.000   5.234   4.880  0.8409 -0.9694  0.9950
12655SOL     OW38872   5.109   1.129   1.383 -0.2760  0.3974 -0.9487
12655SOL    HW138873   5.118   1.112   1.477  1.4096  0.8868 -0.9793
12655SOL    HW238874   5.145   1.217   1.371 -0.1567  0.2107 -2.0913
12656SOL     OW38875   4.366   6.258   4.325 -0.5740 -0.5077  0.3387
12656SOL    HW138876   4.276   6.225   4.326 -0.4110 -0.9695  0.8105
12656SOL    HW238877   4.389   6.264   4.232 -0.8426 -1.1121  0.2232
12657SOL     OW38878   6.870   0.944   5.090  0.4714 -0.0097 -0.0459
12657SOL    HW138879   6.957   0.943   5.130  0.7633 -0.6539 -0.6681
12657SOL    HW238880   6.815   0.992   5.152  0.6653 -1.8435  1.6654
12658SOL     OW38881   1.378   3.718   3.943 -0.5814  0.0644  0.2950
12658SOL    HW138882   1.467   3.716   3.909 -0.9808  2.0330 -1.0522
12658SOL    HW238883   1.335   3.643   3.902 -0.4196  1.0679 -1.8391
12659SOL     OW38884   4.797   1.583   1.778 -1.1550  0.1671 -0.4437
12659SOL    HW138885   4.805   1.507   1.837 -1.6475  0.8361  0.5124
12659SOL    HW238886   4.789   1.658   1.837  2.0173  1.3272 -1.2809
12660SOL     OW38887   1.632   2.227   2.926  0.0859  0.3495  0.2548
12660SOL    HW138888   1.677   2.311   2.936 -0.4454  0.4712  1.9631
12660SOL    HW238889   1.539   2.250   2.924 -0.1267 -0.2236  1.8094
12661SOL     OW38890   1.410   3.091   5.936  0.8316 -0.4760  0.0499
12661SOL    HW138891   1.506   3.099   5.943  0.7312  0.2718  0.7380
12661SOL    HW238892   1.384   3.167   5.883  0.4586  0.4120  1.4323
12662SOL     OW38893   4.422   3.896   7.593 -0.0075  0.3407  0.1679
12662SOL    HW138894   4.394   3.838   7.523  0.6389 -0.6560  0.7211
12662SOL    HW238895   4.509   3.925   7.567 -0.1433  0.7185  0.1174
12663SOL     OW38896   1.141   2.936   5.587 -0.0666  0.4392 -1.0274
12663SOL    HW138897   1.218   2.991   5.572  1.7463 -1.8079 -0.5379
12663SOL    HW238898   1.113   2.909   5.500 -0.3553  1.3027 -1.2112
12664SOL     OW38899   6.835   2.282   4.164  0.0148  0.1363  0.1041
12664SOL    HW138900   6.880   2.268   4.248 -0.3374 -2.7553 -0.0766
12664SOL    HW238901   6.747   2.312   4.189 -0.1998 -1.0221  0.8542
12665SOL     OW38902   6.677   7.071   7.148  0.3964 -0.0549  0.3486
12665SOL    HW138903   6.591   7.113   7.154  0.4365  0.1762 -0.4760
12665SOL    HW238904   6.739   7.144   7.148  0.6111 -0.2308  1.1622
12666SOL     OW38905   3.798   6.844   5.445 -0.3464  0.3907 -0.2666
12666SOL    HW138906   3.712   6.886   5.446 -0.1031  1.0490 -2.1247
12666SOL    HW238907   3.845   6.883   5.519 -1.1750  1.0960 -0.0958
12667SOL     OW38908   1.069   0.213   0.225 -0.2446  0.1403 -0.2036
12667SOL    HW138909   0.990   0.266   0.216  0.3211  0.9747 -0.3823
12667SOL    HW238910   1.136   0.261   0.177  0.2375 -0.8644 -0.5645
12668SOL     OW38911   5.357   7.231   1.145 -0.2745 -1.3138  0.6564
12668SOL    HW138912   5.388   7.148   1.180 -1.1151 -1.9432 -0.0421
12668SOL    HW238913   5.280   7.252   1.198 -0.2995 -1.1873  0.5704
12669SOL     OW38914   6.513   1.883   1.362 -0.0468 -0.3323  0.9889
12669SOL    HW138915   6.595   1.845   1.395 -0.6403 -0.8423  1.9303
12669SOL    HW238916   6.477   1.815   1.305 -0.0082 -0.2704  0.8911
12670SOL     OW38917   0.370   6.926   2.859  0.1488  0.4173  0.0676
12670SOL    HW138918   0.339   6.975   2.935  0.3435  0.0885  0.3629
12670SOL    HW238919   0.437   6.868   2.894 -0.1006 -0.0846 -0.2701
12671SOL     OW38920   2.587   7.318   3.600 -0.3602 -0.6258 -0.0505
12671SOL    HW138921   2.554   7.371   3.528 -1.3186 -1.3031 -0.1285
12671SOL    HW238922   2.547   7.232   3.587 -0.5443 -0.7688  1.2736
12672SOL     OW38923   2.169   7.537   3.816 -0.0491 -0.5182  0.5731
12672SOL    HW138924   2.075   7.523   3.806  0.2241 -2.0490 -0.1910
12672SOL    HW238925   2.179   7.632   3.817 -1.7270 -0.2985  2.1578
12673SOL     OW38926   1.387   2.646   5.881  0.2733 -0.0221 -0.2919
12673SOL    HW138927   1.405   2.652   5.787  1.9858 -0.7515 -0.0401
12673SOL    HW238928   1.359   2.555   5.894  1.8325 -0.4729  0.1456
12674SOL     OW38929   0.208   0.906   4.790  0.5971 -0.3869 -0.5716
12674SOL    HW138930   0.300   0.894   4.766  0.5069 -1.4647 -0.4171
12674SOL    HW238931   0.211   0.966   4.865  1.1101  0.2041 -1.0464
12675SOL     OW38932   6.918   1.414   7.005 -0.0193 -0.1625  0.2678
12675SOL    HW138933   6.878   1.381   6.924  0.0468  2.6708 -1.0564
12675SOL    HW238934   6.939   1.505   6.985 -1.6799  1.2348  4.1053
12676SOL     OW38935   3.633   6.344   7.714 -0.4295 -0.2840  0.5018
12676SOL    HW138936   3.636   6.268   7.656  0.6164  0.1779 -0.0726
12676SOL    HW238937   3.602   6.309   7.798 -3.4878 -0.7087 -0.6872
12677SOL     OW38938   1.527   6.975   7.148  0.4422  0.0471  0.3424
12677SOL    HW138939   1.498   6.895   7.105 -0.3212  1.5794 -2.1945
12677SOL    HW238940   1.580   7.020   7.083 -0.2039  2.1935  1.2226
12678SOL     OW38941   1.967   6.890   7.328 -0.2843 -0.2668 -0.4182
12678SOL    HW138942   1.997   6.903   7.418 -0.4546 -1.2328 -0.2147
12678SOL    HW238943   1.897   6.826   7.335 -1.6545  1.1067 -1.0288
12679SOL     OW38944   6.987   7.434   2.928 -0.6236  0.0771  0.4041
12679SOL    HW138945   7.025   7.396   2.849  1.9267 -0.0698  1.6179
12679SOL    HW238946   6.950   7.359   2.976  0.5221 -0.2823  0.7462
12680SOL     OW38947   7.229   3.019   5.274  0.2919 -0.3495 -0.7881
12680SOL    HW138948   7.142   3.057   5.292  1.4607  1.5800  1.3432
12680SOL    HW238949   7.263   3.071   5.202  0.7154  0.7841  0.1913
12681SOL     OW38950   6.566   3.991   5.691  0.3104  0.2088 -0.4547
12681SOL    HW138951   6.479   3.953   5.682  0.3594 -0.3339  1.2084
12681SOL    HW238952   6.551   4.085   5.701  0.1250  0.5722 -3.2251
12682SOL     OW38953   4.395   5.782   7.374 -0.1504 -0.2081 -0.3257
12682SOL    HW138954   4.356   5.710   7.325 -1.3726 -0.3354  0.8012
12682SOL    HW238955   4.421   5.743   7.458 -2.5524  0.9832  1.0845
12683SOL     OW38956   6.570   5.097   7.261  0.3941 -0.1443  0.1483
12683SOL    HW138957   6.531   5.009   7.266  0.7700 -0.4955 -2.0278
12683SOL    HW238958   6.503   5.155   7.295 -0.6473 -1.0918 -0.2331
12684SOL     OW38959   3.433   4.416   0.826  0.3256  0.0933  0.6017
12684SOL    HW138960   3.492   4.342   0.840 -0.2774 -0.1833  1.8706
12684SOL    HW238961   3.487   4.493   0.840  0.4402 -0.1546  1.5631
12685SOL     OW38962   3.921   7.424   3.184  0.2055  0.1030  0.1775
12685SOL    HW138963   3.851   7.411   3.248 -0.6149  1.9800 -0.2796
12685SOL    HW238964   3.892   7.498   3.131  1.3365 -0.7251 -1.7131
12686SOL     OW38965   6.615   0.372   2.265 -0.2809 -0.1765  0.8437
12686SOL    HW138966   6.520   0.380   2.274 -0.2654  0.1859  0.6812
12686SOL    HW238967   6.648   0.460   2.282  0.1350 -0.5764  2.2941
12687SOL     OW38968   5.764   2.546   2.150 -0.1623 -0.3525 -0.8167
12687SOL    HW138969   5.773   2.626   2.200 -1.5558 -0.4397 -0.3705
12687SOL    HW238970   5.679   2.555   2.106 -1.5704 -2.5962  1.1989
12688SOL     OW38971   7.360   2.830   1.637  0.0392 -0.0058 -0.1497
12688SOL    HW138972   7.342   2.738   1.656 -0.0631  0.1473  0.5062
12688SOL    HW238973   7.441   2.828   1.585  1.0553 -0.3528  1.3914
12689SOL     OW38974   3.281   6.983   6.429  0.1367 -0.4756  0.7901
12689SOL    HW138975   3.287   6.888   6.441  0.5407 -0.4371  0.9163
12689SOL    HW238976   3.272   6.995   6.335 -0.4658 -0.6649  0.8183
12690SOL     OW38977   2.572   4.550   6.434 -0.2735 -0.7304 -0.2648
12690SOL    HW138978   2.513   4.624   6.448  1.5278  0.5915  0.9383
12690SOL    HW238979   2.626   4.577   6.360  1.2287 -0.2000  0.9642
12691SOL     OW38980   5.559   0.943   1.232 -0.0112  0.0248 -0.6137
12691SOL    HW138981   5.580   1.015   1.292  1.2679 -1.3888  0.7013
12691SOL    HW238982   5.463   0.939   1.233 -0.0728  1.1412 -0.0391
12692SOL     OW38983   7.630   1.399   5.268 -0.0309 -0.3753 -0.2095
12692SOL    HW138984   7.569   1.445   5.211  0.5775 -0.3383 -0.8536
12692SOL    HW238985   7.685   1.468   5.306 -0.6635 -0.3658  0.7187
12693SOL     OW38986   0.158   5.883   5.600 -0.4077  0.2212 -0.2408
12693SOL    HW138987   0.163   5.789   5.616  0.3433  0.4449  0.9641
12693SOL    HW238988   0.069   5.907   5.627 -0.5493 -0.1115 -0.4082
12694SOL     OW38989   2.017   0.307   0.712  0.1964  0.2792 -0.2208
12694SOL    HW138990   2.048   0.397   0.704  0.3768  0.0553 -2.5316
12694SOL    HW238991   1.932   0.306   0.670  0.4975 -0.7709 -0.8439
12695SOL     OW38992   5.253   4.023   0.406  0.3495  0.2756  0.4574
12695SOL    HW138993   5.201   4.096   0.371 -0.1692  0.3160  1.3009
12695SOL    HW238994   5.271   3.968   0.329  1.2598  1.5771 -0.3090
12696SOL     OW38995   3.238   6.028   7.177 -0.5185 -0.5725  0.2261
12696SOL    HW138996   3.162   6.009   7.232  0.1416  0.9609  1.7695
12696SOL    HW238997   3.313   6.004   7.231  0.1452 -1.9212 -1.2189
12697SOL     OW38998   4.282   0.419   4.000  0.5391  0.0639 -0.4287
12697SOL    HW138999   4.350   0.474   4.038 -0.9509  1.8295 -0.1744
12697SOL    HW239000   4.206   0.432   4.057 -1.0408  0.9091 -2.5971
12698SOL     OW39001   6.220   1.992   6.350 -0.1195  0.1961  1.1402
12698SOL    HW139002   6.271   1.994   6.269  0.3788  0.4447  1.4551
12698SOL    HW239003   6.281   1.958   6.416 -0.8006 -0.8899  1.2288
12699SOL     OW39004   1.542   3.862   5.478 -0.1386  0.1915  0.3636
12699SOL    HW139005   1.448   3.877   5.493  0.0119  0.9723  0.5542
12699SOL    HW239006   1.556   3.883   5.386 -0.5916 -2.2535 -0.3387
12700SOL     OW39007   6.729   4.551   6.524 -0.1051 -0.3725 -0.2810
12700SOL    HW139008   6.764   4.512   6.604  0.6343  1.1500  0.1750
12700SOL    HW239009   6.752   4.489   6.455 -0.8418 -1.7541  0.6772
12701SOL     OW39010   5.337   1.883   1.443 -0.1742 -0.1737  0.0705
12701SOL    HW139011   5.413   1.863   1.497 -0.1074 -1.6345 -0.5072
12701SOL    HW239012   5.369   1.947   1.379 -0.1074  1.1200  1.3520
12702SOL     OW39013   5.781   6.000   0.821  0.1257  0.1374  0.3407
12702SOL    HW139014   5.739   5.994   0.736  0.2096 -1.9341  0.3944
12702SOL    HW239015   5.821   6.087   0.823 -0.6244  0.5413 -1.3666
12703SOL     OW39016   1.402   4.644   6.334 -0.1758 -0.7031 -0.4068
12703SOL    HW139017   1.391   4.584   6.260  1.1435  0.2316 -1.4125
12703SOL    HW239018   1.457   4.596   6.396  1.5097 -0.2852 -1.5414
12704SOL     OW39019   1.175   1.482   6.255  0.0280 -0.1954 -0.0717
12704SOL    HW139020   1.109   1.443   6.197 -2.4699  2.3665  0.7675
12704SOL    HW239021   1.243   1.515   6.196 -2.1595  1.8322 -1.6678
12705SOL     OW39022   5.342   0.783   3.578  0.2428 -0.1485  0.9397
12705SOL    HW139023   5.425   0.765   3.623 -0.1982 -0.5337  1.6184
12705SOL    HW239024   5.356   0.868   3.535  0.8716 -0.0467  1.3302
12706SOL     OW39025   0.190   3.721   3.012 -0.5164 -0.0115 -0.0446
12706SOL    HW139026   0.250   3.789   3.041 -2.5335  0.8664  2.4166
12706SOL    HW239027   0.143   3.760   2.938 -0.1966  0.4479 -0.0112
12707SOL     OW39028   5.479   1.293   2.576  0.2205 -0.0858 -0.4274
12707SOL    HW139029   5.436   1.314   2.659 -0.7335 -0.4259 -0.8208
12707SOL    HW239030   5.434   1.347   2.511  1.8362  1.1840 -0.5664
12708SOL     OW39031   4.644   3.739   0.223 -0.5558  0.0548  0.1450
12708SOL    HW139032   4.658   3.648   0.249 -1.0723 -0.2917 -0.7627
12708SOL    HW239033   4.719   3.759   0.166 -0.4245  0.2184  0.3703
12709SOL     OW39034   5.493   6.788   4.459 -0.2431  0.4302 -0.0236
12709SOL    HW139035   5.540   6.705   4.463 -1.9875 -0.6379 -0.2646
12709SOL    HW239036   5.455   6.799   4.546 -1.3256  0.1280 -0.4359
12710SOL     OW39037   4.459   6.413   6.474  0.5029 -0.0574 -0.7025
12710SOL    HW139038   4.388   6.477   6.470  0.5006 -0.0660 -0.7982
12710SOL    HW239039   4.429   6.340   6.420  0.2537 -0.3873 -0.1242
12711SOL     OW39040   2.899   6.044   3.487  0.2932 -0.3161 -0.5105
12711SOL    HW139041   2.863   6.047   3.398 -1.2657 -0.8058  0.0710
12711SOL    HW239042   2.852   5.972   3.529 -1.9088  2.3354  1.9110
12712SOL     OW39043   4.358   2.783   2.745 -0.1997 -0.2428  0.4546
12712SOL    HW139044   4.281   2.731   2.720 -1.0758  0.2452  1.9941
12712SOL    HW239045   4.422   2.719   2.774 -0.4513 -0.5992  0.2279
12713SOL     OW39046   1.776   6.227   3.814  0.7110 -0.0725  0.0901
12713SOL    HW139047   1.869   6.248   3.821  0.7169 -0.4624  1.5023
12713SOL    HW239048   1.759   6.168   3.887 -0.5937 -0.2093 -0.2974
12714SOL     OW39049   7.032   3.408   1.923  0.6356  0.5463 -0.0834
12714SOL    HW139050   7.028   3.329   1.977 -0.8774  0.2827 -0.5348
12714SOL    HW239051   7.101   3.390   1.859  1.8550  0.5205  1.1892
12715SOL     OW39052   7.206   0.431   2.133  0.0783  0.1793  0.4206
12715SOL    HW139053   7.250   0.374   2.070 -0.1848 -2.0847  2.1858
12715SOL    HW239054   7.135   0.471   2.083  0.7249 -0.4236 -1.0561
12716SOL     OW39055   6.872   5.931   5.885 -0.7763 -0.4837 -0.2742
12716SOL    HW139056   6.937   5.991   5.923 -0.2496 -0.8035 -0.6606
12716SOL    HW239057   6.797   5.987   5.866 -1.6347 -0.5331  2.5182
12717SOL     OW39058   3.496   0.265   4.444  0.1500  0.2326  0.5155
12717SOL    HW139059   3.492   0.358   4.463 -0.9036 -0.1113  2.2417
12717SOL    HW239060   3.583   0.237   4.473  1.4376  1.0431 -2.2327
12718SOL     OW39061   2.799   0.291   6.859  0.0430  0.3194 -0.2398
12718SOL    HW139062   2.799   0.226   6.788 -0.3935  0.9260 -0.8047
12718SOL    HW239063   2.739   0.255   6.924  1.3786 -0.8461  0.4154
12719SOL     OW39064   2.414   4.275   3.729  0.0557 -0.0912 -0.5322
12719SOL    HW139065   2.487   4.216   3.709  0.4499  0.4930 -0.8674
12719SOL    HW239066   2.337   4.230   3.695  0.4040 -0.2460 -1.1352
12720SOL     OW39067   5.807   6.965   5.426 -0.1362 -0.4879 -0.4722
12720SOL    HW139068   5.873   7.003   5.369  0.6456 -1.6080 -0.3438
12720SOL    HW239069   5.852   6.950   5.509 -1.0376  0.3565  0.2042
12721SOL     OW39070   6.590   4.958   1.406 -0.8831 -0.4334  0.7981
12721SOL    HW139071   6.512   4.954   1.462 -1.0645 -2.3633  0.4776
12721SOL    HW239072   6.650   4.893   1.444 -0.2813 -0.4765 -0.1941
12722SOL     OW39073   6.283   7.516   2.647  0.1581  0.0416 -0.0824
12722SOL    HW139074   6.231   7.441   2.617 -1.5579  1.0343  0.3242
12722SOL    HW239075   6.266   7.584   2.582 -0.6633  1.0258  1.1390
12723SOL     OW39076   0.598   5.799   5.750 -0.4243 -0.4755 -0.2331
12723SOL    HW139077   0.589   5.710   5.717 -1.7585 -0.4543  0.0005
12723SOL    HW239078   0.683   5.828   5.718 -0.2735 -1.5843 -0.9009
12724SOL     OW39079   7.707   5.106   5.433  0.2598 -0.0668  0.1416
12724SOL    HW139080   7.771   5.144   5.373  0.3654  0.6269  0.6713
12724SOL    HW239081   7.632   5.166   5.428 -0.1938 -0.6594 -0.1860
12725SOL     OW39082   4.988   7.126   2.339 -0.1899  0.2634 -0.2893
12725SOL    HW139083   4.943   7.200   2.298  1.4037  1.5526  0.1567
12725SOL    HW239084   5.031   7.164   2.415 -0.4751 -1.4450  0.7806
12726SOL     OW39085   7.226   0.911   2.540  0.2092 -0.0029  0.1995
12726SOL    HW139086   7.257   0.821   2.548  0.7730  0.1398 -0.3272
12726SOL    HW239087   7.143   0.912   2.588 -0.6515 -1.2301 -1.1736
12727SOL     OW39088   5.843   2.514   6.637 -0.1715  0.1717  0.3174
12727SOL    HW139089   5.909   2.514   6.706  1.0349  0.0707 -0.8065
12727SOL    HW239090   5.819   2.606   6.627  1.2851  0.4864 -0.6111
12728SOL     OW39091   1.735   7.365   5.125 -0.4718  0.3217  0.0605
12728SOL    HW139092   1.748   7.456   5.099 -1.2450  0.1539 -0.9466
12728SOL    HW239093   1.725   7.369   5.221 -0.4497  1.2821  0.0332
12729SOL     OW39094   6.782   1.004   0.487 -0.0655  0.2921  0.3667
12729SOL    HW139095   6.857   1.063   0.485  0.4288 -0.2502  1.8266
12729SOL    HW239096   6.808   0.933   0.545 -1.5117 -0.1909  0.4842
12730SOL     OW39097   6.376   2.530   1.708 -0.0836 -0.3606 -0.5146
12730SOL    HW139098   6.382   2.437   1.684  0.2082 -0.0609 -1.6488
12730SOL    HW239099   6.296   2.560   1.665  0.8193  0.3592 -1.7199
12731SOL     OW39100   3.336   1.479   2.314  0.3575  0.1600  0.2547
12731SOL    HW139101   3.310   1.399   2.267  0.1490  0.7019 -0.5801
12731SOL    HW239102   3.339   1.453   2.406  1.2283 -1.0614 -0.0842
12732SOL     OW39103   4.208   4.909   3.624 -0.5157 -0.1714  0.2789
12732SOL    HW139104   4.273   4.976   3.646  0.2588 -1.0797  0.8565
12732SOL    HW239105   4.180   4.930   3.535  1.4482 -0.4231 -0.4446
12733SOL     OW39106   7.413   4.746   3.265 -0.1513  0.2539 -0.1251
12733SOL    HW139107   7.490   4.733   3.320  0.1833 -1.9278 -1.0116
12733SOL    HW239108   7.354   4.675   3.290 -0.2396 -0.4343 -2.1141
12734SOL     OW39109   4.623   4.194   0.740  0.0187 -0.2277  0.0137
12734SOL    HW139110   4.598   4.202   0.648 -1.2525  1.4563  0.4644
12734SOL    HW239111   4.712   4.158   0.737  0.0743 -0.0447 -1.8605
12735SOL     OW39112   3.756   5.538   6.223 -0.1520  0.2806 -0.0904
12735SOL    HW139113   3.708   5.620   6.211  0.4794  0.5657 -0.6996
12735SOL    HW239114   3.760   5.527   6.318 -0.6079  0.7351 -0.0136
12736SOL     OW39115   7.250   2.985   3.233 -0.1595  0.4888 -0.1303
12736SOL    HW139116   7.277   3.042   3.305 -1.5167  3.2581 -1.6740
12736SOL    HW239117   7.158   3.007   3.218 -0.1375 -0.5977 -2.1669
12737SOL     OW39118   6.613   2.343   6.882  0.2351 -0.4752 -0.5473
12737SOL    HW139119   6.590   2.429   6.850 -1.2288 -0.2373  1.0223
12737SOL    HW239120   6.709   2.344   6.889  0.1635  1.6004  0.9160
12738SOL     OW39121   2.977   2.939   5.437  0.2022  0.2117  0.4049
12738SOL    HW139122   2.905   2.880   5.415  0.0292  0.3011  0.7307
12738SOL    HW239123   2.998   2.983   5.354  0.5280 -0.5104  0.0818
12739SOL     OW39124   5.330   6.780   6.232  0.2792  0.0109 -0.1559
12739SOL    HW139125   5.293   6.726   6.302 -1.0301 -1.5517 -1.9634
12739SOL    HW239126   5.409   6.733   6.205  1.0924  0.9065  0.6143
12740SOL     OW39127   1.443   3.074   4.443  0.4553  0.0149  0.3557
12740SOL    HW139128   1.400   3.063   4.528 -0.9628 -0.6416 -0.4046
12740SOL    HW239129   1.374   3.054   4.379  1.4792  0.5280 -0.9499
12741SOL     OW39130   1.515   2.582   6.219 -0.1952  0.2876  0.0913
12741SOL    HW139131   1.520   2.540   6.133  1.1159  0.5765  0.0043
12741SOL    HW239132   1.606   2.590   6.247 -0.6081  0.1829  1.5224
12742SOL     OW39133   2.753   5.798   6.997 -0.0053  0.3603  0.0837
12742SOL    HW139134   2.764   5.891   7.016  0.3023  0.4952 -0.7025
12742SOL    HW239135   2.818   5.779   6.930 -0.2465 -0.3626  0.0381
12743SOL     OW39136   2.263   0.915   1.142  0.0957  0.5040 -0.5495
12743SOL    HW139137   2.358   0.912   1.155 -0.0256 -1.0464  0.2125
12743SOL    HW239138   2.229   0.849   1.202 -1.4590  0.8936 -0.9685
12744SOL     OW39139   0.655   3.826   1.847  0.0722  0.3198  0.1455
12744SOL    HW139140   0.569   3.822   1.887 -0.4625  1.0642 -0.9054
12744SOL    HW239141   0.688   3.913   1.869  0.9365 -0.2553  1.2566
12745SOL     OW39142   1.446   3.928   5.052 -0.4578 -0.2375  0.2760
12745SOL    HW139143   1.532   3.888   5.059 -0.1874  0.3387  0.2789
12745SOL    HW239144   1.441   3.958   4.961 -0.6623 -0.2873  0.2706
12746SOL     OW39145   4.409   5.313   3.073 -0.6401 -0.0399  0.0809
12746SOL    HW139146   4.420   5.266   3.156 -1.5918 -1.6606 -0.6381
12746SOL    HW239147   4.335   5.372   3.089 -1.4431 -1.0249  0.1553
12747SOL     OW39148   3.395   1.756   6.356 -0.4431 -0.1016 -0.2752
12747SOL    HW139149   3.481   1.723   6.383 -0.7505  0.1527  1.0739
12747SOL    HW239150   3.389   1.735   6.262  0.6016 -1.1620 -0.1180
12748SOL     OW39151   0.716   1.719   5.549  0.0317 -0.0897  0.3840
12748SOL    HW139152   0.797   1.685   5.512 -0.4153 -1.8730  0.9617
12748SOL    HW239153   0.740   1.745   5.638  0.0540 -0.2640  0.4290
12749SOL     OW39154   1.366   7.515   7.157  0.2187 -0.2540  0.5698
12749SOL    HW139155   1.411   7.505   7.073  1.0973  0.1487  0.9821
12749SOL    HW239156   1.304   7.442   7.159 -2.1120  1.4882 -1.8264
12750SOL     OW39157   4.919   0.201   3.641  0.3736 -0.1440 -0.3441
12750SOL    HW139158   4.829   0.221   3.668  0.0876 -0.8806 -0.7010
12750SOL    HW239159   4.953   0.283   3.606 -0.0052  0.2577  0.2159
12751SOL     OW39160   1.429   7.580   1.827  0.2975  0.4950 -0.2663
12751SOL    HW139161   1.409   7.499   1.780  0.5912  0.7708 -0.8855
12751SOL    HW239162   1.347   7.604   1.870 -0.0991  0.4572 -0.9929
12752SOL     OW39163   2.681   2.506   3.296 -0.1958 -0.3169 -0.2532
12752SOL    HW139164   2.659   2.544   3.211  1.0676  1.1519  0.0351
12752SOL    HW239165   2.596   2.497   3.340 -0.6974  0.5823 -0.9838
12753SOL     OW39166   6.874   6.097   3.347  0.0877  0.0778  0.2155
12753SOL    HW139167   6.828   6.044   3.282 -1.6988  1.6464  0.1148
12753SOL    HW239168   6.926   6.159   3.296  0.1840  0.0786  0.3132
12754SOL     OW39169   0.134   6.416   1.790 -0.6819 -0.1032  0.0074
12754SOL    HW139170   0.204   6.358   1.822  0.7954  0.8799 -1.2878
12754SOL    HW239171   0.125   6.483   1.857 -0.6962 -0.5013  0.4015
12755SOL     OW39172   3.745   5.523   1.773  0.1117 -0.3115 -1.0594
12755SOL    HW139173   3.710   5.447   1.727  1.1613 -0.2948 -1.9142
12755SOL    HW239174   3.839   5.518   1.760  0.3801  0.0736  0.5423
12756SOL     OW39175   3.661   5.896   4.996  0.3139 -0.2868  0.4324
12756SOL    HW139176   3.681   5.843   5.073 -0.6487 -1.0370  0.1855
12756SOL    HW239177   3.573   5.869   4.970 -0.2522  1.5007  0.3417
12757SOL     OW39178   3.523   0.824   2.501  0.1944 -0.5039 -0.4640
12757SOL    HW139179   3.547   0.757   2.565 -1.7993 -0.5104  0.3593
12757SOL    HW239180   3.606   0.855   2.466  1.2245 -2.3548  0.2190
12758SOL     OW39181   5.930   5.395   0.633  0.4237 -0.4166  0.0689
12758SOL    HW139182   5.882   5.422   0.712  1.4374  1.0331  0.2338
12758SOL    HW239183   5.864   5.394   0.564 -0.6302 -2.3701  1.0283
12759SOL     OW39184   7.490   3.680   6.460 -0.2443 -0.8017  0.3791
12759SOL    HW139185   7.543   3.740   6.408  0.1744 -0.7978  0.8049
12759SOL    HW239186   7.545   3.603   6.472 -0.3296 -0.8004  0.8176
12760SOL     OW39187   0.487   4.236   2.461 -0.1624 -0.2199 -0.2950
12760SOL    HW139188   0.454   4.302   2.399  1.0144  1.7892  1.1041
12760SOL    HW239189   0.454   4.265   2.546  1.1211 -0.9598  0.4744
12761SOL     OW39190   3.728   4.213   6.920  0.2521  0.2822 -0.0310
12761SOL    HW139191   3.774   4.293   6.896 -0.1959  0.5037 -0.1697
12761SOL    HW239192   3.642   4.222   6.879 -0.0902  0.1079  0.6310
12762SOL     OW39193   3.183   3.098   1.228 -0.5038 -0.4876  0.6929
12762SOL    HW139194   3.191   3.054   1.143 -2.3854 -1.1137  0.7932
12762SOL    HW239195   3.264   3.076   1.274  0.0413 -1.0944 -0.5114
12763SOL     OW39196   4.799   4.829   2.733 -0.5058  0.0286 -0.2105
12763SOL    HW139197   4.888   4.794   2.729 -0.2984  0.6696 -2.4384
12763SOL    HW239198   4.810   4.915   2.774 -0.7397 -1.4940  3.3431
12764SOL     OW39199   0.067   0.998   1.440 -0.6167 -0.0056 -0.3229
12764SOL    HW139200   0.153   1.022   1.406  0.8586 -0.3247  2.8883
12764SOL    HW239201   0.011   1.072   1.417  0.5483  0.4018 -2.0786
12765SOL     OW39202   3.623   4.140   3.034  0.4545 -0.2410  0.4274
12765SOL    HW139203   3.603   4.049   3.011 -0.6797 -0.0502  0.5799
12765SOL    HW239204   3.617   4.188   2.952  0.9736 -0.2835  0.3607
12766SOL     OW39205   3.300   2.325   4.444  0.6596 -0.2179 -0.2627
12766SOL    HW139206   3.288   2.316   4.350 -0.0493  1.3876 -0.3517
12766SOL    HW239207   3.374   2.386   4.453 -0.0695  0.6271  0.1839
12767SOL     OW39208   0.519   7.660   4.723  0.3134  0.0777 -0.1362
12767SOL    HW139209   0.482   7.576   4.696  0.3014 -0.4825  1.5302
12767SOL    HW239210   0.574   7.639   4.798  1.8337  1.3037 -0.8591
12768SOL     OW39211   7.593   6.140   1.963 -0.3621 -0.1845  0.0946
12768SOL    HW139212   7.584   6.124   2.057 -0.5002  0.1706  0.1404
12768SOL    HW239213   7.568   6.231   1.951 -0.0335 -0.1364 -0.2428
12769SOL     OW39214   6.807   7.164   7.497 -0.2149  0.3820  0.0074
12769SOL    HW139215   6.843   7.084   7.534  0.5403  1.0160  0.6623
12769SOL    HW239216   6.716   7.166   7.527 -0.1117 -0.0096  0.3426
12770SOL     OW39217   6.412   3.341   0.986  0.2583  0.2511  0.3700
12770SOL    HW139218   6.365   3.425   0.984  0.1179  0.3502  3.5682
12770SOL    HW239219   6.351   3.280   1.026  0.5009 -1.3750 -1.5835
12771SOL     OW39220   0.696   6.256   1.947  0.1336 -0.2745  0.0340
12771SOL    HW139221   0.745   6.186   1.991  0.9507 -0.0175 -0.4407
12771SOL    HW239222   0.762   6.323   1.929 -0.0346 -0.6306 -2.1332
12772SOL     OW39223   1.761   7.266   1.714 -0.2064 -0.1402  0.2075
12772SOL    HW139224   1.855   7.284   1.720 -0.2596  0.7046 -1.0386
12772SOL    HW239225   1.730   7.265   1.805  0.9340 -0.0666  0.6093
12773SOL     OW39226   5.937   1.709   3.384 -0.0170 -0.4101 -0.3455
12773SOL    HW139227   5.898   1.621   3.375  1.2363 -0.8732 -1.4546
12773SOL    HW239228   5.984   1.723   3.302  1.5102  0.4523  0.6383
12774SOL     OW39229   0.850   1.436   6.891  0.1052  0.0772  0.5866
12774SOL    HW139230   0.811   1.353   6.919  0.1729  0.3063  1.4119
12774SOL    HW239231   0.789   1.470   6.825  0.2748 -0.7993 -0.0363
12775SOL     OW39232   5.380   5.608   3.804  0.0873  0.4729 -0.2302
12775SOL    HW139233   5.324   5.668   3.754 -0.8292  0.8064  1.1247
12775SOL    HW239234   5.404   5.540   3.742 -3.4042 -0.7365 -0.4688
12776SOL     OW39235   6.693   2.371   3.810 -0.3806 -0.2486  0.4078
12776SOL    HW139236   6.772   2.408   3.771  1.2262  0.8108  4.1438
12776SOL    HW239237   6.623   2.433   3.786  0.8753  1.3557  0.7108
12777SOL     OW39238   5.585   1.613   3.291  0.7169  0.0656  0.1992
12777SOL    HW139239   5.584   1.709   3.294 -0.7813  0.1310 -0.8670
12777SOL    HW239240   5.652   1.592   3.227 -2.1653  0.7030 -3.3759
12778SOL     OW39241   6.576   3.532   1.159  0.1972 -0.2405  0.1067
12778SOL    HW139242   6.495   3.537   1.210  0.7128 -0.3545  0.9537
12778SOL    HW239243   6.605   3.441   1.170  1.9191  0.4824  2.1684
12779SOL     OW39244   3.874   4.199   6.460  0.3553  0.0128 -0.0718
12779SOL    HW139245   3.794   4.230   6.503  0.6550  0.4844  0.1568
12779SOL    HW239246   3.852   4.197   6.367  0.0171 -0.0456  0.0063
12780SOL     OW39247   1.262   1.845   7.067 -0.0216  0.8182  0.1258
12780SOL    HW139248   1.226   1.894   6.993 -0.4856  0.5744  0.1850
12780SOL    HW239249   1.185   1.820   7.118  0.0320 -1.3154 -0.7323
12781SOL     OW39250   2.909   4.918   3.630 -0.5291  0.6421 -0.0183
12781SOL    HW139251   2.817   4.943   3.640 -0.7740  0.2247 -1.1486
12781SOL    HW239252   2.956   4.975   3.691 -1.4637  1.3309  0.0747
12782SOL     OW39253   1.731   0.312   5.626  0.1505  0.5500 -0.3303
12782SOL    HW139254   1.650   0.262   5.615 -0.4813  1.4570  0.1195
12782SOL    HW239255   1.758   0.334   5.537 -0.2245  0.4489 -0.4693
12783SOL     OW39256   4.871   2.652   2.961  0.6401  0.2445 -0.3717
12783SOL    HW139257   4.826   2.597   2.897 -1.5255 -1.1622  2.1706
12783SOL    HW239258   4.804   2.713   2.992  1.0836 -0.2732  1.7677
12784SOL     OW39259   3.849   0.251   5.162 -0.5075  0.0628 -0.6523
12784SOL    HW139260   3.902   0.177   5.193 -0.7666  0.0288 -0.2768
12784SOL    HW239261   3.761   0.214   5.151 -1.0147  0.6678  1.0735
12785SOL     OW39262   2.921   1.455   5.573  0.5107  0.2404  0.4548
12785SOL    HW139263   2.900   1.542   5.538  0.4814  0.9697  2.2092
12785SOL    HW239264   2.843   1.430   5.623 -0.8820 -2.2990 -2.5823
12786SOL     OW39265   6.573   3.360   7.542  0.3739 -0.0237  0.4761
12786SOL    HW139266   6.640   3.336   7.607  1.0768 -0.2186 -0.3026
12786SOL    HW239267   6.491   3.327   7.579  0.6026  0.7578  1.7354
12787SOL     OW39268   6.140   0.735   1.856 -0.7907  0.2092  0.1137
12787SOL    HW139269   6.157   0.733   1.761  1.3881  1.6931  0.4139
12787SOL    HW239270   6.128   0.827   1.876  1.3801  0.2342  1.6459
12788SOL     OW39271   6.358   1.131   6.707 -0.7739 -0.0899  0.1216
12788SOL    HW139272   6.440   1.097   6.744 -0.5064 -0.2589 -0.5987
12788SOL    HW239273   6.380   1.152   6.616 -1.2334  0.9638  0.2475
12789SOL     OW39274   2.192   5.697   5.260 -0.1051  0.1476  0.0081
12789SOL    HW139275   2.177   5.724   5.170  0.5528  0.1126 -0.1175
12789SOL    HW239276   2.180   5.602   5.260 -0.1555  0.1540 -0.0325
12790SOL     OW39277   0.548   5.488   7.338  0.1960  0.2535 -0.1224
12790SOL    HW139278   0.510   5.442   7.263 -0.8244  1.6861 -0.5457
12790SOL    HW239279   0.474   5.502   7.397  0.9898 -0.8274  1.1688
12791SOL     OW39280   5.042   0.886   3.111  0.1343 -0.1119  0.0689
12791SOL    HW139281   5.003   0.801   3.133 -1.9897  1.4480  2.8980
12791SOL    HW239282   4.992   0.916   3.035 -0.6616 -0.4012  0.4680
12792SOL     OW39283   1.760   5.387   0.175  0.0240  0.1339  0.7193
12792SOL    HW139284   1.739   5.298   0.203  0.3699 -0.2507 -0.1989
12792SOL    HW239285   1.846   5.404   0.215 -0.2752  0.2652  1.3248
12793SOL     OW39286   0.759   4.906   0.082 -0.1214  0.0687 -0.4322
12793SOL    HW139287   0.807   4.842   0.134  1.9466  1.4103 -0.5504
12793SOL    HW239288   0.676   4.917   0.127  0.8119 -0.2651  1.4627
12794SOL     OW39289   1.218   6.297   2.323  0.4632  0.3760 -0.0576
12794SOL    HW139290   1.167   6.343   2.256  0.1256  0.3018  0.1447
12794SOL    HW239291   1.177   6.211   2.329  0.6397  0.3013  0.0755
12795SOL     OW39292   1.128   6.112   3.626  0.1660 -0.2795  0.3171
12795SOL    HW139293   1.065   6.118   3.555  0.2908  0.3334  0.2578
12795SOL    HW239294   1.183   6.190   3.617  1.6230 -1.3125 -0.2873
12796SOL     OW39295   7.151   0.133   1.855 -0.0682 -0.6920 -0.1112
12796SOL    HW139296   7.062   0.139   1.818  0.5502  1.0134 -1.4827
12796SOL    HW239297   7.145   0.063   1.919 -2.5493 -0.2922  0.2167
12797SOL     OW39298   6.639   7.323   1.439 -0.2361 -0.0969 -0.1774
12797SOL    HW139299   6.546   7.316   1.458 -0.1384  0.6029  0.5842
12797SOL    HW239300   6.670   7.232   1.435 -0.4962 -0.3071  1.8549
12798SOL     OW39301   5.687   3.416   2.403 -0.2605 -0.0742  0.2184
12798SOL    HW139302   5.727   3.381   2.323  1.9985  2.2950  0.1744
12798SOL    HW239303   5.713   3.355   2.471  2.2174  0.5115 -0.0962
12799SOL     OW39304   4.907   7.151   1.315  0.0029 -0.7460 -0.0361
12799SOL    HW139305   4.811   7.155   1.317  0.0396  0.6030 -0.2482
12799SOL    HW239306   4.928   7.117   1.228 -0.2632  0.1272 -0.4485
12800SOL     OW39307   7.631   1.129   3.652 -0.5698  0.0279  0.2022
12800SOL    HW139308   7.619   1.210   3.702 -2.9584 -0.8505  1.2126
12800SOL    HW239309   7.590   1.147   3.568  1.4699  0.7551 -0.7078
12801SOL     OW39310   1.065   0.424   2.253  0.1372  0.3571 -0.8172
12801SOL    HW139311   1.062   0.509   2.208 -2.2489 -0.4431 -2.3601
12801SOL    HW239312   0.973   0.403   2.269  0.7805 -0.3148  2.8943
12802SOL     OW39313   6.534   5.619   5.811 -0.0940  0.1443 -0.2185
12802SOL    HW139314   6.583   5.583   5.737 -0.7466  0.1894 -0.6816
12802SOL    HW239315   6.532   5.713   5.794  1.8996  0.5151  1.1600
12803SOL     OW39316   2.543   3.698   7.361  0.0090  0.2693 -0.1254
12803SOL    HW139317   2.454   3.693   7.394 -0.1974 -1.0740 -0.8001
12803SOL    HW239318   2.543   3.641   7.283  1.7214 -0.7017  0.5300
12804SOL     OW39319   4.175   6.728   1.876 -0.0987 -0.3242 -0.6371
12804SOL    HW139320   4.094   6.771   1.901  0.3392  0.4290 -0.4846
12804SOL    HW239321   4.213   6.785   1.809  0.5677 -0.3866 -0.3246
12805SOL     OW39322   4.308   3.968   2.886 -0.1079  0.0175 -0.0696
12805SOL    HW139323   4.341   4.026   2.818 -0.7594  1.2522  0.6164
12805SOL    HW239324   4.237   3.919   2.844 -0.5987  0.8713 -0.2730
12806SOL     OW39325   1.010   1.614   6.411 -0.1409 -0.5559  0.4946
12806SOL    HW139326   1.087   1.589   6.360  0.0600  0.1879  0.4243
12806SOL    HW239327   0.960   1.533   6.420 -0.9060 -0.4405 -2.0923
12807SOL     OW39328   2.655   7.370   1.236 -0.1565 -0.0175  0.3902
12807SOL    HW139329   2.691   7.332   1.155  0.2378  0.5069  0.3168
12807SOL    HW239330   2.622   7.456   1.210  1.9464  1.1006  1.1922
12808SOL     OW39331   1.585   2.573   4.431 -0.2897 -0.0405 -0.2416
12808SOL    HW139332   1.587   2.667   4.451 -2.8901 -0.3175  1.8704
12808SOL    HW239333   1.644   2.534   4.496 -2.0574 -0.1164  1.4235
12809SOL     OW39334   7.385   4.676   7.047 -0.3107 -0.0342  0.2141
12809SOL    HW139335   7.349   4.695   7.134  0.4508  1.0458  0.3190
12809SOL    HW239336   7.436   4.754   7.025  0.5723 -0.8322 -0.6533
12810SOL     OW39337   5.166   7.503   3.495  0.6076  0.3897 -0.1227
12810SOL    HW139338   5.075   7.519   3.520  0.9034  0.8020  0.7377
12810SOL    HW239339   5.217   7.559   3.554  1.4033  0.4271 -0.8325
12811SOL     OW39340   3.452   4.806   2.977 -0.1900  0.4286  0.2969
12811SOL    HW139341   3.456   4.712   2.963  0.6541  0.5144 -0.0953
12811SOL    HW239342   3.411   4.816   3.063 -0.9125 -0.2638  0.0407
12812SOL     OW39343   5.075   7.463   7.468 -0.4364 -0.5134  0.7969
12812SOL    HW139344   5.128   7.385   7.484  0.7819 -0.2196 -1.4108
12812SOL    HW239345   4.987   7.438   7.494 -0.0246 -2.5492  0.3915
12813SOL     OW39346   2.308   3.438   5.154  0.7269  0.5490  0.5983
12813SOL    HW139347   2.323   3.343   5.152  1.1419  0.6010 -1.3299
12813SOL    HW239348   2.236   3.452   5.093 -0.4912  1.3392  2.1571
12814SOL     OW39349   5.961   3.121   2.648  0.0519  0.2875  0.0058
12814SOL    HW139350   6.049   3.126   2.686 -0.1553 -1.3401  0.7651
12814SOL    HW239351   5.972   3.076   2.564  0.0280  0.6941 -0.2183
12815SOL     OW39352   3.102   4.930   1.149 -0.2054 -0.2251  0.2862
12815SOL    HW139353   3.055   4.977   1.219 -0.4798 -0.0528 -0.0139
12815SOL    HW239354   3.183   4.901   1.191  0.8756  2.1449 -0.0141
12816SOL     OW39355   2.598   4.306   1.026 -0.4608  0.2667  0.2066
12816SOL    HW139356   2.609   4.377   1.089 -2.2411  0.0443  0.8000
12816SOL    HW239357   2.512   4.269   1.045  0.2757 -1.8528 -0.3053
12817SOL     OW39358   6.785   0.661   7.334 -0.8228  0.2815 -0.1402
12817SOL    HW139359   6.689   0.659   7.341 -0.8344  1.5599  0.4383
12817SOL    HW239360   6.813   0.710   7.412  0.5519 -2.7423  1.4231
12818SOL     OW39361   1.538   7.417   1.256  0.0033  0.5228 -0.0892
12818SOL    HW139362   1.603   7.477   1.219 -0.4487  1.2517  0.2734
12818SOL    HW239363   1.576   7.388   1.339  0.8447 -0.8088 -0.9054
12819SOL     OW39364   4.204   4.557   3.003 -0.3177  0.4097  0.1336
12819SOL    HW139365   4.277   4.617   2.985 -1.8675  2.1959 -0.5727
12819SOL    HW239366   4.161   4.594   3.080 -0.7494 -0.3667  0.2755
12820SOL     OW39367   1.733   1.367   2.337  0.0715  0.3179 -0.1874
12820SOL    HW139368   1.783   1.314   2.275  1.8268  1.8967 -0.1957
12820SOL    HW239369   1.648   1.380   2.294  1.1444  1.1266 -2.1731
12821SOL     OW39370   7.347   4.782   6.240  0.1881 -0.3426  0.3748
12821SOL    HW139371   7.443   4.786   6.239  0.2118  0.1227 -2.2910
12821SOL    HW239372   7.320   4.867   6.204 -1.1558 -1.0700 -0.3817
12822SOL     OW39373   3.982   1.778   5.099  0.2126  0.1364  0.0613
12822SOL    HW139374   3.899   1.737   5.074  0.3649 -0.2632  0.2135
12822SOL    HW239375   3.968   1.807   5.189  0.6016 -0.9013  0.4647
12823SOL     OW39376   2.892   1.952   0.227  0.4691  0.5078  0.2044
12823SOL    HW139377   2.969   2.003   0.202  1.3595 -0.9773 -0.1993
12823SOL    HW239378   2.912   1.923   0.317  0.9991 -0.9547 -0.3617
12824SOL     OW39379   4.740   3.628   7.444  0.3941  0.2821 -1.0932
12824SOL    HW139380   4.747   3.683   7.366  1.4753  0.7045 -0.7190
12824SOL    HW239381   4.823   3.580   7.447  1.2894  1.8140  0.9164
12825SOL     OW39382   6.439   1.601   0.130 -0.2660 -0.2466 -0.7965
12825SOL    HW139383   6.385   1.523   0.137  2.3151 -2.2872 -1.8751
12825SOL    HW239384   6.464   1.606   0.038  0.8646  0.9542 -0.4717
12826SOL     OW39385   5.032   2.391   4.189  0.4244  0.0081  0.1097
12826SOL    HW139386   5.015   2.345   4.271 -1.1303  0.6173  0.1567
12826SOL    HW239387   4.990   2.337   4.122  1.9587 -0.6615 -0.3814
12827SOL     OW39388   3.441   4.776   2.269  0.5519  0.2675  0.2071
12827SOL    HW139389   3.466   4.703   2.212  1.4507 -0.3339  1.3174
12827SOL    HW239390   3.349   4.759   2.291  1.1404 -1.4214  1.6508
12828SOL     OW39391   7.348   7.100   0.717 -0.4435 -0.6849  0.2977
12828SOL    HW139392   7.297   7.029   0.757  1.0379 -1.7917  0.3101
12828SOL    HW239393   7.438   7.083   0.745 -0.0219  1.1064  0.1206
12829SOL     OW39394   2.992   0.876   6.596  0.0396 -0.0573 -0.2758
12829SOL    HW139395   2.906   0.847   6.564 -0.4291 -0.1787  1.0471
12829SOL    HW239396   3.028   0.800   6.641 -0.5552  0.9055  1.9420
12830SOL     OW39397   2.050   5.972   5.668  0.9092  0.0949 -0.4381
12830SOL    HW139398   2.134   5.942   5.703  0.9823 -0.9145 -1.3997
12830SOL    HW239399   2.053   6.067   5.675  1.5533 -0.0037  0.8135
12831SOL     OW39400   6.771   6.685   0.970  0.1528 -0.3725  0.1622
12831SOL    HW139401   6.702   6.687   1.036  0.5254 -0.6565  0.5702
12831SOL    HW239402   6.821   6.606   0.990  1.3612  0.4937  0.6640
12832SOL     OW39403   5.063   3.412   3.389 -0.1390 -0.1399 -0.4078
12832SOL    HW139404   5.157   3.420   3.405 -0.5467  0.3884  2.2787
12832SOL    HW239405   5.031   3.502   3.380 -0.5295 -0.2364 -0.0762
12833SOL     OW39406   4.179   3.835   5.765  0.6521  0.3732  0.4680
12833SOL    HW139407   4.147   3.920   5.796 -0.8282  0.5714 -1.3939
12833SOL    HW239408   4.106   3.775   5.782  1.3599 -0.3507  0.9792
12834SOL     OW39409   4.702   0.388   6.459 -0.6695 -0.1093  0.0356
12834SOL    HW139410   4.702   0.477   6.495 -0.3288 -0.3398  0.6199
12834SOL    HW239411   4.681   0.399   6.367  0.1672  0.6511 -0.0702
12835SOL     OW39412   6.215   6.513   3.991  0.2593  0.3360  0.1776
12835SOL    HW139413   6.242   6.453   3.922  0.0613  1.1370 -0.6132
12835SOL    HW239414   6.262   6.594   3.973  1.2997  0.1497  1.8071
12836SOL     OW39415   3.948   7.706   5.839  0.0344  0.0112 -0.1069
12836SOL    HW139416   3.876   7.644   5.852  1.0786 -1.1389  0.3746
12836SOL    HW239417   4.026   7.657   5.862  0.8449  1.7429  1.0055
12837SOL     OW39418   2.910   7.428   3.997  0.4907  0.1337 -0.7260
12837SOL    HW139419   2.934   7.417   4.089 -1.7348  1.1502  0.0208
12837SOL    HW239420   2.905   7.523   3.984  1.8076  0.0518 -2.2351
12838SOL     OW39421   3.140   7.013   0.856  0.2099  0.0490  0.3025
12838SOL    HW139422   3.164   7.055   0.774 -0.7044  3.0498  1.4217
12838SOL    HW239423   3.208   6.948   0.871 -0.1851 -1.3809 -3.2741
12839SOL     OW39424   2.841   2.091   2.985  0.0889  0.2058  0.1702
12839SOL    HW139425   2.914   2.153   2.983  1.1891 -1.0530 -1.2468
12839SOL    HW239426   2.795   2.105   2.902  0.6188 -1.1146 -0.3800
12840SOL     OW39427   4.323   6.916   6.126 -0.7064 -0.1739  0.2043
12840SOL    HW139428   4.263   6.985   6.154 -0.9390 -0.6433  0.8883
12840SOL    HW239429   4.347   6.940   6.036 -1.6747  0.1853  0.0281
12841SOL     OW39430   2.015   6.015   7.119 -0.2490  0.1296  0.2940
12841SOL    HW139431   1.927   6.050   7.132 -0.3208 -0.5043  1.7299
12841SOL    HW239432   2.054   6.071   7.051 -2.1787 -0.3825 -1.3267
12842SOL     OW39433   7.514   3.929   3.648 -0.3968  0.0893  0.1865
12842SOL    HW139434   7.587   3.961   3.700  0.3805  0.6443 -1.1967
12842SOL    HW239435   7.501   3.996   3.581 -2.1883  0.0098  0.4028
12843SOL     OW39436   1.456   4.683   1.825 -0.0869  0.3999 -0.1995
12843SOL    HW139437   1.511   4.760   1.839 -1.5531  1.2811  0.9851
12843SOL    HW239438   1.371   4.718   1.797 -0.4588 -0.8589 -0.7456
12844SOL     OW39439   0.466   2.055   5.293 -0.5444 -0.3900 -0.1353
12844SOL    HW139440   0.544   2.107   5.272 -0.5940 -0.0878  0.4085
12844SOL    HW239441   0.497   1.965   5.296 -0.0147 -0.1965  0.9530
12845SOL     OW39442   2.638   2.851   7.261  0.4469 -0.7824 -0.2679
12845SOL    HW139443   2.692   2.835   7.338  1.9775 -1.4336 -1.4166
12845SOL    HW239444   2.685   2.921   7.214  0.0226 -1.0082 -1.0383
12846SOL     OW39445   6.119   7.207   2.722 -0.4674  0.3518  0.1368
12846SOL    HW139446   6.103   7.277   2.785  0.2968 -0.9366  1.8157
12846SOL    HW239447   6.044   7.148   2.733  0.4952 -0.7366  1.0931
12847SOL     OW39448   5.899   3.134   1.474  0.2280  0.2494 -0.2311
12847SOL    HW139449   5.899   3.162   1.566 -0.1756 -0.4762 -0.0001
12847SOL    HW239450   5.981   3.085   1.465 -0.2014 -0.5429  0.0295
12848SOL     OW39451   2.316   7.369   5.197  0.3920 -0.7447  0.8223
12848SOL    HW139452   2.288   7.290   5.150 -1.3400  0.5352 -0.4184
12848SOL    HW239453   2.256   7.375   5.271  0.5276 -0.5825  0.9180
12849SOL     OW39454   0.658   7.661   6.019 -0.2381  0.0759 -0.4404
12849SOL    HW139455   0.746   7.697   6.028 -0.3552  0.3660 -0.4557
12849SOL    HW239456   0.611   7.724   5.964 -0.1726 -0.5644 -1.2516
12850SOL     OW39457   4.847   3.344   3.856  0.1399 -0.0196  0.1222
12850SOL    HW139458   4.762   3.380   3.832 -0.1341 -0.6918  0.0704
12850SOL    HW239459   4.897   3.345   3.774  0.5728  1.4017  0.3780
12851SOL     OW39460   6.221   7.568   1.767  0.2159 -0.3992  0.3475
12851SOL    HW139461   6.307   7.526   1.770  0.2624 -0.2876  0.8251
12851SOL    HW239462   6.213   7.610   1.853 -0.3779 -0.5304  0.3605
12852SOL     OW39463   2.286   3.853   5.980  0.3376 -0.0989  0.4789
12852SOL    HW139464   2.218   3.911   6.013 -1.8496 -1.6579 -0.9671
12852SOL    HW239465   2.320   3.898   5.902 -0.4415 -0.1316  0.1022
12853SOL     OW39466   6.668   3.355   0.916  0.2953 -0.3937 -0.3995
12853SOL    HW139467   6.596   3.335   0.976 -0.0604 -1.8067 -1.2493
12853SOL    HW239468   6.632   3.417   0.854  0.7300  1.2505  0.9336
12854SOL     OW39469   3.050   5.040   4.357 -0.0882  0.1332 -0.1672
12854SOL    HW139470   2.963   5.009   4.381 -0.3186  1.6185  1.0954
12854SOL    HW239471   3.034   5.122   4.310  0.6264  0.3619 -0.0263
12855SOL     OW39472   3.843   0.590   4.339  0.7495  0.2377  0.0936
12855SOL    HW139473   3.919   0.547   4.299 -0.1351 -0.9603 -0.3637
12855SOL    HW239474   3.767   0.549   4.297 -0.1977 -0.1097  2.0187
12856SOL     OW39475   7.049   3.966   4.277 -0.1410  0.6345  0.6350
12856SOL    HW139476   7.096   3.921   4.207  0.3505  2.1043 -0.0196
12856SOL    HW239477   6.984   4.020   4.231 -0.0920  1.3043  1.3260
12857SOL     OW39478   1.262   3.124   4.656  0.7057  0.6127 -0.4257
12857SOL    HW139479   1.285   3.216   4.671 -0.1519  0.5567  1.5287
12857SOL    HW239480   1.168   3.125   4.638  0.5068  0.0526  0.5178
12858SOL     OW39481   2.345   3.597   7.128 -0.0810 -0.1482  0.0453
12858SOL    HW139482   2.351   3.525   7.065 -0.9636  0.4277 -0.7320
12858SOL    HW239483   2.283   3.566   7.194 -2.0697  0.5860 -1.3480
12859SOL     OW39484   6.437   4.616   6.491  0.2099  0.0034  0.1254
12859SOL    HW139485   6.486   4.593   6.413  2.6152  0.0033  1.5498
12859SOL    HW239486   6.454   4.544   6.552 -0.2628  0.7939  1.2274
12860SOL     OW39487   2.453   6.184   5.054  0.0937 -0.7236 -0.1138
12860SOL    HW139488   2.396   6.164   5.129 -1.9102 -2.2988 -1.9465
12860SOL    HW239489   2.526   6.122   5.063 -0.2574 -1.0750  0.3990
12861SOL     OW39490   3.956   6.327   0.508 -0.4682  0.4679  0.9427
12861SOL    HW139491   4.021   6.260   0.527 -0.6801 -0.1529 -0.4130
12861SOL    HW239492   3.876   6.294   0.548 -0.7628 -0.5222 -0.3784
12862SOL     OW39493   3.809   3.396   1.816 -0.5249 -0.0436  0.0151
12862SOL    HW139494   3.795   3.404   1.722  0.1111 -0.4517 -0.1176
12862SOL    HW239495   3.902   3.412   1.829 -0.5832 -0.1079  0.5587
12863SOL     OW39496   4.374   7.425   5.788  0.6089  0.1267 -0.8329
12863SOL    HW139497   4.393   7.516   5.813 -0.7396  0.6200 -1.4741
12863SOL    HW239498   4.377   7.376   5.869  0.1200  0.9870 -0.2777
12864SOL     OW39499   7.608   7.199   4.095 -0.2934 -0.2214 -0.0079
12864SOL    HW139500   7.701   7.190   4.072 -0.4270  2.8810 -2.5069
12864SOL    HW239501   7.575   7.109   4.096  2.0057 -1.2601 -2.7464
12865SOL     OW39502   5.649   5.578   7.004  0.3582 -0.2270 -0.4752
12865SOL    HW139503   5.613   5.558   7.091  1.6733  0.3075  0.2116
12865SOL    HW239504   5.636   5.497   6.954  3.8196 -2.3795  1.6710
12866SOL     OW39505   5.476   2.589   2.107  0.1399  0.1255 -0.4404
12866SOL    HW139506   5.474   2.495   2.124 -1.9241 -0.0155 -1.2298
12866SOL    HW239507   5.420   2.601   2.030 -0.3793  2.0937  0.1796
12867SOL     OW39508   1.508   6.861   6.279 -0.5195  0.1264 -0.6565
12867SOL    HW139509   1.478   6.781   6.237 -1.7703  1.4356 -2.4381
12867SOL    HW239510   1.603   6.860   6.267 -0.5423 -0.9598 -0.8564
12868SOL     OW39511   4.081   2.989   6.223 -0.2151 -0.0532 -0.6962
12868SOL    HW139512   4.042   3.076   6.220 -0.3572 -0.1199 -0.8460
12868SOL    HW239513   4.176   3.004   6.214 -0.3029  0.0378 -1.6273
12869SOL     OW39514   6.004   0.723   0.053 -0.3188  0.1174 -0.4338
12869SOL    HW139515   5.950   0.716  -0.025 -1.4105 -1.3890  0.4216
12869SOL    HW239516   5.994   0.639   0.097  2.1514  0.0487  0.1460
12870SOL     OW39517   3.764   7.154   4.035  0.1058  0.2475 -0.0045
12870SOL    HW139518   3.811   7.163   4.118 -1.3990  1.0303  0.7986
12870SOL    HW239519   3.829   7.177   3.968  0.4795  3.0045  1.1552
12871SOL     OW39520   6.738   6.205   6.456 -0.0952  0.8019  0.2309
12871SOL    HW139521   6.715   6.188   6.365 -0.0551  2.1869 -0.0641
12871SOL    HW239522   6.669   6.263   6.488 -0.1900  0.2230  1.1422
12872SOL     OW39523   4.653   5.112   0.940  0.0897 -0.5726  0.3454
12872SOL    HW139524   4.642   5.189   0.885 -0.0961 -0.4094  0.6055
12872SOL    HW239525   4.721   5.060   0.897  0.3275 -0.1857  0.2576
12873SOL     OW39526   4.682   2.111   3.118 -0.4186  0.8216 -0.2485
12873SOL    HW139527   4.757   2.091   3.062 -0.9653 -2.4573 -0.0256
12873SOL    HW239528   4.610   2.062   3.079 -2.5024  3.6613 -0.3243
12874SOL     OW39529   2.876   3.816   5.541 -0.1207 -0.2115  0.7000
12874SOL    HW139530   2.951   3.765   5.572 -0.5276 -0.6841  0.9277
12874SOL    HW239531   2.841   3.764   5.468  0.0396  0.2320  0.3052
12875SOL     OW39532   6.462   2.342   4.613 -0.5710 -0.0277  0.2138
12875SOL    HW139533   6.424   2.397   4.545  0.2551 -0.0527 -0.2874
12875SOL    HW239534   6.542   2.306   4.573 -0.7296 -1.0417  0.7669
12876SOL     OW39535   0.346   0.030   2.881 -0.1357 -0.0544 -0.4084
12876SOL    HW139536   0.263   0.042   2.834 -0.8486  0.7108  0.9711
12876SOL    HW239537   0.338   0.086   2.958  0.8306 -1.5350  0.8353
12877SOL     OW39538   1.277   4.239   4.538  0.1879  0.3006  0.5422
12877SOL    HW139539   1.239   4.188   4.467  0.0977  1.0084  0.0741
12877SOL    HW239540   1.202   4.269   4.588  0.2684 -0.6037  1.2447
12878SOL     OW39541   0.465   1.219   1.663  0.0437  0.1114  0.3032
12878SOL    HW139542   0.539   1.209   1.603  0.7090  0.3879  1.0587
12878SOL    HW239543   0.455   1.313   1.674 -1.5185  0.1752 -1.0797
12879SOL     OW39544   0.113   1.633   5.639 -0.7561  0.2003  0.1418
12879SOL    HW139545   0.112   1.727   5.619 -1.6031  0.7202  2.3579
12879SOL    HW239546   0.107   1.591   5.553 -0.7783  2.1584 -0.8953
12880SOL     OW39547   1.055   0.892   0.470  0.0367  0.1515 -1.0583
12880SOL    HW139548   1.051   0.810   0.421 -2.2111 -0.2182 -0.3404
12880SOL    HW239549   0.977   0.892   0.525 -0.3759  3.0355 -1.4585
12881SOL     OW39550   4.621   6.272   2.463  0.0184 -0.0658 -0.2877
12881SOL    HW139551   4.710   6.252   2.432  0.2691 -0.1664  0.4660
12881SOL    HW239552   4.605   6.206   2.531 -0.1307  0.7603  0.4843
12882SOL     OW39553   1.599   6.970   2.949  0.5683  0.1496  0.6978
12882SOL    HW139554   1.505   6.988   2.958  0.7003  0.7817  0.8680
12882SOL    HW239555   1.639   7.057   2.947  1.0492 -0.0800 -0.4661
12883SOL     OW39556   3.609   0.352   0.358  0.4440  0.9671  0.2207
12883SOL    HW139557   3.698   0.381   0.379  1.2415 -2.0758  1.4502
12883SOL    HW239558   3.583   0.409   0.285  3.1191  2.3911  0.2318
12884SOL     OW39559   7.611   5.749   1.591  0.0163 -0.0780 -0.0406
12884SOL    HW139560   7.651   5.816   1.537  2.0139 -0.1596  1.2406
12884SOL    HW239561   7.618   5.782   1.680  0.6165 -1.7640  0.5699
12885SOL     OW39562   4.268   3.382   0.071 -0.0180  0.9028  0.1229
12885SOL    HW139563   4.234   3.328   0.143 -1.1694 -0.1334 -1.1599
12885SOL    HW239564   4.234   3.470   0.090  0.1362  0.7667  1.1125
12886SOL     OW39565   1.717   1.920   1.056 -0.0870  0.0319  0.0485
12886SOL    HW139566   1.812   1.932   1.061 -0.0061 -0.8524  1.1101
12886SOL    HW239567   1.682   2.008   1.040  0.9535  0.2296 -1.2973
12887SOL     OW39568   3.544   6.553   6.263 -0.1855 -0.7033 -0.4995
12887SOL    HW139569   3.611   6.621   6.262 -0.7173 -0.1706 -1.1247
12887SOL    HW239570   3.565   6.497   6.188 -1.8184  0.8902 -2.2639
12888SOL     OW39571   4.634   6.011   4.536  0.4527  0.4024 -0.1162
12888SOL    HW139572   4.694   6.084   4.521 -0.2271  0.8637 -0.6926
12888SOL    HW239573   4.587   6.002   4.453  0.3691 -0.5456  0.0289
12889SOL     OW39574   5.407   3.444   6.718 -0.1071  0.1791  0.2198
12889SOL    HW139575   5.365   3.358   6.718 -1.5644  0.7977 -2.2288
12889SOL    HW239576   5.498   3.426   6.698  0.3302 -0.9519  2.7528
12890SOL     OW39577   6.254   0.382   5.330 -0.2778  0.0682 -0.1067
12890SOL    HW139578   6.215   0.298   5.355  0.5210 -0.8775 -1.8202
12890SOL    HW239579   6.261   0.431   5.412 -1.3253 -1.2954  0.8476
12891SOL     OW39580   1.947   5.794   4.152 -0.1216 -0.1343 -0.2391
12891SOL    HW139581   2.034   5.772   4.118  0.3917  0.0971  0.8876
12891SOL    HW239582   1.947   5.759   4.241 -0.8058  0.8029  0.1374
12892SOL     OW39583   5.472   0.487   4.861  0.4263  0.3920  0.2292
12892SOL    HW139584   5.549   0.431   4.872  0.1737  0.1005  0.5221
12892SOL    HW239585   5.405   0.446   4.915 -0.6959 -0.7659 -1.9223
12893SOL     OW39586   1.212   5.028   2.502  0.2891 -0.2006  0.2761
12893SOL    HW139587   1.184   4.937   2.495  0.1339 -0.0888 -0.6437
12893SOL    HW239588   1.196   5.051   2.594  0.7601 -1.2265  0.6340
12894SOL     OW39589   1.937   4.632   7.254  0.1835  0.1323  0.5348
12894SOL    HW139590   1.915   4.640   7.161 -0.3676 -3.1265  0.2950
12894SOL    HW239591   1.858   4.597   7.295  0.0198  2.5655  2.5454
12895SOL     OW39592   1.059   7.638   4.926 -0.1014 -0.0906  0.1335
12895SOL    HW139593   0.964   7.642   4.928 -0.1191  0.0242 -0.5487
12895SOL    HW239594   1.079   7.544   4.922 -0.2261 -0.0949 -0.6708
12896SOL     OW39595   1.784   6.302   1.768  0.5915  0.5643  0.3227
12896SOL    HW139596   1.877   6.280   1.758  0.8105  1.6767 -0.3257
12896SOL    HW239597   1.738   6.238   1.715  1.0534  0.4757  0.0206
12897SOL     OW39598   0.314   3.739   3.998 -0.1212  0.3561 -0.1981
12897SOL    HW139599   0.354   3.724   3.912 -0.2217  2.3788 -0.6523
12897SOL    HW239600   0.266   3.822   3.988  0.8675  1.2979  2.1348
12898SOL     OW39601   4.419   1.187   6.705 -0.2172 -0.1968  0.7337
12898SOL    HW139602   4.341   1.209   6.756  0.1025  0.0250  1.1325
12898SOL    HW239603   4.487   1.246   6.739  0.1998 -0.5953  0.5959
12899SOL     OW39604   6.040   7.161   6.786 -0.1720  0.0256 -0.1556
12899SOL    HW139605   6.126   7.135   6.752 -0.5540  0.0292 -1.1516
12899SOL    HW239606   5.983   7.088   6.762 -0.0960 -0.8797  2.1762
12900SOL     OW39607   6.099   1.441   2.072  0.9046 -0.2947 -0.3522
12900SOL    HW139608   6.056   1.427   2.156  0.6913  0.8345 -0.2497
12900SOL    HW239609   6.043   1.399   2.008  0.4086 -0.0801 -0.0617
12901SOL     OW39610   6.344   2.051   6.101 -0.0530  0.5987  0.7917
12901SOL    HW139611   6.354   2.056   6.006  0.8864  2.1174  0.9408
12901SOL    HW239612   6.433   2.035   6.133  0.1215  2.8224  1.5398
12902SOL     OW39613   5.345   2.569   2.725 -0.1101  0.5574 -0.4325
12902SOL    HW139614   5.380   2.611   2.647  1.6835  0.3380  0.2193
12902SOL    HW239615   5.420   2.525   2.766 -1.2158 -0.2870  0.8165
12903SOL     OW39616   1.753   1.223   5.563 -0.8867  0.2633 -0.1302
12903SOL    HW139617   1.710   1.274   5.631 -0.7962  0.5754 -0.3036
12903SOL    HW239618   1.838   1.265   5.551 -0.6704 -0.1380 -0.0338
12904SOL     OW39619   4.708   1.733   6.305  0.6036 -0.0831 -0.0436
12904SOL    HW139620   4.719   1.822   6.339  0.9332 -0.5096  1.0123
12904SOL    HW239621   4.639   1.695   6.359  1.2076 -0.8135  0.2316
12905SOL     OW39622   0.577   5.383   4.351 -0.1400 -0.2653 -0.5071
12905SOL    HW139623   0.570   5.473   4.383  1.7461 -0.4543  0.6107
12905SOL    HW239624   0.511   5.376   4.282 -0.4622  1.9073 -0.4747
12906SOL     OW39625   3.155   6.446   2.601  0.0931 -0.0772 -0.3082
12906SOL    HW139626   3.226   6.465   2.663 -0.6550 -0.2744  0.6300
12906SOL    HW239627   3.175   6.358   2.569 -1.4035 -1.5687  2.4407
12907SOL     OW39628   4.873   1.012   1.374  0.1306  0.4888  0.0360
12907SOL    HW139629   4.899   0.932   1.420  0.5532 -0.0886 -1.1655
12907SOL    HW239630   4.955   1.053   1.347 -0.0865  1.2238  0.4541
12908SOL     OW39631   3.115   3.378   6.853 -0.4985  0.8200 -0.0042
12908SOL    HW139632   3.020   3.370   6.853 -0.3899 -0.9941 -0.2568
12908SOL    HW239633   3.141   3.354   6.763  0.2356  0.2515  0.3422
12909SOL     OW39634   4.222   2.737   3.035  0.0072  0.2412 -0.4411
12909SOL    HW139635   4.175   2.785   2.966  1.3484  4.1912  1.1212
12909SOL    HW239636   4.315   2.744   3.010  0.2523 -2.2654 -0.4615
12910SOL     OW39637   6.118   2.776   4.442 -0.0927 -0.1596 -0.2946
12910SOL    HW139638   6.173   2.780   4.521 -1.5042  0.4403  0.6983
12910SOL    HW239639   6.076   2.690   4.446  1.6958 -1.1635 -1.7441
12911SOL     OW39640   4.449   5.980   4.741  0.1959  0.5407 -0.4409
12911SOL    HW139641   4.402   6.058   4.712  1.2907  1.7481  0.9095
12911SOL    HW239642   4.514   5.965   4.672  0.5585  1.3546 -0.2848
12912SOL     OW39643   7.421   3.626   7.158 -0.0174  0.2111  0.3346
12912SOL    HW139644   7.418   3.706   7.210  2.2057  1.0026 -0.6433
12912SOL    HW239645   7.354   3.638   7.090 -0.3335  0.8133  0.7488
12913SOL     OW39646   3.296   2.971   0.223  0.0420  0.2168  0.0767
12913SOL    HW139647   3.317   3.057   0.188 -1.0079  0.1701 -0.7251
12913SOL    HW239648   3.367   2.914   0.193  1.0206  0.8854  1.0528
12914SOL     OW39649   2.268   6.885   6.565  0.1845 -0.1704 -0.0663
12914SOL    HW139650   2.294   6.884   6.657 -0.4409 -0.7274  0.1196
12914SOL    HW239651   2.193   6.824   6.561 -0.1501  0.2766 -0.8318
12915SOL     OW39652   4.837   4.408   3.354  0.1416 -0.3465  0.0006
12915SOL    HW139653   4.884   4.486   3.326 -0.3925  0.3961  1.0926
12915SOL    HW239654   4.871   4.338   3.299  2.7808  0.0740  0.9723
12916SOL     OW39655   0.637   1.867   0.348 -0.6213  0.0266  0.2401
12916SOL    HW139656   0.623   1.960   0.369  0.0675  0.5989 -1.6506
12916SOL    HW239657   0.723   1.847   0.387  0.6679  1.0893 -1.8484
12917SOL     OW39658   1.609   3.938   6.843  0.0228 -0.1418  0.9675
12917SOL    HW139659   1.542   3.911   6.780  0.1295 -0.4618  0.9887
12917SOL    HW239660   1.617   4.033   6.831  0.7448 -0.3332 -0.2036
12918SOL     OW39661   2.529   1.625   6.695  0.0890  0.4990  0.0933
12918SOL    HW139662   2.436   1.632   6.673  0.0118 -0.8911 -0.0873
12918SOL    HW239663   2.572   1.607   6.612  0.3541 -0.2368  0.3899
12919SOL     OW39664   7.273   4.176   3.892  0.0166  0.3552 -0.3798
12919SOL    HW139665   7.299   4.103   3.949  0.2648  0.1510 -0.7472
12919SOL    HW239666   7.350   4.192   3.838  0.2417  1.4082  0.2211
12920SOL     OW39667   6.510   0.742   7.478 -0.5236  0.1797  0.2465
12920SOL    HW139668   6.468   0.684   7.542  0.6695 -1.4311 -0.3762
12920SOL    HW239669   6.496   0.699   7.394  0.3955  0.7996 -0.2295
12921SOL     OW39670   2.411   6.573   3.765  0.2706  0.3114 -0.1436
12921SOL    HW139671   2.335   6.632   3.763 -0.4366 -0.5702  0.0647
12921SOL    HW239672   2.383   6.501   3.821  1.5121  0.2891  0.4615
12922SOL     OW39673   2.849   2.549   7.367 -0.2444 -0.0056  0.4230
12922SOL    HW139674   2.920   2.563   7.429  0.6361  0.2668 -0.6038
12922SOL    HW239675   2.875   2.470   7.319 -1.3470 -0.7248  0.9681
12923SOL     OW39676   2.039   7.040   7.601  0.4152  0.5164 -0.3470
12923SOL    HW139677   1.966   7.100   7.583 -1.1386 -1.2035 -0.1489
12923SOL    HW239678   2.072   7.067   7.687  0.6859  1.9433 -0.8768
12924SOL     OW39679   0.165   1.217   6.614 -0.5738  0.2486 -0.0683
12924SOL    HW139680   0.155   1.285   6.548 -0.9492 -0.4418 -0.7366
12924SOL    HW239681   0.188   1.138   6.564 -2.3624 -0.6609  0.4505
12925SOL     OW39682   6.235   1.433   4.036 -0.4580  0.6294  0.1511
12925SOL    HW139683   6.166   1.390   3.985  0.3586  0.9963 -1.3227
12925SOL    HW239684   6.279   1.361   4.081 -1.2697  0.3138  0.4724
12926SOL     OW39685   4.387   2.922   1.243  0.2419 -0.1418  0.3043
12926SOL    HW139686   4.472   2.955   1.214 -0.0143  0.5061  0.2808
12926SOL    HW239687   4.375   2.959   1.331  1.0397 -2.1322  1.3111
12927SOL     OW39688   3.076   7.338   4.817  0.5203  0.4140 -0.1115
12927SOL    HW139689   3.161   7.382   4.825  0.4440  1.3265 -3.1399
12927SOL    HW239690   3.014   7.399   4.857  0.9157  1.1922 -0.6690
12928SOL     OW39691   6.213   4.314   2.804  0.3524  0.2074 -0.1733
12928SOL    HW139692   6.204   4.348   2.893 -1.4313  1.0489 -0.6277
12928SOL    HW239693   6.276   4.242   2.812 -0.0833 -0.0080  1.8454
12929SOL     OW39694   4.832   6.844   1.251 -0.0841 -0.4531  0.1231
12929SOL    HW139695   4.868   6.893   1.176 -1.5250  0.1688 -0.1985
12929SOL    HW239696   4.905   6.791   1.282  0.8327  0.0369 -1.0980
12930SOL     OW39697   5.742   1.338   7.534  0.1679 -0.3743  0.5190
12930SOL    HW139698   5.733   1.245   7.516  3.0280 -0.3707 -1.6564
12930SOL    HW239699   5.678   1.356   7.603 -0.8880 -3.7764  0.5826
12931SOL     OW39700   6.271   1.498   2.528  0.5322  0.1031  0.3153
12931SOL    HW139701   6.281   1.410   2.493  0.8451  0.1081  0.3905
12931SOL    HW239702   6.227   1.547   2.458  1.9464  0.3431 -0.4539
12932SOL     OW39703   5.705   6.854   0.310  0.1145 -0.3205 -0.8955
12932SOL    HW139704   5.659   6.771   0.325 -2.3137  0.7685 -1.9283
12932SOL    HW239705   5.775   6.831   0.249 -0.3424 -1.6623 -0.9652
12933SOL     OW39706   2.097   4.770   1.041 -0.0663  0.7115 -0.4807
12933SOL    HW139707   2.084   4.724   0.958  1.7430  0.0352 -0.4221
12933SOL    HW239708   2.182   4.740   1.072  0.5919  3.1297  0.2208
12934SOL     OW39709   4.847   5.852   7.372 -0.3775 -0.2737  0.0965
12934SOL    HW139710   4.910   5.854   7.300  0.6410  0.4859  0.9970
12934SOL    HW239711   4.810   5.763   7.368  1.3612 -1.0267  0.0783
12935SOL     OW39712   5.458   4.357   5.538  0.3913 -0.0712 -0.0939
12935SOL    HW139713   5.548   4.350   5.508  0.5625  1.1767  0.0864
12935SOL    HW239714   5.406   4.314   5.470  1.1341 -1.0234 -0.0743
12936SOL     OW39715   4.479   5.059   3.601  0.1111  0.2508  0.4301
12936SOL    HW139716   4.533   5.017   3.668 -0.7661 -2.7790 -0.5587
12936SOL    HW239717   4.505   5.016   3.519  1.6097  4.2427 -1.4480
12937SOL     OW39718   0.501   7.041   1.489  0.1735  0.2524 -0.2595
12937SOL    HW139719   0.584   6.994   1.500 -0.2999 -1.3996 -3.0014
12937SOL    HW239720   0.514   7.096   1.413 -0.5444  1.7946  0.6792
12938SOL     OW39721   6.987   5.769   4.303 -0.4003  0.2698  0.0787
12938SOL    HW139722   6.907   5.775   4.355  0.4526  1.8300  1.2775
12938SOL    HW239723   6.991   5.851   4.254  1.5742  1.2483  1.7569
12939SOL     OW39724   6.741   3.135   2.309 -0.2948  0.3504  0.0822
12939SOL    HW139725   6.746   3.078   2.386  0.2244 -0.1466 -0.3096
12939SOL    HW239726   6.717   3.077   2.237 -2.8574  1.1392  0.1937
12940SOL     OW39727   4.206   6.070   3.073  0.0313 -0.1935 -0.0499
12940SOL    HW139728   4.184   5.989   3.120 -0.3750  0.0030  0.0993
12940SOL    HW239729   4.285   6.103   3.117 -0.5437  0.1742  0.7173
12941SOL     OW39730   6.612   7.373   5.998 -0.2090 -0.6659  0.3581
12941SOL    HW139731   6.626   7.325   5.917  1.5076 -0.9919  0.8080
12941SOL    HW239732   6.663   7.325   6.063 -1.0766 -0.0706  1.5197
12942SOL     OW39733   1.212   1.386   5.712 -0.3176  0.2758  0.2447
12942SOL    HW139734   1.121   1.357   5.707 -0.1946 -0.1095  0.2583
12942SOL    HW239735   1.206   1.478   5.739 -0.7293  0.4448 -0.3818
12943SOL     OW39736   7.262   4.887   2.277 -0.4420  0.4265  0.0050
12943SOL    HW139737   7.178   4.933   2.279 -1.5059 -1.4302  1.7685
12943SOL    HW239738   7.247   4.814   2.217  0.3924  0.8684 -0.7613
12944SOL     OW39739   6.676   7.245   5.737  0.2591 -0.2535 -0.4072
12944SOL    HW139740   6.770   7.226   5.740  0.2823 -0.0560  0.0681
12944SOL    HW239741   6.637   7.163   5.707  0.5572 -0.4282 -0.3245
12945SOL     OW39742   2.957   2.777   7.055  0.4913  0.4728  0.2606
12945SOL    HW139743   2.913   2.693   7.046  1.9235 -0.2113 -0.8218
12945SOL    HW239744   2.918   2.833   6.988  0.4252  0.2646  0.1256
12946SOL     OW39745   2.128   0.148   0.244  0.0078 -0.4341  1.0947
12946SOL    HW139746   2.060   0.082   0.230  0.3568 -1.1394  2.5333
12946SOL    HW239747   2.137   0.154   0.339  2.6758 -1.1325  0.9653
12947SOL     OW39748   2.585   1.181   1.751 -0.3610 -0.4824 -0.4703
12947SOL    HW139749   2.609   1.138   1.834  1.2163 -1.3490 -1.3323
12947SOL    HW239750   2.572   1.108   1.690  0.8115  0.2146 -1.5689
12948SOL     OW39751   3.299   1.614   1.027 -0.3135 -0.2951  0.2493
12948SOL    HW139752   3.296   1.638   1.120 -0.0918  1.7355 -0.2301
12948SOL    HW239753   3.377   1.657   0.994 -1.3168  0.4446 -1.2473
12949SOL     OW39754   7.330   1.755   0.396 -0.1503 -0.0197  0.0667
12949SOL    HW139755   7.254   1.812   0.409 -1.2024 -1.3340 -0.0661
12949SOL    HW239756   7.295   1.667   0.410  1.2299 -0.6910 -0.6282
12950SOL     OW39757   5.924   2.339   2.099 -0.8190 -0.2355 -0.0141
12950SOL    HW139758   5.940   2.333   2.005  1.2132  1.6079  0.1352
12950SOL    HW239759   5.873   2.419   2.110  1.0345  0.9547  0.5595
12951SOL     OW39760   6.509   5.954   4.608 -0.3734 -0.2390 -0.4080
12951SOL    HW139761   6.430   5.926   4.655 -1.1929 -0.2003 -1.7078
12951SOL    HW239762   6.493   6.046   4.588 -0.0957 -0.2926 -0.8789
12952SOL     OW39763   3.789   2.076   6.719  0.1882  0.7449  0.5342
12952SOL    HW139764   3.850   2.004   6.702  0.7244  1.2431  0.3061
12952SOL    HW239765   3.703   2.034   6.722  0.5827 -0.0391  1.3207
12953SOL     OW39766   1.042   2.404   4.651  0.1966  0.3065 -0.3595
12953SOL    HW139767   1.067   2.449   4.571 -0.2796  0.0088 -0.6816
12953SOL    HW239768   0.966   2.352   4.626 -0.2588  0.5959  0.4068
12954SOL     OW39769   3.673   4.120   1.877 -0.6977 -0.0204 -0.3340
12954SOL    HW139770   3.632   4.164   1.802  1.2001 -0.4992 -1.7122
12954SOL    HW239771   3.731   4.055   1.838 -0.7225 -1.2795  1.6050
12955SOL     OW39772   2.774   4.769   3.003  0.4937  0.2940  0.1249
12955SOL    HW139773   2.849   4.747   3.058  0.2643 -0.2752  0.2176
12955SOL    HW239774   2.714   4.816   3.062 -0.8023 -2.3145  1.0604
12956SOL     OW39775   4.306   0.567   2.714  0.0693 -0.3702 -0.2070
12956SOL    HW139776   4.271   0.478   2.717  0.3494 -0.4622  1.0597
12956SOL    HW239777   4.234   0.620   2.678 -1.2313 -0.6435  1.8001
12957SOL     OW39778   0.644   0.673   4.183  0.6902  0.1435 -0.4847
12957SOL    HW139779   0.731   0.658   4.145  0.3565 -0.4079 -1.0463
12957SOL    HW239780   0.651   0.640   4.272  0.7068 -1.0716 -0.9191
12958SOL     OW39781   2.668   6.021   5.077 -0.3356  0.0449  0.4385
12958SOL    HW139782   2.616   5.945   5.103  1.9062 -0.5223  3.8576
12958SOL    HW239783   2.716   5.991   5.000 -2.0595 -0.7197 -0.4050
12959SOL     OW39784   3.549   5.268   7.658 -0.3423 -0.1525 -0.8841
12959SOL    HW139785   3.479   5.205   7.678  0.2568 -1.0926 -1.6245
12959SOL    HW239786   3.599   5.274   7.739  1.1888 -2.7778 -1.5064
12960SOL     OW39787   0.258   6.211   5.171  0.4520  0.1667  0.8488
12960SOL    HW139788   0.352   6.196   5.182  0.3810  0.2476  1.6388
12960SOL    HW239789   0.239   6.287   5.225  0.8466  3.5676 -3.3123
12961SOL     OW39790   7.044   4.390   2.952  0.0114  0.1356  0.5094
12961SOL    HW139791   6.985   4.348   2.890  0.1001  0.9568 -0.1583
12961SOL    HW239792   7.048   4.482   2.923  1.0221  0.2586  0.9884
12962SOL     OW39793   2.959   6.556   1.479  0.3140  0.2577 -0.1765
12962SOL    HW139794   2.977   6.649   1.463 -2.6833  1.1975  1.1445
12962SOL    HW239795   3.006   6.537   1.560  0.8292  0.6309 -0.3762
12963SOL     OW39796   0.390   2.218   5.578  0.0385 -0.6143 -0.3610
12963SOL    HW139797   0.421   2.265   5.501  0.0896  0.8135  0.4933
12963SOL    HW239798   0.467   2.171   5.610 -0.0637 -1.4801 -1.3500
12964SOL     OW39799   3.492   1.858   2.208 -0.0408 -0.4460 -0.1570
12964SOL    HW139800   3.546   1.842   2.131 -1.1097  0.1212 -1.0515
12964SOL    HW239801   3.551   1.899   2.271  1.0758 -1.7347 -0.3102
12965SOL     OW39802   4.189   3.175   6.766  1.0188 -0.5063 -0.1187
12965SOL    HW139803   4.141   3.097   6.738  1.7339 -0.7145 -0.7935
12965SOL    HW239804   4.194   3.167   6.861 -2.0059  0.5336  0.2400
12966SOL     OW39805   2.713   1.582   6.262 -0.4055  0.7647  0.4713
12966SOL    HW139806   2.635   1.633   6.240 -0.6626 -0.0589 -0.6692
12966SOL    HW239807   2.708   1.568   6.356 -0.9418  1.8296  0.6124
12967SOL     OW39808   0.176   1.923   5.763  0.1656  0.3097  0.3151
12967SOL    HW139809   0.211   1.851   5.815 -2.1531  0.6400  2.4794
12967SOL    HW239810   0.250   1.951   5.708  2.2370 -1.1735  2.1911
12968SOL     OW39811   7.210   2.246   3.593  0.0530 -0.0717 -0.1273
12968SOL    HW139812   7.163   2.316   3.547 -0.2668 -0.1641  0.0548
12968SOL    HW239813   7.302   2.265   3.577 -0.0380  0.2669 -0.2656
12969SOL     OW39814   6.092   3.662   0.239  0.6631 -0.0723  0.5539
12969SOL    HW139815   6.044   3.739   0.206  0.4343  0.3195  1.7503
12969SOL    HW239816   6.107   3.608   0.161 -0.1515  0.6521 -0.1288
12970SOL     OW39817   1.491   5.973   6.251  0.1126  0.0839 -0.0033
12970SOL    HW139818   1.410   5.946   6.294 -0.5205  0.1591 -1.1280
12970SOL    HW239819   1.519   5.896   6.202 -0.1579  0.5614 -0.9228
12971SOL     OW39820   3.799   2.569   2.012 -0.2023 -0.1919  0.2447
12971SOL    HW139821   3.881   2.546   1.969 -0.1263  0.8401 -0.1806
12971SOL    HW239822   3.783   2.660   1.987 -0.6797  0.1122  1.5807
12972SOL     OW39823   1.760   4.351   5.288 -0.8264  0.7841 -0.1274
12972SOL    HW139824   1.705   4.418   5.246 -1.3029  1.1056  0.9755
12972SOL    HW239825   1.769   4.282   5.222 -1.8361  1.1183 -0.6336
12973SOL     OW39826   6.589   7.095   3.951 -0.2118  0.2138  0.6956
12973SOL    HW139827   6.641   7.014   3.952  1.8227  1.4548  1.0411
12973SOL    HW239828   6.615   7.139   3.870 -2.1668  0.0321 -0.0681
12974SOL     OW39829   3.775   4.541   5.072 -0.2434  0.1428 -0.0002
12974SOL    HW139830   3.755   4.554   4.980  0.5884 -3.2917 -0.8095
12974SOL    HW239831   3.797   4.628   5.105 -1.8347  1.6726 -2.6640
12975SOL     OW39832   1.476   6.745   7.050  0.0561 -0.1418 -0.4095
12975SOL    HW139833   1.461   6.714   6.961 -3.4816  2.1391 -0.7758
12975SOL    HW239834   1.419   6.691   7.104 -0.0539  0.4326  0.0504
12976SOL     OW39835   6.828   6.909   3.870  0.3084  0.6051 -0.0462
12976SOL    HW139836   6.840   6.822   3.833 -0.8490  0.2414  0.3894
12976SOL    HW239837   6.840   6.897   3.965 -1.3370  0.5782  0.2013
12977SOL     OW39838   0.905   3.946   4.419  0.0028  0.0191  0.1311
12977SOL    HW139839   0.856   3.872   4.383 -0.8835  1.6969 -2.3217
12977SOL    HW239840   0.931   3.998   4.343  2.9282  0.9046  1.5533
12978SOL     OW39841   4.612   2.871   0.058  0.1515 -0.3206 -0.4502
12978SOL    HW139842   4.548   2.913   0.001  0.1266  1.3477  0.7133
12978SOL    HW239843   4.579   2.886   0.147  1.4772 -0.5753  0.1178
12979SOL     OW39844   4.683   6.955   5.350 -0.5532 -0.3468 -0.4135
12979SOL    HW139845   4.599   6.969   5.307 -1.4531  0.0806  1.3909
12979SOL    HW239846   4.661   6.944   5.443  1.4602  1.0178  0.3028
12980SOL     OW39847   0.360   5.000   6.485 -0.2429  0.1978  0.1745
12980SOL    HW139848   0.349   5.010   6.579  0.3004  0.6649  0.1949
12980SOL    HW239849   0.426   5.065   6.461 -0.9294  0.6311 -0.6471
12981SOL     OW39850   1.668   2.167   3.207 -0.5223  0.3182 -0.0733
12981SOL    HW139851   1.740   2.105   3.213 -0.4881  0.4725  1.2666
12981SOL    HW239852   1.672   2.199   3.116  0.0378 -0.9159 -0.5024
12982SOL     OW39853   4.921   5.750   0.043  0.0525 -0.0785 -0.2848
12982SOL    HW139854   4.987   5.819   0.042  0.8233 -0.7729  0.6680
12982SOL    HW239855   4.971   5.668   0.042 -0.7721 -0.6263  0.8321
12983SOL     OW39856   3.646   0.516   5.245  0.2321 -0.5500 -0.1901
12983SOL    HW139857   3.694   0.532   5.163  0.4207  1.1435  0.2294
12983SOL    HW239858   3.658   0.595   5.296 -0.4198 -1.3400  1.2418
12984SOL     OW39859   7.534   0.419   7.615 -0.0610 -0.5398  0.4645
12984SOL    HW139860   7.479   0.410   7.693 -0.4874  0.6241  0.3173
12984SOL    HW239861   7.522   0.337   7.567 -1.7913 -0.2607  0.3672
12985SOL     OW39862   0.285   4.151   0.098  0.1564  0.3119  0.0025
12985SOL    HW139863   0.242   4.139   0.183 -0.1825  0.3156 -0.1664
12985SOL    HW239864   0.277   4.245   0.080 -1.1015  0.0960 -0.7183
12986SOL     OW39865   2.468   3.544   4.464 -0.0009  0.9130 -0.4427
12986SOL    HW139866   2.515   3.564   4.382  0.9283 -0.7531 -0.3527
12986SOL    HW239867   2.378   3.571   4.447  0.4380  1.7846 -1.5467
12987SOL     OW39868   5.642   3.594   3.237 -0.1680 -0.3342  0.5314
12987SOL    HW139869   5.675   3.679   3.268  0.6806 -0.2404 -0.5605
12987SOL    HW239870   5.562   3.616   3.189 -0.9703 -0.3768  1.8218
12988SOL     OW39871   2.243   6.457   5.578 -0.1323  0.0179  0.0303
12988SOL    HW139872   2.194   6.512   5.639  0.8381 -0.2471  1.0782
12988SOL    HW239873   2.276   6.385   5.631  1.6337  0.3359 -0.5722
12989SOL     OW39874   5.779   0.568   3.389 -0.0710 -0.3629  0.5140
12989SOL    HW139875   5.782   0.637   3.323 -0.2132 -0.7541  0.0895
12989SOL    HW239876   5.767   0.487   3.338  1.8248 -0.9148  0.8515
12990SOL     OW39877   6.268   5.289   5.000  0.1733 -0.0343 -0.2067
12990SOL    HW139878   6.202   5.222   5.015 -0.3763 -0.0542 -2.3404
12990SOL    HW239879   6.261   5.309   4.907  0.9192  2.3750  0.1723
12991SOL     OW39880   5.349   3.005   1.217  0.1282 -0.6729  0.1200
12991SOL    HW139881   5.405   3.077   1.245 -1.4988  1.2771 -1.3592
12991SOL    HW239882   5.279   3.001   1.282  0.8005 -1.7294  0.8177
12992SOL     OW39883   4.877   5.075   0.285  0.4282 -0.1623  0.4242
12992SOL    HW139884   4.971   5.093   0.281  0.2694  0.5261 -0.4760
12992SOL    HW239885   4.849   5.111   0.370  0.4988  2.1627 -0.4687
12993SOL     OW39886   2.174   5.031   1.025  0.2378  0.1984 -0.7372
12993SOL    HW139887   2.138   4.950   1.061 -2.5061  2.0385  1.0556
12993SOL    HW239888   2.101   5.071   0.977  1.1262  2.1363 -0.5772
12994SOL     OW39889   5.992   1.590   4.945 -0.0057  0.5052  0.0132
12994SOL    HW139890   5.984   1.592   4.850 -1.2481  1.2213  0.1110
12994SOL    HW239891   6.086   1.600   4.962  0.0377  2.4499 -1.0893
12995SOL     OW39892   3.012   3.325   2.372 -0.2765 -0.7723  0.4362
12995SOL    HW139893   3.095   3.351   2.411 -0.3789  0.2689 -0.0055
12995SOL    HW239894   2.946   3.351   2.436 -0.5193  1.7632 -0.6928
12996SOL     OW39895   1.507   4.425   0.286  0.6857  0.3449  0.2156
12996SOL    HW139896   1.583   4.398   0.234 -0.0855 -1.8369  0.1200
12996SOL    HW239897   1.544   4.461   0.366  1.8196  0.0851 -0.1685
12997SOL     OW39898   3.150   5.464   4.092  0.2307  0.7161 -0.3116
12997SOL    HW139899   3.231   5.444   4.140  0.2193  2.3402  0.4596
12997SOL    HW239900   3.088   5.398   4.123  1.5652 -1.4899 -1.9888
12998SOL     OW39901   1.980   0.472   6.386  0.2092  0.5159 -0.6015
12998SOL    HW139902   1.982   0.487   6.292  0.6115  1.0166 -0.5184
12998SOL    HW239903   2.065   0.505   6.417 -0.9975  3.0148  0.3305
12999SOL     OW39904   5.982   5.572   7.041  0.3499  0.1135  0.1778
12999SOL    HW139905   6.033   5.648   7.068 -0.6373  0.7834  0.2048
12999SOL    HW239906   5.929   5.603   6.968 -1.0638 -0.1658  1.0522
13000SOL     OW39907   4.567   1.674   1.085  0.3751 -0.1598 -0.5426
13000SOL    HW139908   4.585   1.603   1.146 -0.1196 -1.5530 -1.9507
13000SOL    HW239909   4.633   1.664   1.016  0.2757  0.7227 -0.7765
13001SOL     OW39910   5.029   2.709   3.852 -0.0097  0.2490  0.1590
13001SOL    HW139911   4.980   2.715   3.933 -1.2209  1.8720 -0.6386
13001SOL    HW239912   5.045   2.615   3.840 -0.8644 -0.1052  1.6287
13002SOL     OW39913   4.170   6.420   6.108  0.4800  0.0378  0.0423
13002SOL    HW139914   4.152   6.427   6.202  1.1025 -0.7748  0.2326
13002SOL    HW239915   4.159   6.510   6.075 -0.2075  0.2416  0.7983
13003SOL     OW39916   1.328   2.020   7.309  0.5189  0.5909 -0.1355
13003SOL    HW139917   1.423   2.027   7.297  0.8332 -1.4466  0.8457
13003SOL    HW239918   1.294   1.995   7.223  0.7105  2.2902 -0.7411
13004SOL     OW39919   6.675   6.116   5.815 -0.6873  0.1343  0.6089
13004SOL    HW139920   6.659   6.186   5.878 -0.7143  1.1394 -0.4769
13004SOL    HW239921   6.650   6.154   5.730 -3.7233 -2.2104  0.3064
13005SOL     OW39922   4.118   7.411   2.338 -0.0419  0.2505 -0.7558
13005SOL    HW139923   4.181   7.339   2.331  0.2632  0.4411 -0.0872
13005SOL    HW239924   4.074   7.413   2.253 -0.5373 -1.1498 -0.5500
13006SOL     OW39925   4.583   3.510   4.579 -0.2459 -0.3276 -0.3264
13006SOL    HW139926   4.572   3.600   4.547 -2.9612  0.0753  1.3153
13006SOL    HW239927   4.604   3.459   4.502  3.1890  1.8757 -1.0845
13007SOL     OW39928   4.205   5.980   5.396 -0.2601  0.0668  0.5561
13007SOL    HW139929   4.231   5.979   5.304 -1.3090  0.0919  0.2474
13007SOL    HW239930   4.180   6.071   5.414  0.9169  0.2865  1.1602
13008SOL     OW39931   0.941   0.150   6.484 -0.4825  0.4599 -0.0667
13008SOL    HW139932   1.034   0.170   6.474 -0.6289  1.2582  0.0496
13008SOL    HW239933   0.902   0.170   6.399 -0.2693 -1.6536 -0.6960
13009SOL     OW39934   6.693   1.795   1.059 -0.1436 -0.0242 -0.6169
13009SOL    HW139935   6.622   1.741   1.024 -1.7231  0.5621  1.5093
13009SOL    HW239936   6.689   1.875   1.007 -0.9335 -0.0629 -0.6327
13010SOL     OW39937   7.054   5.780   7.564  0.2825  0.0757  0.3481
13010SOL    HW139938   7.023   5.867   7.589 -0.0636  0.1354 -0.2476
13010SOL    HW239939   7.102   5.748   7.640  1.9836  1.5224 -0.0688
13011SOL     OW39940   2.733   4.486   2.907  0.2368 -0.1204  0.2526
13011SOL    HW139941   2.738   4.573   2.946 -0.6403  0.0711 -0.0245
13011SOL    HW239942   2.791   4.432   2.960 -0.1060  0.3749  1.1542
13012SOL     OW39943   6.585   4.260   5.694  0.4076  0.5989 -0.2237
13012SOL    HW139944   6.594   4.288   5.785 -0.7454 -0.1092  0.1358
13012SOL    HW239945   6.656   4.304   5.647 -0.3429  2.7904  0.6024
13013SOL     OW39946   3.715   0.761   3.433  0.0868 -0.3563  0.5176
13013SOL    HW139947   3.800   0.743   3.473 -0.0841  2.5371  2.4540
13013SOL    HW239948   3.677   0.830   3.487 -2.6650 -0.1650 -1.4614
13014SOL     OW39949   5.523   4.998   3.864  0.1388  0.8381  0.1918
13014SOL    HW139950   5.569   4.952   3.794  1.2436  1.5000  0.4510
13014SOL    HW239951   5.432   4.973   3.854  0.6719 -1.2871  0.2339
13015SOL     OW39952   0.900   0.581   4.075  0.3058 -0.2695  0.4819
13015SOL    HW139953   0.888   0.523   4.000  0.7557  0.0226  0.1810
13015SOL    HW239954   0.948   0.528   4.139 -0.6304 -0.7233  0.8205
13016SOL     OW39955   4.236   6.254   1.147  0.3938 -0.1666 -0.1038
13016SOL    HW139956   4.304   6.317   1.170  0.5102 -0.2547 -0.2063
13016SOL    HW239957   4.209   6.217   1.231  2.0455 -1.7563 -0.2038
13017SOL     OW39958   4.433   4.105   0.245  0.1642  0.0591  0.4141
13017SOL    HW139959   4.401   4.027   0.200  0.2869  0.3143 -0.1269
13017SOL    HW239960   4.374   4.175   0.217  1.0517  0.4896 -0.4280
13018SOL     OW39961   4.166   3.372   1.235 -0.2114 -0.4083  0.2744
13018SOL    HW139962   4.250   3.330   1.252 -0.5034 -1.6311 -1.1178
13018SOL    HW239963   4.173   3.403   1.145 -1.0006  0.1386  0.3920
13019SOL     OW39964   5.594   1.398   0.850 -0.1969 -0.2482 -0.0207
13019SOL    HW139965   5.627   1.410   0.939  0.0538  0.7315 -0.2265
13019SOL    HW239966   5.505   1.432   0.853  0.4310  1.6116 -0.5495
13020SOL     OW39967   5.557   4.537   7.343 -0.3199  0.8561 -0.0368
13020SOL    HW139968   5.492   4.580   7.399 -1.1252  1.9510 -1.7208
13020SOL    HW239969   5.522   4.449   7.329 -0.7947  1.0147  0.1341
13021SOL     OW39970   1.552   6.415   6.396  0.1150 -0.1381  0.3999
13021SOL    HW139971   1.586   6.332   6.364 -1.3739 -0.2230 -1.1143
13021SOL    HW239972   1.580   6.479   6.330  0.5357  0.4241  1.1152
13022SOL     OW39973   5.202   2.633   2.276  0.0696 -0.2213 -0.1435
13022SOL    HW139974   5.277   2.618   2.334  0.0731 -0.9734 -0.3207
13022SOL    HW239975   5.145   2.692   2.325  0.5529 -0.0320  0.1990
13023SOL     OW39976   2.715   2.989   5.136 -0.1043 -0.4064  0.0255
13023SOL    HW139977   2.761   2.955   5.059  2.2788  0.1862  1.1217
13023SOL    HW239978   2.748   2.937   5.209 -1.7549 -0.4337  0.7997
13024SOL     OW39979   3.030   5.741   5.061  0.9282  0.0520  0.0445
13024SOL    HW139980   3.054   5.819   5.012 -1.2443  0.3309 -0.6826
13024SOL    HW239981   2.987   5.773   5.139 -0.6868 -0.3709 -0.6338
13025SOL     OW39982   7.434   1.361   6.648 -0.3897 -0.1677  0.1972
13025SOL    HW139983   7.498   1.392   6.584  0.4857 -1.3716  0.4480
13025SOL    HW239984   7.372   1.308   6.598  0.5018 -1.4141  0.3367
13026SOL     OW39985   4.395   2.359   5.268  0.1420  0.4966 -0.3834
13026SOL    HW139986   4.341   2.280   5.264 -2.0606  1.9255 -0.8375
13026SOL    HW239987   4.332   2.431   5.280  2.1175  2.1304  0.8993
13027SOL     OW39988   7.285   2.222   6.536  0.5870  0.2573 -0.2070
13027SOL    HW139989   7.194   2.242   6.559  1.1209  1.7335  0.7907
13027SOL    HW239990   7.330   2.218   6.620  1.8160  1.6104 -0.7595
13028SOL     OW39991   6.380   5.536   1.167  0.1340 -0.3292 -0.0851
13028SOL    HW139992   6.473   5.550   1.183  0.1066 -0.9193  0.6616
13028SOL    HW239993   6.338   5.614   1.205  0.1772 -1.0955  1.6258
13029SOL     OW39994   3.647   7.089   4.481 -0.1465  0.0132  0.1281
13029SOL    HW139995   3.628   7.038   4.402  2.5454 -1.2101  0.1479
13029SOL    HW239996   3.642   7.180   4.453 -2.6918 -0.2591 -0.5145
13030SOL     OW39997   4.148   4.546   0.761 -0.0836  0.1711  0.0434
13030SOL    HW139998   4.183   4.617   0.815 -2.0873 -0.1604  1.8873
13030SOL    HW239999   4.189   4.467   0.795 -0.1314  0.1216 -0.0123
13031SOL     OW40000   0.191   1.653   6.221 -0.4019 -0.5495 -0.5081
13031SOL    HW140001   0.259   1.597   6.183  1.3809  0.2414  1.3470
13031SOL    HW240002   0.146   1.596   6.284  0.5737 -0.3024  0.4489
13032SOL     OW40003   6.833   4.544   1.389 -0.0754 -0.1811 -0.4194
13032SOL    HW140004   6.870   4.562   1.303 -0.0814  0.5428 -0.2757
13032SOL    HW240005   6.835   4.449   1.397  1.1041 -0.1886 -0.6967
13033SOL     OW40006   4.026   7.123   6.928 -0.2936 -0.2090 -0.0403
13033SOL    HW140007   4.001   7.215   6.919  0.9525  0.0067 -1.9321
13033SOL    HW240008   4.119   7.126   6.951  0.0460 -0.9702 -1.2155
13034SOL     OW40009   4.847   2.261   1.749  0.1204 -0.2526  0.3257
13034SOL    HW140010   4.872   2.279   1.658 -0.4577 -1.6941 -0.1616
13034SOL    HW240011   4.928   2.272   1.799  0.6497 -0.2899 -0.4988
13035SOL     OW40012   4.130   0.946   2.353 -0.3549  0.5473 -0.1323
13035SOL    HW140013   4.082   1.018   2.312 -1.0822  0.5790  0.7475
13035SOL    HW240014   4.185   0.911   2.283 -1.2518  0.8706 -1.0211
13036SOL     OW40015   3.272   1.264   3.350 -0.1466  0.4242  0.0592
13036SOL    HW140016   3.180   1.291   3.345 -0.3555 -0.3488 -0.6063
13036SOL    HW240017   3.321   1.339   3.317 -0.5235  0.9030  0.5712
13037SOL     OW40018   2.221   2.060   3.972  1.0216 -0.1875 -0.2651
13037SOL    HW140019   2.208   2.149   3.940 -0.0434 -0.9250 -1.9856
13037SOL    HW240020   2.243   2.072   4.065 -0.0582  1.8028 -0.2011
13038SOL     OW40021   6.221   0.879   3.960  0.3879  0.1609  0.4492
13038SOL    HW140022   6.230   0.931   4.040  1.2699 -0.8229  1.0176
13038SOL    HW240023   6.154   0.813   3.983 -0.6109  0.9208 -0.2118
13039SOL     OW40024   5.744   1.180   3.411 -0.0405 -0.4764  0.0690
13039SOL    HW140025   5.670   1.236   3.389 -0.2484 -1.2901 -1.4192
13039SOL    HW240026   5.812   1.204   3.348  0.2850 -1.0660  0.1856
13040SOL     OW40027   1.750   6.342   2.899  0.1809  0.1146 -0.1488
13040SOL    HW140028   1.753   6.366   2.806 -1.7911  0.4862 -0.1727
13040SOL    HW240029   1.658   6.357   2.924  0.4680 -0.8566  1.6277
13041SOL     OW40030   5.849   5.627   7.436 -0.4901 -0.2830  0.1500
13041SOL    HW140031   5.772   5.588   7.478 -1.0056  1.1932  0.6549
13041SOL    HW240032   5.815   5.662   7.353 -0.3990  0.4493  0.4142
13042SOL     OW40033   5.744   1.483   0.637  0.0574  0.3178 -0.0608
13042SOL    HW140034   5.676   1.529   0.587  0.4593  0.8319 -0.1456
13042SOL    HW240035   5.697   1.445   0.711 -0.5662 -0.5250 -0.8628
13043SOL     OW40036   6.630   6.023   0.064  0.4384 -0.2867 -0.4107
13043SOL    HW140037   6.561   5.993   0.005 -0.5611  0.5392  0.3110
13043SOL    HW240038   6.635   5.956   0.132  2.0154 -1.5576 -1.7048
13044SOL     OW40039   4.428   1.418   3.536  0.1546 -0.2368  0.0588
13044SOL    HW140040   4.467   1.357   3.473  0.0845  1.2676 -1.5421
13044SOL    HW240041   4.498   1.437   3.598  0.7444 -0.5799 -0.4863
13045SOL     OW40042   5.867   6.215   1.960  0.0751  0.3803 -0.4673
13045SOL    HW140043   5.786   6.245   2.002 -0.8004 -0.8975 -1.1744
13045SOL    HW240044   5.859   6.245   1.870  0.2897  0.0649 -0.5916
13046SOL     OW40045   4.079   6.961   4.249 -0.7165 -0.2254  0.3169
13046SOL    HW140046   4.164   6.988   4.217 -0.3744 -0.6199  0.8689
13046SOL    HW240047   4.018   7.025   4.213 -0.3523 -0.6234 -1.0684
13047SOL     OW40048   2.593   4.357   1.450 -0.6386 -0.3681 -0.1057
13047SOL    HW140049   2.673   4.406   1.465 -0.2009 -1.4037  1.1525
13047SOL    HW240050   2.555   4.396   1.372  0.0647  1.4498  0.4058
13048SOL     OW40051   6.716   4.844   1.892 -0.2199  0.2642  0.1998
13048SOL    HW140052   6.676   4.892   1.964 -1.3055  0.2965 -0.4052
13048SOL    HW240053   6.674   4.879   1.814 -0.9473 -1.5514 -0.2699
13049SOL     OW40054   2.747   5.324   1.566 -0.1822 -0.2168 -0.2665
13049SOL    HW140055   2.693   5.381   1.621 -2.9647 -1.1018 -1.8748
13049SOL    HW240056   2.814   5.290   1.625  1.0894  3.8469  1.0175
13050SOL     OW40057   5.899   1.097   5.912  0.1172  0.3660 -0.2913
13050SOL    HW140058   5.816   1.115   5.956  0.1768  0.5872 -0.2708
13050SOL    HW240059   5.965   1.109   5.980  0.2042  0.6438 -0.4265
13051SOL     OW40060   5.226   6.486   3.578 -0.2281  0.4567  0.5667
13051SOL    HW140061   5.317   6.461   3.590 -0.2081 -1.0365 -2.0747
13051SOL    HW240062   5.179   6.436   3.645  0.6628 -0.6295  0.4133
13052SOL     OW40063   0.692   6.977   3.872 -0.8894 -0.1241  0.1535
13052SOL    HW140064   0.687   6.947   3.963  0.0803  1.1822  0.6739
13052SOL    HW240065   0.674   7.071   3.877 -1.8594 -0.2191 -1.1529
13053SOL     OW40066   6.881   3.161   6.949  0.5228 -0.1714  0.4480
13053SOL    HW140067   6.878   3.247   6.907 -2.9667 -0.8963 -1.1596
13053SOL    HW240068   6.974   3.137   6.948  1.0855  1.4184 -3.6874
13054SOL     OW40069   6.417   5.881   6.908  0.5555  0.6276  0.3630
13054SOL    HW140070   6.423   5.793   6.945  0.4329  0.9759  1.2315
13054SOL    HW240071   6.364   5.930   6.971 -1.1263  0.7973 -1.1109
13055SOL     OW40072   3.348   3.094   5.380  0.5449  0.5770  0.4077
13055SOL    HW140073   3.376   3.073   5.470 -4.3480 -2.2858  1.6175
13055SOL    HW240074   3.285   3.165   5.391 -0.9704 -0.5742 -0.5097
13056SOL     OW40075   0.693   7.334   1.058 -0.2226  0.4549  0.1931
13056SOL    HW140076   0.773   7.375   1.024 -0.8559  1.5737 -0.0113
13056SOL    HW240077   0.643   7.312   0.980  0.4568 -1.5533  0.2537
13057SOL     OW40078   3.599   5.276   1.668 -0.0034 -0.3940 -0.7939
13057SOL    HW140079   3.655   5.202   1.695 -0.2275 -0.7535 -1.3078
13057SOL    HW240080   3.638   5.307   1.587 -0.3227 -0.4023 -0.9520
13058SOL     OW40081   1.911   0.276   4.689  0.4107  0.1034 -0.0644
13058SOL    HW140082   1.826   0.246   4.656  0.4885 -0.4203  0.1991
13058SOL    HW240083   1.964   0.290   4.611  0.4421 -0.6706 -0.1954
13059SOL     OW40084   6.697   5.144   3.838  0.2589 -0.7513 -0.3116
13059SOL    HW140085   6.656   5.112   3.919  1.4548 -0.1033  0.5892
13059SOL    HW240086   6.785   5.172   3.865 -0.2178  2.0049 -1.2974
13060SOL     OW40087   2.476   7.158   6.707  0.1929 -0.6365  0.2014
13060SOL    HW140088   2.417   7.131   6.637  0.3848 -1.5155  0.3608
13060SOL    HW240089   2.557   7.183   6.662  0.7505 -2.3869  0.1526
13061SOL     OW40090   0.177   3.624   6.529 -0.1460  0.3853  0.3619
13061SOL    HW140091   0.250   3.684   6.513 -1.0584  1.3299 -0.4167
13061SOL    HW240092   0.144   3.602   6.441  0.7581 -2.0569  0.5676
13062SOL     OW40093   3.792   0.099   1.536  0.1319  0.0681  0.3799
13062SOL    HW140094   3.851   0.024   1.544 -1.9573 -1.8424 -0.9551
13062SOL    HW240095   3.759   0.095   1.447 -3.3036 -0.0514  1.4874
13063SOL     OW40096   7.149   3.107   7.052 -0.7723  0.0720  0.7252
13063SOL    HW140097   7.145   3.071   7.141  0.1460 -0.2279  0.6576
13063SOL    HW240098   7.174   3.199   7.065 -1.3783  0.2249  0.8127
13064SOL     OW40099   5.246   3.824   0.595 -0.3213 -0.3577  0.8147
13064SOL    HW140100   5.263   3.905   0.545 -0.9109  0.1403  1.4019
13064SOL    HW240101   5.308   3.761   0.560 -1.4532 -0.3635 -1.3526
13065SOL     OW40102   6.909   7.510   3.590 -0.2564 -0.1260  0.3840
13065SOL    HW140103   6.956   7.463   3.521 -0.5242 -0.1776  0.2336
13065SOL    HW240104   6.897   7.445   3.659 -1.4606 -0.5680 -0.2095
13066SOL     OW40105   3.977   5.656   6.719  0.3603  0.3684 -0.3313
13066SOL    HW140106   3.906   5.662   6.782  0.9669  2.2086  0.2288
13066SOL    HW240107   4.047   5.709   6.756  1.2677  0.3040 -1.8675
13067SOL     OW40108   1.949   1.377   3.022  0.0421  0.1670  0.1664
13067SOL    HW140109   2.025   1.387   2.965  2.7408 -0.7601  3.3509
13067SOL    HW240110   1.968   1.430   3.099 -2.1439 -0.8244  1.4957
13068SOL     OW40111   3.656   2.779   2.827 -0.3352  0.0893  0.5684
13068SOL    HW140112   3.571   2.821   2.837 -0.4114  0.2860 -0.6613
13068SOL    HW240113   3.702   2.796   2.909 -0.3649  2.5934  0.1396
13069SOL     OW40114   7.520   3.419   2.830  0.5066  0.5146  0.4569
13069SOL    HW140115   7.532   3.417   2.736  0.5327  1.6567  0.4265
13069SOL    HW240116   7.566   3.498   2.859 -1.8868  1.7898  1.0575
13070SOL     OW40117   7.521   6.985   0.422 -0.4070 -0.3265 -0.1685
13070SOL    HW140118   7.500   7.078   0.411 -0.3460 -0.3151 -0.1912
13070SOL    HW240119   7.505   6.968   0.515 -0.5380 -0.3236 -0.1911
13071SOL     OW40120   0.721   7.493   0.735 -0.4319 -0.1088 -0.5122
13071SOL    HW140121   0.701   7.586   0.724  1.3225  0.7095  2.1950
13071SOL    HW240122   0.778   7.472   0.662 -0.2124  1.1769 -0.7302
13072SOL     OW40123   4.961   4.567   3.086 -0.3598 -0.3547  0.1261
13072SOL    HW140124   4.918   4.617   3.156 -0.6652 -1.6643  0.9142
13072SOL    HW240125   5.055   4.580   3.102 -0.4108 -1.4022  1.3765
13073SOL     OW40126   5.577   3.793   6.153 -0.5620 -0.1826 -0.4036
13073SOL    HW140127   5.650   3.733   6.134 -1.3398 -1.2011 -0.2980
13073SOL    HW240128   5.612   3.854   6.217 -0.8171 -2.9725  2.6706
13074SOL     OW40129   3.641   4.597   3.529 -0.4592  0.0906 -0.2042
13074SOL    HW140130   3.611   4.553   3.608 -0.8511  1.7681  0.6320
13074SOL    HW240131   3.708   4.658   3.559 -0.2609  0.4035 -1.2377
13075SOL     OW40132   6.287   1.448   6.716 -0.0433 -0.0168 -0.3299
13075SOL    HW140133   6.369   1.498   6.712  0.7769 -1.3801 -1.1306
13075SOL    HW240134   6.314   1.356   6.716 -1.5006 -0.5214  1.5313
13076SOL     OW40135   4.513   1.731   2.056 -0.1900  0.0545 -0.0583
13076SOL    HW140136   4.537   1.668   2.124  1.6963 -0.0429 -0.7489
13076SOL    HW240137   4.596   1.759   2.018 -1.1528 -0.4415 -2.8251
13077SOL     OW40138   1.861   7.509   4.681 -0.5694 -0.0014  0.3836
13077SOL    HW140139   1.772   7.506   4.646 -1.0498  0.6755  1.4955
13077SOL    HW240140   1.853   7.560   4.762  0.6177 -0.9696  1.1397
13078SOL     OW40141   4.002   6.921   2.172  0.3904  0.0337  0.1433
13078SOL    HW140142   4.090   6.939   2.138  0.0766  0.3794 -0.4861
13078SOL    HW240143   3.948   6.991   2.137  0.4911  1.8870  3.3029
13079SOL     OW40144   6.743   3.707   4.407  0.0191  0.5498  0.4419
13079SOL    HW140145   6.744   3.775   4.474  1.0353  0.4230  0.5607
13079SOL    HW240146   6.834   3.681   4.397 -0.3067 -0.5163  0.1019
13080SOL     OW40147   4.363   6.334   4.862  0.0709  0.0407  0.1273
13080SOL    HW140148   4.456   6.349   4.844  0.5565 -1.2355  1.4321
13080SOL    HW240149   4.330   6.289   4.784  0.6716 -0.0362 -0.0855
13081SOL     OW40150   7.669   1.791   4.432  0.2718  0.3861  0.3255
13081SOL    HW140151   7.731   1.727   4.398  0.7828  1.1920 -0.2817
13081SOL    HW240152   7.605   1.802   4.361  0.1121  0.4657  0.4806
13082SOL     OW40153   0.610   1.261   2.085 -0.2184 -0.2436 -0.1321
13082SOL    HW140154   0.575   1.242   1.998 -2.0092 -0.1739  0.5194
13082SOL    HW240155   0.670   1.189   2.103  1.1669  0.3985 -1.8958
13083SOL     OW40156   3.524   5.496   2.297 -0.2179  0.0643  0.0565
13083SOL    HW140157   3.569   5.503   2.213 -0.6942  0.3073 -0.1775
13083SOL    HW240158   3.547   5.409   2.329  2.4615  1.0288  1.1084
13084SOL     OW40159   6.353   2.137   1.052 -0.1771 -0.5775 -0.7231
13084SOL    HW140160   6.394   2.217   1.084 -0.9125 -0.5116  0.0733
13084SOL    HW240161   6.411   2.067   1.082  0.5609 -0.3416 -1.5747
13085SOL     OW40162   5.651   6.480   4.628 -0.5599 -0.6745 -0.3380
13085SOL    HW140163   5.619   6.397   4.662  0.8717 -0.2956  2.1217
13085SOL    HW240164   5.745   6.468   4.617 -0.3513  0.5668 -0.0870
13086SOL     OW40165   6.054   6.143   1.100  0.2218  0.1271  0.6037
13086SOL    HW140166   6.003   6.139   1.181 -0.9135  0.9368 -0.0459
13086SOL    HW240167   5.997   6.188   1.038  2.1826  2.2334  0.1859
13087SOL     OW40168   7.501   1.879   5.898  0.4470  0.0266  0.1916
13087SOL    HW140169   7.517   1.890   5.805 -0.2384 -1.3215 -0.1081
13087SOL    HW240170   7.563   1.811   5.926 -0.6356 -0.9581  0.2828
13088SOL     OW40171   4.464   6.685   5.379  0.3840  0.2420  0.6031
13088SOL    HW140172   4.469   6.591   5.395 -1.5451  0.2585  1.6428
13088SOL    HW240173   4.404   6.694   5.306 -0.5884  0.6898  1.4277
13089SOL     OW40174   6.958   1.166   0.362  0.1989  0.1938 -0.2905
13089SOL    HW140175   7.020   1.104   0.325 -1.5433 -1.2049 -0.9916
13089SOL    HW240176   6.921   1.212   0.286 -0.7851 -0.1333 -0.0174
13090SOL     OW40177   4.617   1.648   2.758  0.9279  0.7499  0.8108
13090SOL    HW140178   4.530   1.658   2.720  1.5126  1.2659 -0.4603
13090SOL    HW240179   4.668   1.720   2.721  2.2079 -0.2453  0.5462
13091SOL     OW40180   1.285   4.805   1.634 -0.1437 -0.7700 -0.1678
13091SOL    HW140181   1.266   4.740   1.567 -1.7520 -0.5212  0.0004
13091SOL    HW240182   1.361   4.853   1.601  1.0936 -2.7085 -0.2854
13092SOL     OW40183   4.764   1.095   5.098 -0.2975  0.2202  0.9136
13092SOL    HW140184   4.722   1.027   5.044 -0.9304  1.2893  0.0110
13092SOL    HW240185   4.780   1.052   5.182  1.1523 -1.6688 -0.2330
13093SOL     OW40186   2.956   2.335   4.394  0.2362 -0.5727 -0.6455
13093SOL    HW140187   3.015   2.408   4.373  1.0728  0.0728  3.2178
13093SOL    HW240188   2.874   2.377   4.420 -0.1725 -1.1756 -0.9368
13094SOL     OW40189   4.964   1.069   0.220 -0.9174  0.1492  0.5970
13094SOL    HW140190   4.930   0.990   0.178  0.5334 -0.6937  0.9332
13094SOL    HW240191   4.926   1.141   0.170 -1.6019 -0.7746 -0.2515
13095SOL     OW40192   6.347   2.982   0.968  0.1766  0.5185 -0.7517
13095SOL    HW140193   6.296   2.939   1.036  0.5908  0.0519 -0.7330
13095SOL    HW240194   6.333   3.076   0.984 -1.3124  0.4067 -1.2461
13096SOL     OW40195   7.011   7.142   4.009 -0.5444  0.1847  0.4396
13096SOL    HW140196   6.982   7.178   4.093 -1.3983 -1.4164  0.8748
13096SOL    HW240197   7.103   7.166   4.003 -0.9820  2.1081  0.8467
13097SOL     OW40198   7.132   1.742   7.606 -0.1548  0.7287 -0.1416
13097SOL    HW140199   7.222   1.772   7.591  0.4510 -0.4626  0.8934
13097SOL    HW240200   7.088   1.755   7.522  1.6837 -1.0795 -1.4817
13098SOL     OW40201   2.125   0.559   5.420 -0.4136 -0.1707  0.0789
13098SOL    HW140202   2.161   0.628   5.476  2.5001 -1.4522 -0.0311
13098SOL    HW240203   2.200   0.503   5.400 -2.3080 -2.3994 -1.2787
13099SOL     OW40204   5.229   7.001   2.939 -0.6142  0.3790 -0.1224
13099SOL    HW140205   5.169   7.065   2.900  0.4542  1.8792  0.5748
13099SOL    HW240206   5.245   6.937   2.869 -1.2997  1.1704 -1.0324
13100SOL     OW40207   7.188   1.961   5.684 -0.0472  0.5576  0.9075
13100SOL    HW140208   7.093   1.959   5.682 -0.1059  2.1333 -1.3479
13100SOL    HW240209   7.211   2.053   5.675  1.6631  0.0650 -0.4156
13101SOL     OW40210   2.596   1.005   1.052 -1.1454  0.4364 -0.3389
13101SOL    HW140211   2.655   1.064   1.098 -1.3365  1.0688 -0.8786
13101SOL    HW240212   2.604   0.921   1.098 -0.5420  0.7655  0.1691
13102SOL     OW40213   1.000   0.213   4.394 -0.0246 -0.5892  0.7426
13102SOL    HW140214   0.920   0.238   4.439 -1.3867  0.6433 -2.1119
13102SOL    HW240215   0.970   0.169   4.314  2.1583 -1.0553  0.1168
13103SOL     OW40216   2.005   4.141   0.025 -0.2139 -0.1632  0.0444
13103SOL    HW140217   2.001   4.154  -0.070 -4.0243  1.4647  0.2182
13103SOL    HW240218   2.025   4.228   0.060  0.9993 -0.7117  0.7683
13104SOL     OW40219   4.342   4.951   6.089 -0.1771 -0.3078  0.3277
13104SOL    HW140220   4.329   5.043   6.069 -0.0050 -0.4249 -0.3675
13104SOL    HW240221   4.257   4.920   6.120 -0.5463 -0.1743 -0.5201
13105SOL     OW40222   7.673   7.134   4.868 -0.1612 -0.1439 -0.1116
13105SOL    HW140223   7.662   7.228   4.857  1.7275  0.1117 -0.0991
13105SOL    HW240224   7.591   7.097   4.837 -0.9695  1.4986 -0.0558
13106SOL     OW40225   3.045   5.483   4.963  0.2662  0.0508 -0.0969
13106SOL    HW140226   3.051   5.431   5.044 -0.1334  0.2996  0.0944
13106SOL    HW240227   3.055   5.573   4.992  1.0385  0.0884 -0.4421
13107SOL     OW40228   5.972   5.841   1.513 -0.3400 -0.5334  0.3238
13107SOL    HW140229   5.882   5.867   1.493 -0.0190 -0.7773 -1.7261
13107SOL    HW240230   6.015   5.922   1.541 -1.0416 -0.2946  0.7262
13108SOL     OW40231   2.271   0.744   5.565 -0.0922 -0.0634 -0.1290
13108SOL    HW140232   2.291   0.819   5.510 -1.2581  0.7571  0.5259
13108SOL    HW240233   2.319   0.759   5.646 -2.3462  1.3581  1.0225
13109SOL     OW40234   4.542   7.210   0.311  0.0833  0.1506 -0.0895
13109SOL    HW140235   4.588   7.284   0.351 -0.3114  0.0315  0.5786
13109SOL    HW240236   4.538   7.144   0.379  0.0483 -0.3325 -0.5516
13110SOL     OW40237   3.311   2.971   4.941  0.3435 -0.1718  0.3940
13110SOL    HW140238   3.401   2.945   4.961  0.7881  1.7339  1.1255
13110SOL    HW240239   3.315   3.003   4.850 -0.3017 -2.8793 -0.6735
13111SOL     OW40240   1.003   5.195   2.655  0.2764  0.1888 -0.7647
13111SOL    HW140241   0.971   5.234   2.737  0.3534 -0.2000 -0.5454
13111SOL    HW240242   1.009   5.268   2.594  1.0710  0.6382 -0.1641
13112SOL     OW40243   7.156   0.694   4.259  0.1248 -0.0663 -0.1870
13112SOL    HW140244   7.085   0.691   4.194 -0.8483  1.3850  0.7614
13112SOL    HW240245   7.144   0.777   4.304  1.7544 -0.3207  0.7965
13113SOL     OW40246   0.254   1.127   0.525  0.2903  0.0472 -0.2489
13113SOL    HW140247   0.298   1.147   0.443  0.6012  0.9009  0.1088
13113SOL    HW240248   0.177   1.076   0.500  0.4697  0.1610 -1.0471
13114SOL     OW40249   6.319   0.025   7.379 -0.1653  0.7586  0.4979
13114SOL    HW140250   6.414   0.032   7.391  0.3024 -2.5379 -0.1372
13114SOL    HW240251   6.285   0.007   7.467 -0.0235  0.7594  0.5537
13115SOL     OW40252   0.121   6.382   0.194 -0.1433 -0.2541 -0.1192
13115SOL    HW140253   0.106   6.450   0.129 -0.9769  0.7124  1.0415
13115SOL    HW240254   0.048   6.322   0.183  0.6248 -1.0314 -1.1851
13116SOL     OW40255   6.949   5.437   2.709  0.5487  0.4175  0.0737
13116SOL    HW140256   6.952   5.360   2.766 -0.4565  0.8324  0.7130
13116SOL    HW240257   6.976   5.510   2.765 -0.4676  0.8338  0.0395
13117SOL     OW40258   3.896   0.177   1.033 -0.4954 -0.5663  0.1623
13117SOL    HW140259   3.939   0.220   0.959 -0.0495 -1.2758  0.0047
13117SOL    HW240260   3.877   0.248   1.094  0.5903 -0.1977  0.0814
13118SOL     OW40261   0.240   2.940   4.693 -0.2258  0.0270 -0.2491
13118SOL    HW140262   0.284   2.973   4.615  1.8698  0.8166  1.1821
13118SOL    HW240263   0.302   2.956   4.764 -1.9996 -0.7761  1.5762
13119SOL     OW40264   5.093   6.063   0.690 -0.1526  0.3781 -0.3020
13119SOL    HW140265   5.062   6.000   0.755 -0.6012 -0.7302 -1.5291
13119SOL    HW240266   5.188   6.049   0.686  0.0546  1.2564  0.8917
13120SOL     OW40267   4.050   3.210   4.357  0.1118 -0.0177 -0.5480
13120SOL    HW140268   4.141   3.198   4.328 -0.3572 -1.4903 -1.5120
13120SOL    HW240269   4.016   3.121   4.369 -1.2938  0.5012 -0.4776
13121SOL     OW40270   6.196   3.957   3.961  0.5868 -0.1286 -0.1935
13121SOL    HW140271   6.242   3.881   3.924  1.5293 -0.9979  2.5084
13121SOL    HW240272   6.259   3.997   4.020 -0.8867  0.9655  0.7072
13122SOL     OW40273   3.324   1.018   0.718 -0.4511  0.3126 -0.1267
13122SOL    HW140274   3.281   0.961   0.782 -1.1330  2.3677  1.3642
13122SOL    HW240275   3.347   0.960   0.645 -2.3770 -1.5686  0.6638
13123SOL     OW40276   5.638   4.169   6.859 -0.7486 -0.4654  0.2698
13123SOL    HW140277   5.592   4.092   6.826  0.6892 -0.5829 -1.6900
13123SOL    HW240278   5.618   4.238   6.794 -1.4474  0.6436  1.6086
13124SOL     OW40279   5.946   7.488   0.119  0.2658  1.0602 -0.0321
13124SOL    HW140280   5.949   7.394   0.105 -1.3585  1.1936 -1.5535
13124SOL    HW240281   6.007   7.524   0.054 -2.2121  1.2451 -2.4313
13125SOL     OW40282   7.486   5.084   6.549  0.5417 -0.1434  0.2703
13125SOL    HW140283   7.418   5.021   6.527  0.1012  1.0375 -2.1002
13125SOL    HW240284   7.445   5.170   6.534  1.5472  0.7002  2.0388
13126SOL     OW40285   1.855   0.632   5.396  0.4375 -0.0429  0.4666
13126SOL    HW140286   1.941   0.591   5.402  0.8175  0.6941  0.0495
13126SOL    HW240287   1.800   0.566   5.353  1.1431  0.0477 -0.5839
13127SOL     OW40288   2.436   1.788   3.242 -0.3977 -0.1680 -0.6329
13127SOL    HW140289   2.526   1.812   3.219  0.2226 -0.3056  1.4051
13127SOL    HW240290   2.445   1.706   3.291 -1.7641 -0.7472 -1.2983
13128SOL     OW40291   6.108   2.013   0.999  1.4060  0.4478 -0.1170
13128SOL    HW140292   6.192   2.049   1.029  1.0478  0.4578  0.8888
13128SOL    HW240293   6.047   2.033   1.070  0.3216  1.2919 -1.2416
13129SOL     OW40294   5.228   5.457   4.545  0.6889  0.1099 -0.3816
13129SOL    HW140295   5.171   5.416   4.480  1.5684 -0.3542 -0.8764
13129SOL    HW240296   5.188   5.435   4.629 -0.1820  0.2867 -0.7368
13130SOL     OW40297   5.906   4.887   7.532 -0.0484  0.1498 -0.1583
13130SOL    HW140298   5.843   4.815   7.527  0.8555 -0.5848 -1.6152
13130SOL    HW240299   5.882   4.945   7.461  1.0134 -0.2481 -0.8667
13131SOL     OW40300   2.931   1.985   1.609 -0.6299  0.5699 -0.1446
13131SOL    HW140301   2.961   2.010   1.522 -0.3579 -0.1302 -0.2614
13131SOL    HW240302   3.002   1.930   1.644 -0.9988  0.3551  0.2766
13132SOL     OW40303   1.373   6.733   4.897  0.4078 -0.1584  0.2901
13132SOL    HW140304   1.353   6.652   4.944  1.0202 -0.7688 -0.4815
13132SOL    HW240305   1.320   6.800   4.941  0.3446 -0.8631  1.3053
13133SOL     OW40306   5.055   3.310   5.726  0.4024 -0.0424 -0.0225
13133SOL    HW140307   5.060   3.395   5.684  1.3148 -0.3981 -0.6710
13133SOL    HW240308   5.144   3.274   5.718 -0.0184 -1.1337  0.0543
13134SOL     OW40309   5.785   5.302   1.759  0.4182  0.6520 -0.2135
13134SOL    HW140310   5.691   5.322   1.766  0.3176 -0.1922  1.1321
13134SOL    HW240311   5.828   5.367   1.814  0.5104  0.2335  0.2102
13135SOL     OW40312   4.872   6.607   6.847  0.1282  0.1802 -0.1236
13135SOL    HW140313   4.931   6.605   6.922 -0.7910 -0.0958  0.6037
13135SOL    HW240314   4.827   6.691   6.854 -0.6288 -0.2427  0.1669
13136SOL     OW40315   7.303   3.280   5.456  0.6350  0.1679  0.2137
13136SOL    HW140316   7.337   3.192   5.471 -0.7038 -0.5924 -0.9714
13136SOL    HW240317   7.228   3.287   5.516 -0.7949 -0.4854 -1.4134
13137SOL     OW40318   3.436   2.911   0.511  0.6955 -0.6143 -0.4918
13137SOL    HW140319   3.383   2.891   0.434 -0.9319  0.4769  0.2872
13137SOL    HW240320   3.501   2.974   0.479 -1.4938  1.7853 -0.5845
13138SOL     OW40321   1.458   4.704   2.603  0.2354 -0.6271 -0.4538
13138SOL    HW140322   1.525   4.764   2.572  0.1936 -1.1435 -1.5916
13138SOL    HW240323   1.441   4.732   2.693 -0.0811  1.3080 -1.0660
13139SOL     OW40324   4.890   6.290   5.047 -0.3576 -0.3886  0.4328
13139SOL    HW140325   4.837   6.238   4.987 -0.3517 -2.2976  1.9616
13139SOL    HW240326   4.826   6.336   5.101 -0.3666  0.7244 -0.4869
13140SOL     OW40327   3.392   2.133   3.931 -0.2741 -0.3247 -0.0636
13140SOL    HW140328   3.297   2.148   3.933 -0.1291  0.5712  0.5606
13140SOL    HW240329   3.402   2.050   3.884 -1.4995 -1.5551  1.7153
13141SOL     OW40330   2.580   0.254   5.796 -0.1916  0.1547  0.0029
13141SOL    HW140331   2.512   0.249   5.729 -0.8336  0.4941  0.6261
13141SOL    HW240332   2.611   0.163   5.806 -0.3751  0.0395 -0.4504
13142SOL     OW40333   2.698   5.990   6.804 -0.3334  0.0510  1.2115
13142SOL    HW140334   2.719   6.011   6.894  0.6052 -0.8870  1.2318
13142SOL    HW240335   2.612   5.948   6.808 -0.1160 -0.3537  1.7315
13143SOL     OW40336   3.952   4.407   1.885  0.1705  0.4725  0.3826
13143SOL    HW140337   3.904   4.411   1.803  2.1991  0.7498 -0.8610
13143SOL    HW240338   3.950   4.314   1.909 -0.6047  0.4202  0.1418
13144SOL     OW40339   6.762   4.991   6.326  0.6515 -0.0310  0.1777
13144SOL    HW140340   6.826   4.988   6.396 -0.1719  1.8520  1.0756
13144SOL    HW240341   6.765   5.081   6.294 -0.4518 -0.3081 -0.7944
13145SOL     OW40342   2.430   4.977   3.064 -0.4279 -0.3727 -0.2101
13145SOL    HW140343   2.517   4.975   3.104 -0.0667 -0.7908 -0.9900
13145SOL    HW240344   2.386   4.899   3.099 -0.1346 -0.7039 -0.5655
13146SOL     OW40345   4.374   3.747   3.652 -0.1207  0.0610  0.0375
13146SOL    HW140346   4.372   3.690   3.729 -1.0764  0.4001  0.2787
13146SOL    HW240347   4.370   3.836   3.688  2.7379  0.3979 -0.2529
13147SOL     OW40348   0.067   3.945   0.618  0.4563  0.2258 -0.4914
13147SOL    HW140349   0.160   3.967   0.625  0.2804  1.1837 -0.9822
13147SOL    HW240350   0.030   4.014   0.563 -1.0259  1.2662  1.6466
13148SOL     OW40351   0.379   1.842   1.311  0.2486  0.4340 -0.2879
13148SOL    HW140352   0.293   1.833   1.271 -0.9912  2.4388  1.7025
13148SOL    HW240353   0.435   1.876   1.241 -1.0546  0.9252 -1.1291
13149SOL     OW40354   5.512   6.798   3.378  0.1965  0.2420 -0.4808
13149SOL    HW140355   5.501   6.844   3.461 -0.3696  0.3480 -0.6146
13149SOL    HW240356   5.433   6.817   3.329  0.6726  0.4612 -1.1863
13150SOL     OW40357   1.451   5.427   6.126  0.2319 -0.4414  0.0514
13150SOL    HW140358   1.492   5.450   6.209  0.9158  1.8198 -0.8409
13150SOL    HW240359   1.513   5.367   6.085  1.3835  0.8087 -0.1019
13151SOL     OW40360   1.605   7.705   2.455  0.3151 -0.7351  0.2017
13151SOL    HW140361   1.561   7.715   2.371 -0.1390  0.8186  0.5902
13151SOL    HW240362   1.690   7.668   2.433 -0.7231 -2.7072 -0.6689
13152SOL     OW40363   3.129   7.673   3.920  0.1026  0.0292  0.4558
13152SOL    HW140364   3.035   7.679   3.903  0.3870 -0.4972 -1.5317
13152SOL    HW240365   3.138   7.695   4.013 -2.1816 -1.8911  1.2373
13153SOL     OW40366   4.641   2.227   2.815  0.0308  0.7083  0.1217
13153SOL    HW140367   4.654   2.272   2.899  0.1789  1.6047 -0.3719
13153SOL    HW240368   4.637   2.297   2.751 -1.6495  0.1250 -0.4586
13154SOL     OW40369   2.285   7.595   0.016 -0.0761  0.1749 -0.1899
13154SOL    HW140370   2.270   7.675  -0.035  1.0028 -0.6708 -1.9420
13154SOL    HW240371   2.197   7.566   0.041 -0.5819  1.0873 -0.8382
13155SOL     OW40372   6.973   7.603   5.262  0.2091  0.2494 -0.2888
13155SOL    HW140373   6.937   7.602   5.351 -0.9643 -1.5252 -0.7318
13155SOL    HW240374   6.902   7.640   5.209  0.7009  0.7890 -0.5809
13156SOL     OW40375   7.642   0.147   6.469  0.6751 -0.0229 -0.4790
13156SOL    HW140376   7.672   0.081   6.407  0.6510 -0.7809  0.3023
13156SOL    HW240377   7.709   0.215   6.467  1.1335 -0.4800 -0.6444
13157SOL     OW40378   5.782   1.892   3.220 -0.3177  0.8938 -0.1960
13157SOL    HW140379   5.809   1.930   3.136 -1.4535 -0.0937 -1.0490
13157SOL    HW240380   5.835   1.813   3.228  0.1158  1.2202  0.2662
13158SOL     OW40381   4.286   0.301   3.562  0.3184  0.2766  0.7357
13158SOL    HW140382   4.341   0.339   3.631  0.1442 -0.6027  1.3649
13158SOL    HW240383   4.244   0.226   3.603 -2.1586  1.4674  0.5809
13159SOL     OW40384   7.226   4.785   7.257  0.5479 -0.2883  0.6804
13159SOL    HW140385   7.218   4.879   7.240  2.7077  0.1994  1.9633
13159SOL    HW240386   7.135   4.753   7.260 -0.1977  1.4944 -0.9343
13160SOL     OW40387   3.755   3.392   4.025  0.1698  0.3130  0.5342
13160SOL    HW140388   3.830   3.333   4.034  1.3493  1.6767  0.1070
13160SOL    HW240389   3.794   3.479   4.014 -1.4720  0.9952 -0.3154
13161SOL     OW40390   7.141   3.981   1.983 -0.3251  0.0502  0.5218
13161SOL    HW140391   7.107   4.034   2.056  1.2451  1.7434  0.0884
13161SOL    HW240392   7.226   3.951   2.014 -0.3255 -0.5348 -0.0369
13162SOL     OW40393   1.496   5.089   5.992  0.2098 -0.1552 -0.2663
13162SOL    HW140394   1.479   5.032   6.067 -0.5339  1.3037  0.7423
13162SOL    HW240395   1.410   5.127   5.971  0.5644  0.0921 -1.3253
13163SOL     OW40396   3.053   0.648   5.494 -0.0254 -0.3256  0.2202
13163SOL    HW140397   3.118   0.650   5.564 -0.3298 -1.8651  0.5879
13163SOL    HW240398   2.986   0.711   5.521 -0.0067 -0.7048  1.1993
13164SOL     OW40399   1.516   4.226   6.781  0.2695 -0.1795 -0.1777
13164SOL    HW140400   1.488   4.317   6.778  3.9270  1.1760  0.7981
13164SOL    HW240401   1.524   4.200   6.689 -0.7367  0.5036 -0.4693
13165SOL     OW40402   2.494   2.036   6.000 -0.2668  0.1420 -0.5916
13165SOL    HW140403   2.544   1.955   5.990 -1.6119 -0.8058  0.0699
13165SOL    HW240404   2.530   2.094   5.934  1.6453 -0.5171 -0.1894
13166SOL     OW40405   7.420   3.258   7.004  0.1396 -0.1892 -0.1773
13166SOL    HW140406   7.418   3.338   6.952 -1.9993 -0.6333 -0.8845
13166SOL    HW240407   7.435   3.288   7.094 -1.2203  1.0930 -0.3378
13167SOL     OW40408   4.092   0.339   0.874 -0.1355  0.2446  0.3525
13167SOL    HW140409   4.183   0.309   0.883 -0.0387  0.4131 -0.0520
13167SOL    HW240410   4.084   0.411   0.937 -0.1158 -0.0566  0.7002
13168SOL     OW40411   0.642   2.725   6.301 -0.3399 -0.1166  0.3328
13168SOL    HW140412   0.671   2.781   6.229 -0.4579  0.0034  0.3776
13168SOL    HW240413   0.698   2.751   6.374 -0.6217  0.1822  0.4457
13169SOL     OW40414   3.311   1.696   3.141 -0.8105 -0.1999 -0.1858
13169SOL    HW140415   3.255   1.770   3.121  0.6132  0.5797 -1.4763
13169SOL    HW240416   3.397   1.721   3.109  0.2107 -1.5273  1.3426
13170SOL     OW40417   4.450   3.307   6.998  0.4501 -0.7287  0.0774
13170SOL    HW140418   4.484   3.393   7.022 -1.0350 -0.1047  0.0322
13170SOL    HW240419   4.470   3.298   6.905 -0.8633  0.3197 -0.3352
13171SOL     OW40420   0.296   1.896   1.764  0.3813 -0.0100 -0.0212
13171SOL    HW140421   0.344   1.971   1.730  0.6337  0.5238  1.4235
13171SOL    HW240422   0.332   1.821   1.718 -0.6067  0.8093 -2.2828
13172SOL     OW40423   3.661   4.969   6.051 -0.0798 -0.2419  0.0642
13172SOL    HW140424   3.582   4.937   6.096  1.7603 -3.8587  1.1052
13172SOL    HW240425   3.720   4.994   6.121  0.6773 -0.1663 -0.5932
13173SOL     OW40426   5.933   2.185   7.687 -0.0440  0.0171 -0.7761
13173SOL    HW140427   5.931   2.278   7.708  1.4313 -0.0616 -0.1016
13173SOL    HW240428   5.843   2.163   7.663 -1.0100  1.0702  1.5394
13174SOL     OW40429   5.833   5.703   6.825 -0.5108 -0.3242 -0.2848
13174SOL    HW140430   5.762   5.679   6.885 -0.3026 -1.1325 -0.3586
13174SOL    HW240431   5.827   5.799   6.819  0.0267 -0.1214  1.7074
13175SOL     OW40432   5.419   2.772   1.532 -0.5367 -0.4788 -0.2249
13175SOL    HW140433   5.494   2.818   1.495 -1.1502  0.1536 -0.7088
13175SOL    HW240434   5.384   2.833   1.598 -1.2175 -0.3377 -0.7103
13176SOL     OW40435   5.030   5.267   5.027 -0.5540 -0.6974 -0.1888
13176SOL    HW140436   5.052   5.323   4.953 -2.4087  0.7154  0.2699
13176SOL    HW240437   5.102   5.204   5.031  1.8908  1.8654 -0.4807
13177SOL     OW40438   1.419   1.447   7.231  0.1232 -0.0110 -0.0351
13177SOL    HW140439   1.335   1.402   7.225 -0.7377  1.2007  1.9356
13177SOL    HW240440   1.451   1.451   7.141 -1.2368 -1.7261 -0.6465
13178SOL     OW40441   6.038   1.732   6.003  0.4078  0.5719  0.4079
13178SOL    HW140442   5.965   1.731   6.064  0.5429  0.0602  0.5730
13178SOL    HW240443   6.069   1.641   6.001 -0.4204  0.2892 -1.4242
13179SOL     OW40444   7.531   2.308   3.107  0.0234 -0.2295 -0.0231
13179SOL    HW140445   7.547   2.367   3.181 -2.1170  2.3290 -1.4260
13179SOL    HW240446   7.613   2.308   3.058  0.0685  1.6679 -0.0057
13180SOL     OW40447   3.329   1.500   7.408 -0.1423 -0.4624  0.3399
13180SOL    HW140448   3.346   1.497   7.502  0.4227  1.9233  0.3720
13180SOL    HW240449   3.252   1.445   7.396 -0.5638 -0.3689  2.3014
13181SOL     OW40450   7.389   6.273   7.145 -0.2458  0.4112  0.3420
13181SOL    HW140451   7.378   6.290   7.051 -1.5497 -0.3628  0.3249
13181SOL    HW240452   7.327   6.202   7.163 -0.5231  1.0307  1.9352
13182SOL     OW40453   0.104   0.425   1.614 -0.1503  0.1760 -0.3881
13182SOL    HW140454   0.100   0.329   1.609  0.7827  0.1460 -0.7685
13182SOL    HW240455   0.171   0.443   1.680 -0.2290  0.5631 -0.4098
13183SOL     OW40456   7.361   4.543   2.473 -0.2519  0.0065 -0.2433
13183SOL    HW140457   7.420   4.505   2.407 -2.1777 -1.0123 -1.4700
13183SOL    HW240458   7.373   4.488   2.550  0.0020 -0.5511 -0.6712
13184SOL     OW40459   6.463   0.629   1.860 -0.8455 -0.5143  0.3700
13184SOL    HW140460   6.372   0.615   1.834 -1.0671 -1.1296  1.3935
13184SOL    HW240461   6.458   0.690   1.934 -0.2531  1.0527 -0.8305
13185SOL     OW40462   0.423   1.298   0.679  0.4247  0.2379  0.1885
13185SOL    HW140463   0.364   1.337   0.742 -0.7602  1.2299 -1.4537
13185SOL    HW240464   0.383   1.214   0.656 -0.6766  1.1294 -1.2932
13186SOL     OW40465   4.134   3.171   1.808 -0.3957 -0.3582  0.5080
13186SOL    HW140466   4.058   3.116   1.789  1.9058 -3.8299  0.2532
13186SOL    HW240467   4.167   3.196   1.722  1.1478 -2.7126  0.3153
13187SOL     OW40468   5.101   7.471   3.851 -0.7097  0.2648 -0.1766
13187SOL    HW140469   5.062   7.450   3.935 -0.0158  1.0005  0.3436
13187SOL    HW240470   5.037   7.440   3.786 -1.2915 -0.2141  0.6130
13188SOL     OW40471   4.310   0.994   7.111 -0.1580 -0.0725 -0.2984
13188SOL    HW140472   4.335   0.901   7.105  0.3883  0.1367 -1.8030
13188SOL    HW240473   4.392   1.041   7.100  0.0097  0.6427  3.0921
13189SOL     OW40474   5.136   2.116   6.597 -0.0124 -0.1123 -0.1236
13189SOL    HW140475   5.113   2.205   6.570 -0.0449 -0.3390 -0.8807
13189SOL    HW240476   5.225   2.102   6.564 -0.4016 -0.7232 -0.9516
13190SOL     OW40477   6.463   3.118   7.187  0.4222 -0.3798 -0.1643
13190SOL    HW140478   6.396   3.059   7.220 -0.9729  0.4394 -1.3946
13190SOL    HW240479   6.530   3.061   7.150 -0.1200 -1.2009  0.1155
13191SOL     OW40480   1.291   4.248   0.932  0.3410  0.6709 -0.2494
13191SOL    HW140481   1.269   4.223   1.022  0.1718  1.9221  0.0802
13191SOL    HW240482   1.215   4.298   0.902  1.5372  2.6898 -0.0792
13192SOL     OW40483   1.611   4.741   3.006  0.2277 -0.3706  0.2568
13192SOL    HW140484   1.577   4.728   3.095 -2.5047  1.0102 -0.4605
13192SOL    HW240485   1.698   4.778   3.018 -1.5868  3.8002  2.5742
13193SOL     OW40486   0.183   2.816   2.421 -0.3838 -0.2667 -0.5353
13193SOL    HW140487   0.144   2.897   2.388  0.4809  0.5601  0.4215
13193SOL    HW240488   0.120   2.785   2.487 -2.1365 -1.9454 -2.8319
13194SOL     OW40489   6.257   0.377   6.591  0.5051 -0.6588  0.3076
13194SOL    HW140490   6.182   0.328   6.624 -0.3125  0.5887  0.4028
13194SOL    HW240491   6.332   0.345   6.641 -0.0539 -1.5648  0.5733
13195SOL     OW40492   2.664   2.272   7.552 -0.3952 -0.5596 -0.2364
13195SOL    HW140493   2.748   2.232   7.574 -1.1434 -1.6394  0.7060
13195SOL    HW240494   2.642   2.326   7.628 -1.3490 -1.6136  0.2587
13196SOL     OW40495   2.003   0.666   7.294 -0.3146  0.4093 -0.2304
13196SOL    HW140496   2.024   0.730   7.225 -0.7707 -0.0389 -0.8005
13196SOL    HW240497   1.927   0.704   7.339  0.5299  1.1297  0.6156
13197SOL     OW40498   0.788   5.298   3.951 -0.0722  0.4472 -0.3204
13197SOL    HW140499   0.810   5.317   4.043  2.4397  1.4492 -1.0284
13197SOL    HW240500   0.751   5.210   3.953 -0.7652  0.7183  1.7227
13198SOL     OW40501   1.407   0.448   0.801 -0.2352  0.3887  0.3193
13198SOL    HW140502   1.500   0.426   0.794 -0.2350  0.3509  0.4318
13198SOL    HW240503   1.378   0.401   0.880 -1.0961 -2.2637 -1.4476
13199SOL     OW40504   6.235   0.219   6.247 -0.5250 -0.0573  0.3422
13199SOL    HW140505   6.309   0.263   6.288  0.2198 -0.8694 -0.0994
13199SOL    HW240506   6.158   0.269   6.276  0.0496 -0.0570  1.9778
13200SOL     OW40507   1.435   0.498   6.303  0.2956 -0.3298 -0.0589
13200SOL    HW140508   1.344   0.503   6.272  0.0597 -0.3720  0.6120
13200SOL    HW240509   1.447   0.577   6.355  0.9367  0.1323 -0.8920
13201SOL     OW40510   4.672   2.000   6.414  0.2381 -0.1700 -0.2807
13201SOL    HW140511   4.686   1.987   6.508  1.9170 -3.4217 -0.8382
13201SOL    HW240512   4.730   2.073   6.392 -0.3257  0.7825  1.2146
13202SOL     OW40513   5.268   5.283   3.044 -0.1138  0.1574  0.1661
13202SOL    HW140514   5.222   5.204   3.017  1.4677 -0.1971 -1.7210
13202SOL    HW240515   5.298   5.323   2.963 -0.0397  2.2101  1.1275
13203SOL     OW40516   3.874   1.612   6.185  0.7608 -0.0484  0.3364
13203SOL    HW140517   3.828   1.557   6.249 -1.7645 -0.8044 -1.9382
13203SOL    HW240518   3.907   1.550   6.120  1.7354  0.8165 -0.0037
13204SOL     OW40519   2.424   0.972   2.574  0.0758 -0.0318 -0.2421
13204SOL    HW140520   2.440   1.066   2.569 -0.4620  0.1950  1.4226
13204SOL    HW240521   2.508   0.931   2.553  0.9968  0.9095  1.4172
13205SOL     OW40522   0.801   7.492   3.996 -0.3247  0.3622 -0.2068
13205SOL    HW140523   0.758   7.534   4.071 -0.1733 -0.3177  0.2743
13205SOL    HW240524   0.750   7.412   3.980  0.2155  0.0087 -0.2036
13206SOL     OW40525   6.386   1.271   1.876 -0.2587 -0.2120 -0.6578
13206SOL    HW140526   6.378   1.177   1.859 -0.1788 -0.8630  2.3143
13206SOL    HW240527   6.300   1.307   1.854 -2.0119 -1.9205  2.7108
13207SOL     OW40528   0.245   7.405   2.011 -0.4991 -0.4173  0.2193
13207SOL    HW140529   0.230   7.370   2.099 -0.1117  0.8396  0.8015
13207SOL    HW240530   0.341   7.403   2.001 -0.3744  1.5230  0.7297
13208SOL     OW40531   6.358   1.065   2.184 -0.2747  0.0574  0.1174
13208SOL    HW140532   6.351   1.150   2.141 -0.1101  0.1212  0.2145
13208SOL    HW240533   6.443   1.068   2.229  0.5880 -0.8325 -1.3673
13209SOL     OW40534   2.975   3.787   0.641 -0.3757  0.0133  0.2439
13209SOL    HW140535   2.962   3.879   0.664  0.8371  0.0616  0.8153
13209SOL    HW240536   2.917   3.739   0.700 -1.2054  0.4114 -0.2299
13210SOL     OW40537   1.412   1.399   2.789 -0.3593  0.2158 -0.3415
13210SOL    HW140538   1.441   1.339   2.858  1.4900  1.9547  0.5108
13210SOL    HW240539   1.457   1.368   2.710  1.0191  0.7379  0.2044
13211SOL     OW40540   0.824   3.707   2.829 -0.1497  0.4892  0.0086
13211SOL    HW140541   0.911   3.746   2.829 -0.4676  1.3382  2.1033
13211SOL    HW240542   0.768   3.774   2.788  0.0090  0.3326 -0.4754
13212SOL     OW40543   1.000   3.378   3.944 -0.3782 -0.5729 -0.1820
13212SOL    HW140544   1.074   3.349   3.998  0.6689  1.5029 -0.4200
13212SOL    HW240545   1.037   3.391   3.857 -0.9787  0.6706 -0.2662
13213SOL     OW40546   6.980   3.995   6.383 -0.9800  0.7973  0.9997
13213SOL    HW140547   6.921   3.947   6.324 -0.8807  0.3163  1.2903
13213SOL    HW240548   7.067   3.966   6.358 -0.9586  0.3368  1.6173
13214SOL     OW40549   6.241   0.157   7.075 -0.2548 -0.4285 -0.2559
13214SOL    HW140550   6.184   0.125   7.145 -1.1821 -1.8510 -1.6017
13214SOL    HW240551   6.184   0.211   7.020  0.5064  0.8258  0.1445
13215SOL     OW40552   0.201   5.328   0.558 -0.9881 -0.3098  0.0139
13215SOL    HW140553   0.288   5.367   0.569 -1.1069  0.2221 -0.8455
13215SOL    HW240554   0.198   5.303   0.465 -1.2746 -1.5018  0.3336
13216SOL     OW40555   3.042   0.126   0.009 -0.1992 -0.1624  0.6689
13216SOL    HW140556   3.127   0.170   0.016 -0.6530  1.1908 -1.3005
13216SOL    HW240557   3.040   0.094  -0.082 -2.4746  1.4478  0.0656
13217SOL     OW40558   2.984   4.418   2.622 -0.0471  0.8791 -0.3420
13217SOL    HW140559   3.003   4.389   2.711 -0.6434  0.6335 -0.2852
13217SOL    HW240560   3.007   4.511   2.620 -0.3954  0.9797  0.1843
13218SOL     OW40561   3.449   6.457   2.434  0.0377  0.0677  0.6123
13218SOL    HW140562   3.393   6.504   2.372  2.1290  1.0921 -0.6486
13218SOL    HW240563   3.411   6.370   2.440 -1.8152  0.7944  0.0636
13219SOL     OW40564   7.519   3.644   4.242 -0.1889 -0.2976 -1.3561
13219SOL    HW140565   7.532   3.710   4.174 -0.2606  1.8600  0.6038
13219SOL    HW240566   7.434   3.665   4.280  0.0744 -1.1263 -0.2576
13220SOL     OW40567   0.747   6.569   5.815 -0.3464  0.3083 -0.0239
13220SOL    HW140568   0.747   6.657   5.852  0.3607  0.3809 -0.1899
13220SOL    HW240569   0.828   6.529   5.846  1.2817  1.0293 -2.9749
13221SOL     OW40570   5.993   4.250   2.631  0.0253  0.5768 -0.1749
13221SOL    HW140571   6.032   4.284   2.711  0.5567  4.9950 -2.0138
13221SOL    HW240572   6.066   4.236   2.572 -0.4877 -0.9698 -0.4856
13222SOL     OW40573   4.988   0.402   1.586 -0.0289  0.1497  0.1690
13222SOL    HW140574   5.071   0.355   1.576  0.9179  1.7193  0.2703
13222SOL    HW240575   4.942   0.355   1.655  0.6913 -0.8528 -0.0111
13223SOL     OW40576   4.232   0.341   4.396 -0.0152 -0.6098 -0.2949
13223SOL    HW140577   4.219   0.408   4.462  4.2360  1.4467 -1.2160
13223SOL    HW240578   4.161   0.355   4.333 -0.1856  1.9663  0.3777
13224SOL     OW40579   7.406   4.219   2.505 -0.3034  0.5640 -0.3207
13224SOL    HW140580   7.399   4.172   2.588  0.6709  0.4649 -0.2834
13224SOL    HW240581   7.500   4.232   2.492 -0.4728  1.1167 -1.1096
13225SOL     OW40582   0.820   5.094   4.919  0.1119  0.5381  0.0250
13225SOL    HW140583   0.854   5.170   4.966 -0.9147  0.1595  1.4416
13225SOL    HW240584   0.730   5.084   4.950  0.5421 -1.8747  0.7003
13226SOL     OW40585   6.198   5.579   4.027 -0.0860  0.5761 -0.2116
13226SOL    HW140586   6.115   5.539   4.055 -1.2211  0.6895 -3.0624
13226SOL    HW240587   6.253   5.505   4.002 -0.4509  0.6004 -1.1062
13227SOL     OW40588   2.898   1.313   3.863  0.1761  0.2934 -0.0325
13227SOL    HW140589   2.934   1.311   3.951  0.1837  0.1091 -0.0385
13227SOL    HW240590   2.872   1.222   3.845 -0.1306  0.3901 -0.0941
13228SOL     OW40591   0.817   5.148   5.669  0.1973 -0.3309  0.0927
13228SOL    HW140592   0.820   5.053   5.655  1.4875 -0.4491  1.0569
13228SOL    HW240593   0.832   5.159   5.763 -2.5298  0.7204  0.5027
13229SOL     OW40594   7.737   0.332   0.800  0.1675 -0.0646 -0.7028
13229SOL    HW140595   7.659   0.333   0.854  0.8253  0.6555  0.2622
13229SOL    HW240596   7.800   0.387   0.847  1.8751 -2.0337 -0.5113
13230SOL     OW40597   6.684   4.127   1.438  0.0109 -0.5313  0.1513
13230SOL    HW140598   6.764   4.166   1.402 -0.8551 -0.8483 -2.3308
13230SOL    HW240599   6.699   4.033   1.436 -0.8734 -0.6946 -1.7607
13231SOL     OW40600   5.079   7.332   2.506 -0.4004  0.1090  0.3160
13231SOL    HW140601   5.086   7.426   2.526 -0.7882  0.3723 -0.7065
13231SOL    HW240602   5.168   7.306   2.482 -0.2061  0.1100  1.0255
13232SOL     OW40603   3.460   1.264   6.755  0.2972 -0.0238 -0.1098
13232SOL    HW140604   3.517   1.311   6.816  0.7752  1.6507 -1.7514
13232SOL    HW240605   3.520   1.221   6.694 -0.1097  1.4100 -1.6068
13233SOL     OW40606   0.254   7.153   4.637  0.2746 -0.3188  0.0620
13233SOL    HW140607   0.225   7.099   4.710  2.1752  1.4227  2.2891
13233SOL    HW240608   0.182   7.150   4.574 -1.4961 -1.8749  2.0283
13234SOL     OW40609   2.161   1.320   4.205  0.1548 -0.4682  0.0394
13234SOL    HW140610   2.091   1.386   4.209  1.4069  0.8521  2.0381
13234SOL    HW240611   2.214   1.345   4.130 -0.8791 -0.8424 -0.8393
13235SOL     OW40612   3.498   2.328   2.390 -0.0491 -0.7213 -0.2399
13235SOL    HW140613   3.495   2.381   2.310 -0.8032  1.4575  1.1292
13235SOL    HW240614   3.578   2.357   2.434 -0.7132 -0.3816  0.7519
13236SOL     OW40615   3.102   5.124   4.990 -0.1612 -0.3819 -0.6978
13236SOL    HW140616   3.058   5.046   4.957 -0.5089  0.1966 -1.6325
13236SOL    HW240617   3.191   5.118   4.955 -0.0320 -0.6269 -0.3282
13237SOL     OW40618   4.662   3.139   0.286 -0.2721 -0.4922  0.6045
13237SOL    HW140619   4.688   3.135   0.378 -1.7746 -0.3212  1.0756
13237SOL    HW240620   4.573   3.105   0.285  0.2328 -1.9025 -1.0401
13238SOL     OW40621   0.750   1.066   7.468 -0.6249 -0.9124  0.3020
13238SOL    HW140622   0.719   0.976   7.468 -1.5085 -0.6189  0.6753
13238SOL    HW240623   0.772   1.084   7.376  0.2484 -1.7234  0.3367
13239SOL     OW40624   1.998   3.274   6.338  0.6696 -0.5285  0.5841
13239SOL    HW140625   2.094   3.271   6.333  0.7122 -0.9693  1.4765
13239SOL    HW240626   1.975   3.200   6.394 -0.2737 -1.0849 -0.5178
13240SOL     OW40627   4.713   2.976   6.039  0.2800 -0.1224 -0.0685
13240SOL    HW140628   4.695   3.008   6.127 -2.4153 -1.1395 -0.1568
13240SOL    HW240629   4.807   2.989   6.027  0.5804  0.7416  2.6456
13241SOL     OW40630   7.190   2.993   5.696  0.0277 -0.6053 -0.0578
13241SOL    HW140631   7.139   2.912   5.698 -0.1039 -0.5739 -1.2351
13241SOL    HW240632   7.270   2.969   5.649 -0.0802 -0.0232 -0.5519
13242SOL     OW40633   3.879   4.553   0.244 -0.4292  0.2038 -0.0106
13242SOL    HW140634   3.882   4.457   0.240  2.5896  0.1979  0.0765
13242SOL    HW240635   3.839   4.579   0.161 -0.6557 -1.1143 -0.3427
13243SOL     OW40636   0.708   3.265   1.037 -0.7981 -0.0376  0.7131
13243SOL    HW140637   0.710   3.194   1.101 -1.0077  0.5956  1.4351
13243SOL    HW240638   0.617   3.296   1.038 -0.6878  0.3002  0.4679
13244SOL     OW40639   6.539   1.187   0.762 -0.6030 -0.1237 -0.0448
13244SOL    HW140640   6.565   1.218   0.676 -0.8046 -2.7931 -1.1837
13244SOL    HW240641   6.445   1.205   0.767 -1.0376 -1.7756 -1.3291
13245SOL     OW40642   3.071   6.762   1.296 -0.0873  0.6575  0.2156
13245SOL    HW140643   3.111   6.676   1.286  1.8904  1.6130 -0.7476
13245SOL    HW240644   3.145   6.821   1.315 -1.5475  1.9413  2.3750
13246SOL     OW40645   3.012   4.335   4.364 -0.1329  0.0808 -0.2558
13246SOL    HW140646   2.968   4.250   4.354 -2.3794  1.0221  0.7855
13246SOL    HW240647   3.091   4.327   4.312 -0.0932 -2.7580  0.0543
13247SOL     OW40648   7.133   0.009   0.945  0.1693 -0.3006  0.1542
13247SOL    HW140649   7.218   0.028   0.905 -0.6469  0.1844 -1.4458
13247SOL    HW240650   7.090   0.095   0.951 -0.8849 -0.7395 -0.7350
13248SOL     OW40651   3.959   4.946   7.282  0.0128  0.5831  0.6268
13248SOL    HW140652   3.870   4.971   7.304  0.0623 -0.4357  2.1363
13248SOL    HW240653   3.956   4.924   7.189 -1.1993  0.9677  0.5653
13249SOL     OW40654   4.114   3.695   4.155  0.6301  0.2016  0.3800
13249SOL    HW140655   4.196   3.743   4.147  0.7415  0.3893  2.2280
13249SOL    HW240656   4.136   3.605   4.131  0.6214  0.8093 -2.2095
13250SOL     OW40657   5.244   4.398   6.414  0.2227 -0.1069  0.3430
13250SOL    HW140658   5.294   4.324   6.382 -0.2381 -0.7760  1.1283
13250SOL    HW240659   5.223   4.449   6.335  0.7898 -0.6513 -0.1672
13251SOL     OW40660   1.884   0.787   6.613  0.0561  0.3514 -0.0473
13251SOL    HW140661   1.858   0.701   6.647  0.3639  0.2290 -0.1153
13251SOL    HW240662   1.812   0.845   6.637 -0.4648 -0.0637 -0.5975
13252SOL     OW40663   6.223   2.135   4.484  0.2310 -0.2930  0.3677
13252SOL    HW140664   6.316   2.143   4.503  0.4346  0.6376 -0.8643
13252SOL    HW240665   6.181   2.202   4.538  0.4739  0.3634 -0.2398
13253SOL     OW40666   1.810   5.060   4.712 -0.5856 -0.0089  0.3791
13253SOL    HW140667   1.736   5.080   4.769 -2.8582 -1.0843 -1.9793
13253SOL    HW240668   1.847   4.979   4.748 -0.0929  0.8721  1.9462
13254SOL     OW40669   2.596   3.148   7.598 -0.2500 -0.8026 -0.2771
13254SOL    HW140670   2.608   3.107   7.683 -1.0680 -2.9500 -1.1205
13254SOL    HW240671   2.684   3.160   7.563  0.1072  0.3814  0.9487
13255SOL     OW40672   1.434   4.862   4.298 -0.0461  0.7012  0.2002
13255SOL    HW140673   1.454   4.916   4.222  1.4658  1.4892  1.1063
13255SOL    HW240674   1.504   4.882   4.361  0.3010 -1.9359  0.7786
13256SOL     OW40675   4.806   7.603   1.520  0.3673 -0.9003 -0.5847
13256SOL    HW140676   4.752   7.680   1.503  0.4385 -1.0793 -1.6989
13256SOL    HW240677   4.834   7.574   1.434  0.9584 -1.7400 -0.1257
13257SOL     OW40678   7.665   1.898   1.293 -0.1876  0.2429 -0.2085
13257SOL    HW140679   7.710   1.822   1.329 -1.9845 -0.7501  0.0335
13257SOL    HW240680   7.624   1.867   1.212 -1.8060  0.6426  0.4206
13258SOL     OW40681   0.010   3.291   2.894 -0.6281  0.2176  0.3025
13258SOL    HW140682  -0.014   3.304   2.986  0.0742  0.3175  0.4750
13258SOL    HW240683  -0.065   3.245   2.857 -0.8034 -0.0656  0.9869
13259SOL     OW40684   3.990   0.254   3.937  0.3327 -0.5644 -0.4590
13259SOL    HW140685   3.928   0.326   3.924 -0.1325 -0.8550  0.1039
13259SOL    HW240686   3.947   0.178   3.899 -0.6367 -1.2261  1.8213
13260SOL     OW40687   4.489   0.659   0.815  0.2448 -0.2118 -0.1206
13260SOL    HW140688   4.532   0.717   0.877 -0.3381 -0.1908  0.2740
13260SOL    HW240689   4.510   0.571   0.846  0.5234 -0.2085 -0.2961
13261SOL     OW40690   2.160   0.293   5.692 -0.2950  0.2113  0.0507
13261SOL    HW140691   2.236   0.300   5.750 -1.3154 -0.5000  1.5425
13261SOL    HW240692   2.085   0.305   5.749 -1.4128 -2.1789 -0.7731
13262SOL     OW40693   4.215   0.196   1.821 -0.0346  0.1154  0.1659
13262SOL    HW140694   4.268   0.216   1.899  0.1079  0.0462  0.0874
13262SOL    HW240695   4.247   0.258   1.755 -0.0540  0.0756  0.1197
13263SOL     OW40696   1.884   3.414   2.878 -0.1764 -0.1746  0.2089
13263SOL    HW140697   1.887   3.395   2.972  0.6550  0.3282  0.3004
13263SOL    HW240698   1.803   3.374   2.847 -0.4268 -0.3947  1.1314
13264SOL     OW40699   5.600   6.175   3.481 -0.4571 -0.7433 -0.2418
13264SOL    HW140700   5.537   6.184   3.410 -1.1202  1.3417  0.5221
13264SOL    HW240701   5.665   6.112   3.449 -1.0913 -0.3608 -2.4070
13265SOL     OW40702   0.333   0.330   1.417 -0.1931  0.2448 -0.4409
13265SOL    HW140703   0.349   0.351   1.509  1.5645  0.4716 -0.7650
13265SOL    HW240704   0.246   0.289   1.417 -0.3657  0.5080  1.2605
13266SOL     OW40705   1.456   5.898   2.613 -0.1753 -0.3982  0.1521
13266SOL    HW140706   1.465   5.974   2.556  0.5638 -1.4772 -1.2637
13266SOL    HW240707   1.386   5.920   2.674 -0.9409  0.8404 -1.1395
13267SOL     OW40708   7.697   7.730   2.443  0.3044 -0.2265  0.0668
13267SOL    HW140709   7.705   7.807   2.386  0.2347 -0.2753 -0.0075
13267SOL    HW240710   7.643   7.761   2.516  1.4185  0.2108  0.7444
13268SOL     OW40711   1.214   6.586   7.746  0.0746  0.2878  0.2212
13268SOL    HW140712   1.221   6.539   7.829  0.9157 -0.0472 -0.0244
13268SOL    HW240713   1.144   6.541   7.699  0.9926 -0.8716 -0.0859
13269SOL     OW40714   1.038   7.451   1.211 -0.1887  0.5253  0.9256
13269SOL    HW140715   1.129   7.474   1.229  0.4784  0.3189 -1.8426
13269SOL    HW240716   1.013   7.507   1.138 -1.1272 -1.8379 -0.6594
13270SOL     OW40717   0.979   5.147   0.153 -0.1344 -1.0050  0.7424
13270SOL    HW140718   0.908   5.134   0.090  0.3472 -0.1059 -0.0102
13270SOL    HW240719   0.936   5.144   0.238 -1.1434 -0.0773  0.2834
13271SOL     OW40720   7.339   6.352   1.030 -0.2748  0.0907 -0.5065
13271SOL    HW140721   7.301   6.437   1.054  0.4614  0.6959 -1.4184
13271SOL    HW240722   7.405   6.336   1.098 -1.1137 -0.2626  0.2496
13272SOL     OW40723   2.840   6.878   6.287  1.2104 -0.6551  0.1379
13272SOL    HW140724   2.762   6.885   6.233 -0.8872  1.5394  3.1321
13272SOL    HW240725   2.911   6.909   6.231 -0.3221 -0.9482 -2.0949
13273SOL     OW40726   6.808   3.029   1.346  0.0902 -0.0625  0.5278
13273SOL    HW140727   6.808   2.997   1.256 -1.4094 -0.6646  0.7069
13273SOL    HW240728   6.900   3.039   1.369  0.6364 -3.0652  0.0191
13274SOL     OW40729   1.406   6.384   1.443  0.2525  0.4355  0.1885
13274SOL    HW140730   1.482   6.442   1.447  1.1925 -0.7816  0.8047
13274SOL    HW240731   1.437   6.306   1.396  0.2268 -1.1750  2.6353
13275SOL     OW40732   2.124   4.103   5.971 -0.4979 -0.2090 -0.1958
13275SOL    HW140733   2.161   4.190   5.958  1.0055 -0.4152  2.1699
13275SOL    HW240734   2.029   4.116   5.967 -0.3766  1.8960  1.7695
13276SOL     OW40735   0.602   3.773   1.412 -0.0608 -0.1778 -0.1593
13276SOL    HW140736   0.632   3.697   1.463  0.3717  0.6907  0.9190
13276SOL    HW240737   0.668   3.783   1.343 -0.4926 -1.1861 -0.7445
13277SOL     OW40738   3.025   7.644   4.689 -0.4180 -0.3826  0.1894
13277SOL    HW140739   3.108   7.679   4.723 -0.9296 -0.6270  1.7616
13277SOL    HW240740   2.982   7.605   4.766 -2.3309  0.4062 -0.4192
13278SOL     OW40741   6.541   5.158   4.968  0.3794 -0.8139  0.0001
13278SOL    HW140742   6.450   5.169   4.996  0.3385  0.1201 -0.4600
13278SOL    HW240743   6.579   5.098   5.032 -0.3967 -0.7357  0.5453
13279SOL     OW40744   6.263   3.273   0.706 -0.5001  0.1207  0.0450
13279SOL    HW140745   6.333   3.221   0.666 -0.1639 -0.0625  0.8435
13279SOL    HW240746   6.297   3.296   0.793 -1.3217  0.2687  0.3370
13280SOL     OW40747   1.447   2.209   2.670 -0.1175  0.1943  0.4653
13280SOL    HW140748   1.391   2.280   2.639  0.3215  0.2721 -0.1788
13280SOL    HW240749   1.396   2.165   2.738 -0.6299  0.7579  0.4470
13281SOL     OW40750   4.990   6.916   3.105 -0.0415 -0.0056 -0.2789
13281SOL    HW140751   5.036   6.906   3.021  0.0632 -1.0180 -0.1157
13281SOL    HW240752   5.055   6.953   3.164  0.2834 -0.5115 -0.3101
13282SOL     OW40753   6.244   2.116   1.961  0.3769 -0.0462 -0.3187
13282SOL    HW140754   6.327   2.145   1.924  0.1501 -0.0761 -0.8583
13282SOL    HW240755   6.262   2.030   1.998  0.5764 -0.0724 -0.4770
13283SOL     OW40756   7.204   2.631   1.735  0.1183  0.1573  0.4687
13283SOL    HW140757   7.174   2.585   1.813  0.3949 -2.6852 -0.9796
13283SOL    HW240758   7.128   2.629   1.675  1.0028 -0.9837 -0.6640
13284SOL     OW40759   2.664   5.043   0.853  0.9560 -0.0428  0.1637
13284SOL    HW140760   2.594   4.994   0.897  0.3312  1.4614  0.9091
13284SOL    HW240761   2.656   5.018   0.761 -1.4036  0.9949  0.0056
13285SOL     OW40762   4.114   1.500   2.000 -0.8536 -0.3259 -0.4259
13285SOL    HW140763   4.023   1.527   1.996 -0.3298  1.8445  1.0938
13285SOL    HW240764   4.164   1.581   1.998  1.1114 -1.4719 -1.5853
13286SOL     OW40765   6.655   5.382   2.952  0.0501 -0.1711 -0.2373
13286SOL    HW140766   6.560   5.392   2.966  0.2925 -1.6557  3.6873
13286SOL    HW240767   6.685   5.471   2.933 -1.9373  0.5963 -0.1042
13287SOL     OW40768   1.138   7.053   6.421  0.7354  0.3028 -0.1577
13287SOL    HW140769   1.150   7.096   6.505 -0.7210  0.1542  0.1635
13287SOL    HW240770   1.067   6.990   6.436 -1.2765  1.9620 -2.0584
13288SOL     OW40771   3.728   0.085   6.119  0.0285  0.1846  0.2082
13288SOL    HW140772   3.704   0.139   6.194 -0.6995 -1.5357  1.2821
13288SOL    HW240773   3.787   0.019   6.155  0.5704 -0.0020 -0.9773
13289SOL     OW40774   4.607   7.325   5.691  0.2754  0.4915 -0.2010
13289SOL    HW140775   4.608   7.232   5.713  1.9914  0.1809 -1.3548
13289SOL    HW240776   4.525   7.358   5.728 -1.1797 -1.8063 -1.1359
13290SOL     OW40777   4.918   6.235   5.420 -0.4460  0.2765  0.2762
13290SOL    HW140778   4.877   6.153   5.394 -1.4856  1.2320 -1.3221
13290SOL    HW240779   5.009   6.212   5.437 -1.1600 -1.5620  2.0083
13291SOL     OW40780   2.319   4.003   2.825  0.4236  0.0305 -0.0726
13291SOL    HW140781   2.331   4.038   2.913 -2.7713  2.4109 -0.4234
13291SOL    HW240782   2.228   3.973   2.823  0.3006  0.3624 -2.6433
13292SOL     OW40783   3.630   0.911   0.825  0.3118 -0.2374 -0.0110
13292SOL    HW140784   3.577   0.832   0.814  1.3264 -0.8671 -0.6522
13292SOL    HW240785   3.578   0.968   0.880 -0.8574 -0.9776 -0.3157
13293SOL     OW40786   1.446   4.536   4.888 -0.4648 -0.2453 -0.2921
13293SOL    HW140787   1.542   4.538   4.889 -0.4010 -2.0071  0.1233
13293SOL    HW240788   1.421   4.562   4.977 -0.3998  0.7556 -0.5609
13294SOL     OW40789   2.265   4.258   4.525  0.2097 -0.2323  0.2580
13294SOL    HW140790   2.204   4.201   4.571  0.1339  0.1051  0.5767
13294SOL    HW240791   2.340   4.265   4.584 -0.1753  0.7597  0.6497
13295SOL     OW40792   6.989   1.058   2.135  0.1107 -0.1607 -0.2052
13295SOL    HW140793   7.019   1.136   2.181  0.1872 -0.9371  1.1237
13295SOL    HW240794   7.069   1.016   2.104  0.1818 -0.3984  0.2755
13296SOL     OW40795   3.216   3.713   6.235  0.7664 -0.2772 -0.2779
13296SOL    HW140796   3.208   3.618   6.243  1.4316 -0.5279 -2.2046
13296SOL    HW240797   3.161   3.736   6.160  1.5440  0.6931 -0.5744
13297SOL     OW40798   5.454   5.049   1.644 -0.1738 -0.0810  0.3697
13297SOL    HW140799   5.448   4.988   1.717 -0.4013 -0.0713  0.3612
13297SOL    HW240800   5.524   5.014   1.589 -0.9060 -0.8440 -0.0979
13298SOL     OW40801   2.556   0.689   0.538 -0.0949 -0.5056 -0.4208
13298SOL    HW140802   2.578   0.782   0.548  0.3540 -0.4269 -1.8798
13298SOL    HW240803   2.631   0.642   0.573  0.2708 -0.2938 -0.9153
13299SOL     OW40804   4.088   7.024   2.783  0.5933 -0.2008 -0.3830
13299SOL    HW140805   4.022   7.058   2.844  1.8894 -0.2064  1.0930
13299SOL    HW240806   4.147   6.973   2.839  1.9514 -0.0340 -1.6295
13300SOL     OW40807   1.768   5.074   3.795 -0.1720  0.3541  0.2309
13300SOL    HW140808   1.772   4.998   3.852 -0.0556  0.1320 -0.0682
13300SOL    HW240809   1.759   5.149   3.854  1.5323  0.2771  0.6366
13301SOL     OW40810   0.497   2.608   2.990 -0.5658  0.4232  0.1512
13301SOL    HW140811   0.449   2.559   2.924  0.2741  1.8431 -1.6231
13301SOL    HW240812   0.431   2.659   3.036 -1.1512 -0.5340  0.4059
13302SOL     OW40813   5.330   7.332   7.063  0.0376 -0.2690 -0.0388
13302SOL    HW140814   5.386   7.410   7.056  1.4043 -0.7475  3.5281
13302SOL    HW240815   5.379   7.263   7.019  0.2006  0.2523 -0.6801
13303SOL     OW40816   5.681   6.125   7.041  0.3800  0.0088  0.3611
13303SOL    HW140817   5.731   6.096   7.117  0.5747  0.1777  0.2975
13303SOL    HW240818   5.664   6.044   6.992  1.3629  0.0521 -0.0755
13304SOL     OW40819   7.098   3.825   4.496 -0.5729  0.2687  0.3831
13304SOL    HW140820   7.071   3.883   4.425  0.0460  0.3446  0.2031
13304SOL    HW240821   7.049   3.857   4.573  0.0509  1.2833  0.3778
13305SOL     OW40822   0.928   0.310   3.039  0.1853  0.0556 -0.3501
13305SOL    HW140823   0.845   0.279   3.076 -0.1343 -0.0729 -1.1512
13305SOL    HW240824   0.902   0.375   2.974  0.7951  1.2476  0.5446
13306SOL     OW40825   6.920   2.105   5.830  0.5260  0.2005 -0.3062
13306SOL    HW140826   6.924   2.018   5.790 -0.6320 -0.8448  1.7038
13306SOL    HW240827   6.892   2.163   5.759 -2.3774 -1.7136 -0.9056
13307SOL     OW40828   4.434   0.699   5.117 -0.4598  0.5559 -0.0340
13307SOL    HW140829   4.353   0.714   5.068 -1.2251 -1.1451  0.6380
13307SOL    HW240830   4.437   0.604   5.129  1.5549  0.6029  0.1207
13308SOL     OW40831   6.236   0.983   1.464 -0.6210  0.1900 -0.2462
13308SOL    HW140832   6.173   0.912   1.473  2.2017 -2.4285  0.2396
13308SOL    HW240833   6.253   0.989   1.370 -0.8936  0.3122 -0.2913
13309SOL     OW40834   3.540   2.942   6.249 -0.0314  0.2349  0.5625
13309SOL    HW140835   3.521   2.909   6.337  0.6470 -0.3014  0.5146
13309SOL    HW240836   3.614   3.002   6.262  0.7042 -0.5923  0.2239
13310SOL     OW40837   2.459   5.645   1.052  0.0098  0.4695  0.3265
13310SOL    HW140838   2.553   5.661   1.044  0.1136 -0.5563 -0.8407
13310SOL    HW240839   2.452   5.549   1.059 -0.9914  0.4576 -0.5600
13311SOL     OW40840   6.669   6.125   5.082 -0.0473 -0.4612 -0.1549
13311SOL    HW140841   6.620   6.176   5.018  0.2629  0.3278  0.2184
13311SOL    HW240842   6.614   6.126   5.161  1.2015  1.7799  0.7889
13312SOL     OW40843   7.741   6.767   5.072  0.0726 -0.1052  0.7477
13312SOL    HW140844   7.779   6.680   5.087  2.0223  0.1998 -1.7142
13312SOL    HW240845   7.697   6.760   4.988  1.2278  1.5306 -0.0434
13313SOL     OW40846   0.060   5.779   6.181 -0.3799 -0.1431  0.1968
13313SOL    HW140847   0.113   5.718   6.231  1.5171  1.3285  0.1205
13313SOL    HW240848  -0.024   5.735   6.170 -0.1369 -1.4424  2.7248
13314SOL     OW40849   6.765   3.631   0.646  0.5147  0.4824 -0.3093
13314SOL    HW140850   6.692   3.587   0.689  1.0744  0.0345  0.1928
13314SOL    HW240851   6.753   3.723   0.668 -1.0505  0.7241 -1.9231
13315SOL     OW40852   5.850   2.670   7.526  0.2040  0.3059  0.0662
13315SOL    HW140853   5.864   2.582   7.560 -0.4764 -0.3842 -1.3630
13315SOL    HW240854   5.880   2.666   7.436  1.7716  2.0336  0.4550
13316SOL     OW40855   6.149   4.292   3.757  0.0548 -0.3159 -0.1099
13316SOL    HW140856   6.140   4.334   3.843  0.0161  2.0276 -1.2069
13316SOL    HW240857   6.090   4.217   3.762 -0.4631  0.1403  1.6774
13317SOL     OW40858   5.429   4.271   7.341 -0.7850 -0.1508 -0.4172
13317SOL    HW140859   5.419   4.180   7.367  0.3142 -0.3494 -0.6563
13317SOL    HW240860   5.514   4.275   7.298 -0.1014  1.3123  0.9819
13318SOL     OW40861   3.070   1.229   5.590  0.0899 -0.0592  0.1667
13318SOL    HW140862   3.090   1.215   5.682  2.0510 -0.2203 -0.2403
13318SOL    HW240863   3.014   1.307   5.589  1.5851  1.0853  1.3716
13319SOL     OW40864   4.365   7.678   2.201  0.2787  0.0438  0.1393
13319SOL    HW140865   4.363   7.583   2.186  0.5463  0.2544 -1.3396
13319SOL    HW240866   4.446   7.693   2.250  1.0797 -0.3176 -1.0321
13320SOL     OW40867   7.475   3.838   7.709  0.3452 -0.2137  0.5738
13320SOL    HW140868   7.552   3.828   7.764 -0.1755  2.8320  2.0437
13320SOL    HW240869   7.486   3.923   7.666 -2.7705  1.1417  2.0690
13321SOL     OW40870   4.873   0.276   2.398  0.1176  0.2045 -0.2455
13321SOL    HW140871   4.942   0.232   2.348  0.7376  3.1172 -2.2261
13321SOL    HW240872   4.902   0.272   2.489  1.3976 -1.1464 -0.6750
13322SOL     OW40873   3.872   0.667   6.959  0.0020  0.4508  0.0711
13322SOL    HW140874   3.855   0.635   7.047 -1.7637  0.9870 -0.0460
13322SOL    HW240875   3.941   0.609   6.926  0.2343 -0.1678  1.5566
13323SOL     OW40876   0.903   4.238   0.556  0.2708  0.2538  0.1589
13323SOL    HW140877   0.917   4.277   0.642  0.6176  0.6548 -0.0763
13323SOL    HW240878   0.905   4.143   0.572 -0.9977  0.3223  0.7965
13324SOL     OW40879   5.167   2.701   1.015 -0.4456 -0.2947  0.3069
13324SOL    HW140880   5.220   2.655   1.080 -0.5017  1.2049  1.4697
13324SOL    HW240881   5.111   2.759   1.067 -1.4487 -0.0242 -1.0275
13325SOL     OW40882   5.289   3.200   6.667 -0.3782  0.4612 -0.0920
13325SOL    HW140883   5.199   3.189   6.696 -0.4437  1.3720  0.0691
13325SOL    HW240884   5.295   3.147   6.587 -0.8585 -0.1348  0.2565
13326SOL     OW40885   6.176   0.253   0.532  0.9014  0.2954  0.5013
13326SOL    HW140886   6.141   0.322   0.589  1.4995  0.1670  1.0370
13326SOL    HW240887   6.199   0.298   0.451 -1.2412  0.2540 -0.1899
13327SOL     OW40888   1.075   0.574   3.512 -0.4364 -0.0741  0.2770
13327SOL    HW140889   1.112   0.489   3.535  0.6174 -0.0446 -1.1383
13327SOL    HW240890   1.035   0.606   3.593  1.8779 -0.5067  1.6880
13328SOL     OW40891   4.352   1.374   1.742  0.0573 -0.5494 -0.0352
13328SOL    HW140892   4.370   1.454   1.790  0.1459 -1.1621  0.9865
13328SOL    HW240893   4.437   1.331   1.733 -0.3742 -2.1731  2.4920
13329SOL     OW40894   1.766   5.291   5.612 -0.8864 -0.1109 -0.3253
13329SOL    HW140895   1.801   5.368   5.656 -2.2415  1.9038 -2.5575
13329SOL    HW240896   1.685   5.270   5.659  1.0524 -2.3010  2.3105
13330SOL     OW40897   0.018   4.157   3.914  0.5620 -0.4520 -0.2816
13330SOL    HW140898   0.028   4.095   3.842  3.9287 -1.9211  1.2489
13330SOL    HW240899   0.075   4.230   3.891  2.0569 -1.1551  1.0080
13331SOL     OW40900   5.371   3.472   0.480 -0.1574  0.0856 -0.8764
13331SOL    HW140901   5.424   3.413   0.426  0.6747 -1.1254  1.1478
13331SOL    HW240902   5.302   3.415   0.516 -1.7661  1.2443 -1.9981
13332SOL     OW40903   7.665   1.574   7.084 -0.0193 -0.1561  0.0064
13332SOL    HW140904   7.644   1.574   7.177  1.0115  1.2702  0.2599
13332SOL    HW240905   7.679   1.666   7.061 -0.4886 -0.4509 -1.6167
13333SOL     OW40906   5.287   0.644   3.345 -0.3594 -0.0863 -0.4250
13333SOL    HW140907   5.302   0.664   3.438  0.8922  2.2833 -1.0586
13333SOL    HW240908   5.324   0.557   3.334  0.6537  0.1038  1.0514
13334SOL     OW40909   4.276   6.251   5.658 -0.2725  0.4230 -0.2424
13334SOL    HW140910   4.211   6.183   5.679  0.2804 -0.4394 -1.2360
13334SOL    HW240911   4.274   6.258   5.563  1.0332  0.4297 -0.2886
13335SOL     OW40912   6.310   4.692   7.601 -0.0954 -0.1630 -0.1869
13335SOL    HW140913   6.316   4.599   7.623 -0.0041 -0.5157 -1.5892
13335SOL    HW240914   6.394   4.713   7.562 -0.9005 -0.1264 -2.0304
13336SOL     OW40915   4.264   4.143   7.166  0.3330  0.0927  0.0606
13336SOL    HW140916   4.285   4.222   7.215 -1.2516  1.8787 -1.9472
13336SOL    HW240917   4.207   4.173   7.095 -0.4877 -2.8973 -0.6856
13337SOL     OW40918   3.935   0.787   5.619  0.7215  0.6317 -0.1440
13337SOL    HW140919   3.945   0.882   5.611  4.3417  0.7719  3.0968
13337SOL    HW240920   4.005   0.751   5.565 -0.4007 -0.2825 -1.0544
13338SOL     OW40921   1.470   4.936   0.673  0.1630  0.4636 -0.0103
13338SOL    HW140922   1.466   4.936   0.769  2.4676 -0.3928  0.1406
13338SOL    HW240923   1.382   4.910   0.646 -0.6456  1.0683  1.8376
13339SOL     OW40924   6.655   6.319   4.606 -0.5332 -0.1552  0.2450
13339SOL    HW140925   6.560   6.323   4.613 -0.4520  1.9473  0.6856
13339SOL    HW240926   6.671   6.283   4.519 -1.7062 -1.0679  0.3827
13340SOL     OW40927   0.763   0.089   4.714  0.3554 -0.7824  0.8857
13340SOL    HW140928   0.721   0.003   4.702  1.4548 -1.4269  1.4549
13340SOL    HW240929   0.749   0.109   4.807  0.3880 -0.4980  0.8295
13341SOL     OW40930   2.873   4.808   5.685 -0.5461  0.1737 -0.6634
13341SOL    HW140931   2.931   4.757   5.628 -0.6271  0.2440 -0.8081
13341SOL    HW240932   2.818   4.858   5.626 -2.2895 -1.5543 -0.5881
13342SOL     OW40933   3.068   0.993   4.052 -0.4297 -0.1157 -0.5383
13342SOL    HW140934   3.054   1.085   4.074 -1.3654 -0.8034  2.0307
13342SOL    HW240935   3.146   0.993   3.997  0.9162  2.0296  1.2146
13343SOL     OW40936   6.548   2.878   4.307 -0.2826 -0.7564 -0.1485
13343SOL    HW140937   6.569   2.927   4.228 -1.6571  1.3848  0.7378
13343SOL    HW240938   6.474   2.823   4.282 -0.6318 -0.1801 -0.3849
13344SOL     OW40939   7.041   7.004   6.306 -0.1301 -0.3180  0.3192
13344SOL    HW140940   6.983   6.990   6.381 -0.7040  0.8761  0.1343
13344SOL    HW240941   7.096   7.077   6.332 -0.4926  0.2649 -0.4904
13345SOL     OW40942   4.165   0.115   2.213 -0.3578 -0.5333  0.0706
13345SOL    HW140943   4.251   0.073   2.217 -0.7721 -1.3978  0.1802
13345SOL    HW240944   4.182   0.201   2.176  0.4133 -1.0992 -0.9566
13346SOL     OW40945   6.205   1.385   6.359  0.3464 -0.3102  0.2266
13346SOL    HW140946   6.159   1.465   6.384 -0.3726 -0.9896  1.1585
13346SOL    HW240947   6.265   1.413   6.291 -1.5033  0.6120 -1.1220
13347SOL     OW40948   0.523   2.009   1.997  0.0068 -0.3780 -0.5015
13347SOL    HW140949   0.438   1.971   2.020 -0.5346  1.4440  0.7774
13347SOL    HW240950   0.504   2.065   1.922  0.3330 -0.8705 -0.9563
13348SOL     OW40951   4.022   6.601   4.142  0.1414  0.5965  0.2147
13348SOL    HW140952   4.086   6.587   4.212 -2.0013 -0.4812  2.0907
13348SOL    HW240953   4.054   6.547   4.070  1.7778  0.7542  0.7727
13349SOL     OW40954   7.326   3.816   4.755 -0.3798  0.5729  0.9015
13349SOL    HW140955   7.340   3.778   4.842  0.7107 -0.4937  0.3046
13349SOL    HW240956   7.414   3.839   4.725 -0.6011 -0.1097 -0.3480
13350SOL     OW40957   1.630   3.663   5.903  0.1671  0.3771 -0.0065
13350SOL    HW140958   1.653   3.739   5.849  1.3161  0.8887  1.1719
13350SOL    HW240959   1.693   3.595   5.877  0.7398  0.6328  0.6925
13351SOL     OW40960   1.707   4.376   0.125 -0.6430 -0.1459  0.4176
13351SOL    HW140961   1.749   4.377   0.039  2.6838  0.9046  1.8787
13351SOL    HW240962   1.738   4.296   0.166  1.0095  1.1775  1.9358
13352SOL     OW40963   1.112   2.860   6.649  0.8597  0.0149  0.1244
13352SOL    HW140964   1.196   2.892   6.684  1.3519 -1.3062  0.1881
13352SOL    HW240965   1.134   2.780   6.602 -0.4186 -0.5687  0.4704
13353SOL     OW40966   2.654   7.548   7.018 -0.7417  0.3459  0.0427
13353SOL    HW140967   2.622   7.573   6.931 -0.0414  0.1884 -0.2702
13353SOL    HW240968   2.594   7.478   7.045  0.5828 -1.4991 -1.4929
13354SOL     OW40969   1.918   1.484   5.001  0.2437  0.0093 -0.1190
13354SOL    HW140970   1.929   1.572   5.038  1.2603 -0.5839  1.1016
13354SOL    HW240971   2.003   1.442   5.015 -0.2525 -1.2000 -0.6024
13355SOL     OW40972   4.967   7.237   7.631 -0.5748 -0.4713  0.5055
13355SOL    HW140973   5.025   7.198   7.696  2.0882  0.8201 -0.9270
13355SOL    HW240974   4.942   7.322   7.669 -0.2951 -0.3810  0.4864
13356SOL     OW40975   0.754   1.107   0.017  0.1468  0.1391 -0.2860
13356SOL    HW140976   0.664   1.139   0.005  0.4878  0.7436 -1.3363
13356SOL    HW240977   0.786   1.092  -0.072  1.0722 -0.1278  0.0860
13357SOL     OW40978   6.853   1.607   7.575  0.4146 -0.1036 -0.2903
13357SOL    HW140979   6.861   1.596   7.480  1.9443  1.8346 -0.4364
13357SOL    HW240980   6.890   1.693   7.593  1.7705 -1.1042  2.2808
13358SOL     OW40981   3.538   6.707   4.741  0.2010  0.2120 -0.3381
13358SOL    HW140982   3.597   6.726   4.813 -0.1018  1.0137 -0.2899
13358SOL    HW240983   3.461   6.669   4.783 -0.1215  1.0075 -0.1900
13359SOL     OW40984   4.777   1.728   0.902 -0.6174  0.0514 -0.4743
13359SOL    HW140985   4.786   1.653   0.843  0.1951  0.3971 -0.8142
13359SOL    HW240986   4.840   1.711   0.972 -0.8134  0.1578 -0.2728
13360SOL     OW40987   0.930   5.415   1.574  0.1336 -0.7533 -0.0279
13360SOL    HW140988   0.949   5.388   1.484 -1.3516  0.8319 -0.8979
13360SOL    HW240989   0.854   5.363   1.600  0.0780 -0.6552  0.0080
13361SOL     OW40990   6.115   6.752   0.956  0.3601  0.8594 -0.7817
13361SOL    HW140991   6.163   6.834   0.951 -0.9983  1.6762 -0.8860
13361SOL    HW240992   6.025   6.775   0.931 -0.5694 -0.1883  1.3464
13362SOL     OW40993   1.161   4.207   5.055 -0.5786  0.0335  0.2109
13362SOL    HW140994   1.165   4.164   5.140  0.5370 -1.9371 -0.7617
13362SOL    HW240995   1.246   4.250   5.045  0.3888 -1.9586 -0.9070
13363SOL     OW40996   6.222   6.128   4.546 -0.0777 -0.5046  0.1764
13363SOL    HW140997   6.151   6.109   4.485  0.8085 -0.9603 -0.7371
13363SOL    HW240998   6.185   6.110   4.632 -1.1992 -0.3113 -0.2479
13364SOL     OW40999   6.329   7.149   1.288 -0.0777  0.1605 -0.1523
13364SOL    HW141000   6.376   7.102   1.220  0.0610 -0.3831  0.3132
13364SOL    HW241001   6.318   7.238   1.253  1.5218  0.3803 -0.1773
13365SOL     OW41002   6.565   0.170   2.792  0.0470  0.6585 -0.2772
13365SOL    HW141003   6.642   0.155   2.847  0.8801  0.0463 -1.5499
13365SOL    HW241004   6.580   0.257   2.754 -0.7360  1.2634  0.7740
13366SOL     OW41005   1.459   6.756   2.249  0.0160 -0.5047 -0.2644
13366SOL    HW141006   1.522   6.783   2.317  1.4160  0.3281 -1.8307
13366SOL    HW241007   1.493   6.673   2.217 -0.6402 -0.8911  0.0236
13367SOL     OW41008   4.897   4.353   3.828  0.6468 -0.0916  0.3906
13367SOL    HW141009   4.829   4.412   3.795  1.6554  1.5265  1.0507
13367SOL    HW241010   4.919   4.298   3.753 -0.6954  0.0064 -0.1050
13368SOL     OW41011   2.738   0.792   4.308  0.3740  0.3894  0.0353
13368SOL    HW141012   2.768   0.722   4.366  1.5163  0.2626 -0.6689
13368SOL    HW241013   2.643   0.795   4.321  0.5526  0.0891  1.5777
13369SOL     OW41014   7.309   6.310   6.731  0.2565 -0.2668  0.1151
13369SOL    HW141015   7.370   6.244   6.698 -1.1157 -0.6072 -1.9146
13369SOL    HW241016   7.255   6.263   6.795 -0.7913 -1.2270 -1.3962
13370SOL     OW41017   4.369   1.226   4.000  0.2974  0.5884  0.0331
13370SOL    HW141018   4.463   1.232   3.985  0.3951  0.0720  0.3765
13370SOL    HW241019   4.351   1.287   4.072  0.1278  1.7198 -0.9413
13371SOL     OW41020   6.889   2.648   6.406  0.1376 -0.7692  0.1779
13371SOL    HW141021   6.873   2.661   6.313 -0.1779 -0.6484  0.2469
13371SOL    HW241022   6.871   2.555   6.421 -0.3395 -0.6764  0.2173
13372SOL     OW41023   5.745   6.744   7.647  0.1867 -0.5755  0.3594
13372SOL    HW141024   5.802   6.779   7.715  0.2091 -0.0806  0.0886
13372SOL    HW241025   5.762   6.800   7.571 -0.9634 -0.1642  0.3933
13373SOL     OW41026   0.108   0.177   3.440 -0.5334 -0.0476 -0.3324
13373SOL    HW141027   0.187   0.192   3.492 -0.5753 -1.9731  0.3693
13373SOL    HW241028   0.128   0.101   3.387  0.3855  3.1000 -5.1055
13374SOL     OW41029   0.644   6.356   3.603 -0.6223 -0.5738 -0.6376
13374SOL    HW141030   0.691   6.300   3.665 -0.0837  0.9149  0.3481
13374SOL    HW241031   0.684   6.338   3.519  1.4998  0.3485  0.1095
13375SOL     OW41032   6.822   0.822   1.779 -0.2125 -0.0925  0.0618
13375SOL    HW141033   6.871   0.903   1.766 -2.5458  1.4337  0.2899
13375SOL    HW241034   6.877   0.754   1.738  2.1157  1.4393  0.4532
13376SOL     OW41035   1.679   2.652   6.819 -0.2042  0.0514 -0.1948
13376SOL    HW141036   1.672   2.712   6.893  0.5970  0.9058 -0.7975
13376SOL    HW241037   1.672   2.707   6.742  2.2553 -0.3266 -0.7833
13377SOL     OW41038   3.327   6.679   7.395 -0.5166  0.1776 -0.8678
13377SOL    HW141039   3.375   6.630   7.329  0.1592  0.0675 -0.3072
13377SOL    HW241040   3.380   6.672   7.474 -1.4736  0.0248 -0.2141
13378SOL     OW41041   3.984   5.312   2.340 -0.0566 -0.3981  0.0146
13378SOL    HW141042   3.904   5.279   2.380 -0.1597 -0.9590 -0.6441
13378SOL    HW241043   3.973   5.297   2.246  1.5886 -2.2341  0.0462
13379SOL     OW41044   4.062   0.405   4.178 -0.1463 -0.2061 -0.4537
13379SOL    HW141045   4.011   0.331   4.146 -1.9764  0.9067 -0.2576
13379SOL    HW241046   4.021   0.482   4.138  0.4975  0.8486  0.8094
13380SOL     OW41047   0.083   4.084   6.983 -0.3068 -0.2429 -0.0563
13380SOL    HW141048   0.159   4.072   6.926  0.7630  1.2699  0.9511
13380SOL    HW241049   0.044   3.997   6.990  1.4340 -1.1107 -0.4655
13381SOL     OW41050   6.098   2.993   7.473 -0.7109 -0.2147  0.2921
13381SOL    HW141051   6.181   2.978   7.428 -1.2092  0.9629 -1.0951
13381SOL    HW241052   6.116   3.065   7.533 -0.5946 -0.3420  0.4119
13382SOL     OW41053   3.355   1.447   6.508 -0.0146 -0.3696 -0.5852
13382SOL    HW141054   3.365   1.371   6.566  0.9842 -0.6280 -1.0604
13382SOL    HW241055   3.443   1.460   6.472 -0.2273  0.8966 -0.6641
13383SOL     OW41056   4.783   5.841   1.100  0.1874  0.0308 -0.1042
13383SOL    HW141057   4.772   5.934   1.122 -0.0555  0.6572 -2.5036
13383SOL    HW241058   4.695   5.805   1.102  0.2017  0.0144  0.2142
13384SOL     OW41059   1.478   3.923   7.713 -0.4215  0.1482  0.0412
13384SOL    HW141060   1.486   3.979   7.790 -1.3897  0.7837 -0.3027
13384SOL    HW241061   1.504   3.980   7.640  0.0801 -0.3201 -0.1486
13385SOL     OW41062   6.159   5.699   2.147 -0.5171 -0.0307 -0.2748
13385SOL    HW141063   6.192   5.707   2.058  2.8878 -2.0567  0.6284
13385SOL    HW241064   6.142   5.605   2.158  2.6459 -0.4713  2.1507
13386SOL     OW41065   5.249   5.591   1.509 -0.4523 -0.0636  0.5891
13386SOL    HW141066   5.345   5.585   1.506 -0.5472 -1.4735 -0.2314
13386SOL    HW241067   5.224   5.530   1.578 -0.9400 -2.5905 -1.6984
13387SOL     OW41068   0.816   2.066   3.372  0.6077  0.9161 -0.4213
13387SOL    HW141069   0.868   2.003   3.422  0.3193  0.0646 -1.1741
13387SOL    HW241070   0.790   2.019   3.293 -0.9384  1.4681 -0.2716
13388SOL     OW41071   0.399   6.351   4.452 -0.2462  0.3407  0.4101
13388SOL    HW141072   0.310   6.344   4.419 -0.7827  2.4411  1.2679
13388SOL    HW241073   0.446   6.401   4.385 -0.8196  2.8189  1.7539
13389SOL     OW41074   6.581   6.235   2.494 -0.0197 -0.2236  0.0832
13389SOL    HW141075   6.544   6.147   2.491  0.0088 -0.2493  0.4571
13389SOL    HW241076   6.654   6.232   2.432 -1.1310  0.0690 -1.3049
13390SOL     OW41077   4.471   6.030   2.786 -0.1566  0.3254  0.6888
13390SOL    HW141078   4.392   6.084   2.791 -0.3502  0.3924 -1.8067
13390SOL    HW241079   4.440   5.946   2.752  0.9596  0.8258 -1.7534
13391SOL     OW41080   1.002   2.909   4.914 -0.6560 -0.3473 -0.4585
13391SOL    HW141081   0.977   2.995   4.881 -1.3472 -0.5787 -0.5494
13391SOL    HW241082   1.094   2.918   4.937 -0.7567  0.4511 -0.3522
13392SOL     OW41083   5.009   5.749   2.851  0.0201 -0.3491  0.3786
13392SOL    HW141084   4.923   5.728   2.888 -0.8007  1.0687 -0.6050
13392SOL    HW241085   5.023   5.841   2.874  0.3929 -0.0148 -1.0684
13393SOL     OW41086   4.590   4.097   1.974 -0.1636 -0.2371  0.7014
13393SOL    HW141087   4.621   4.043   2.047 -0.0441  0.1129  0.9134
13393SOL    HW241088   4.528   4.158   2.015 -1.8765 -1.5314  0.1448
13394SOL     OW41089   2.626   3.148   1.357  0.6316  0.4987 -0.7418
13394SOL    HW141090   2.580   3.217   1.403  2.6957  0.2480  1.9384
13394SOL    HW241091   2.694   3.194   1.306  0.0675  0.5965 -1.4230
13395SOL     OW41092   4.529   5.223   6.609 -0.2736 -0.1897 -0.4385
13395SOL    HW141093   4.512   5.316   6.627  1.2579  0.3729 -1.6551
13395SOL    HW241094   4.619   5.209   6.639 -0.8687 -1.6269  0.8332
13396SOL     OW41095   7.706   0.361   3.329 -0.4850  0.0164 -0.5768
13396SOL    HW141096   7.746   0.278   3.353  0.6552  0.7147  0.0056
13396SOL    HW241097   7.776   0.426   3.338 -0.9919  0.8666 -2.2466
13397SOL     OW41098   0.527   5.748   1.225  0.2787  0.0772 -0.8559
13397SOL    HW141099   0.537   5.799   1.305 -2.4610 -1.1065  0.3830
13397SOL    HW241100   0.475   5.804   1.168 -0.0223 -0.0853 -0.7445
13398SOL     OW41101   3.943   1.534   7.177 -0.2557 -0.3315  0.3753
13398SOL    HW141102   4.005   1.465   7.150  0.5823  0.9978 -1.2574
13398SOL    HW241103   3.999   1.608   7.200 -1.1712  1.1873 -1.9431
13399SOL     OW41104   5.048   0.486   6.250  0.0374 -0.0099  0.2214
13399SOL    HW141105   5.133   0.529   6.258  0.9788 -1.3985 -1.5213
13399SOL    HW241106   5.034   0.445   6.336  1.7189 -0.7371  0.1948
13400SOL     OW41107   4.044   4.179   0.688 -0.0017  0.2268 -0.1944
13400SOL    HW141108   4.129   4.174   0.643  0.1446 -0.5243  0.1543
13400SOL    HW241109   3.987   4.223   0.625  0.3805 -0.1777 -0.8424
13401SOL     OW41110   0.701   4.294   1.880  0.2719 -0.0590 -0.5148
13401SOL    HW141111   0.619   4.316   1.925 -0.2438 -1.3762 -0.7571
13401SOL    HW241112   0.758   4.369   1.896  0.1794 -0.4889  2.5157
13402SOL     OW41113   6.483   0.516   6.961  0.4086  0.0966  0.0127
13402SOL    HW141114   6.392   0.488   6.973  0.2782  0.3246 -0.4177
13402SOL    HW241115   6.476   0.607   6.931  0.7128 -0.4581 -1.8562
13403SOL     OW41116   5.416   1.231   5.609 -0.4233  0.3682  0.4449
13403SOL    HW141117   5.417   1.137   5.591  0.1629  0.4552 -0.0086
13403SOL    HW241118   5.452   1.239   5.697 -0.5320  0.1663  0.5091
13404SOL     OW41119   3.369   5.448   0.851 -0.1579 -0.0369  0.0436
13404SOL    HW141120   3.431   5.483   0.915 -1.4744  2.0598  0.2772
13404SOL    HW241121   3.288   5.497   0.867 -1.1285 -0.9168 -1.8740
13405SOL     OW41122   7.669   6.093   1.582  0.1387 -0.0903 -0.3663
13405SOL    HW141123   7.675   6.189   1.577  0.8978 -0.0855  0.3563
13405SOL    HW241124   7.591   6.077   1.636 -0.7230  0.0764 -1.5132
13406SOL     OW41125   5.683   3.833   4.331  0.0699  0.4938 -0.0496
13406SOL    HW141126   5.606   3.878   4.366  0.1828  0.6654 -0.0220
13406SOL    HW241127   5.660   3.740   4.334  0.3705  0.4537  1.1616
13407SOL     OW41128   7.584   3.166   1.914 -0.0559 -0.1173 -0.1372
13407SOL    HW141129   7.625   3.250   1.896  0.3799 -0.2881  0.0582
13407SOL    HW241130   7.574   3.125   1.828 -1.5186  0.7021 -0.3894
13408SOL     OW41131   1.679   7.152   6.203 -0.3814  0.0026  0.7957
13408SOL    HW141132   1.704   7.184   6.116 -0.0170 -0.4945  0.7105
13408SOL    HW241133   1.720   7.066   6.209 -1.4732 -0.5247  0.9585
13409SOL     OW41134   7.598   0.310   1.525  0.2814 -0.4071  0.0658
13409SOL    HW141135   7.563   0.226   1.556  0.1978 -0.3969 -0.0007
13409SOL    HW241136   7.660   0.287   1.457  2.6085 -0.6244  2.1187
13410SOL     OW41137   6.113   2.099   1.473 -0.1802 -0.5908 -0.3208
13410SOL    HW141138   6.191   2.075   1.424  1.1423  0.1770  1.3379
13410SOL    HW241139   6.113   2.042   1.550 -1.1839 -0.4960 -0.2303
13411SOL     OW41140   1.327   5.863   3.288  0.3636  0.2040  0.1469
13411SOL    HW141141   1.252   5.817   3.324  2.1007 -4.0110 -1.0665
13411SOL    HW241142   1.397   5.847   3.351  0.8218  2.3280  0.2540
13412SOL     OW41143   1.218   4.328   6.455  0.4600  0.4740  0.0250
13412SOL    HW141144   1.181   4.261   6.514 -0.4508  0.8265 -0.1310
13412SOL    HW241145   1.301   4.290   6.426 -0.9303 -1.5395 -1.6722
13413SOL     OW41146   3.199   2.588   0.113  0.1091 -0.0445 -0.1376
13413SOL    HW141147   3.191   2.627   0.200 -0.4045  1.7896 -0.9599
13413SOL    HW241148   3.151   2.506   0.119 -0.3761  0.3062  1.1647
13414SOL     OW41149   6.287   1.297   4.385 -0.2850 -0.1096  0.0952
13414SOL    HW141150   6.245   1.212   4.369  0.2299  0.0126 -2.4059
13414SOL    HW241151   6.290   1.305   4.480  0.7484 -3.4646  0.4918
13415SOL     OW41152   4.303   1.512   0.338 -0.3452 -0.2085  0.5980
13415SOL    HW141153   4.383   1.470   0.369  1.3764  3.0469  0.9933
13415SOL    HW241154   4.297   1.487   0.246  1.4628 -0.1087  0.4136
13416SOL     OW41155   4.578   6.306   0.590 -0.4017 -0.0384  0.2344
13416SOL    HW141156   4.655   6.251   0.608  0.7730  1.7491  0.8801
13416SOL    HW241157   4.509   6.268   0.646  0.1557 -1.2890  0.1205
13417SOL     OW41158   0.003   1.976   6.246 -0.2777  0.1266 -0.2029
13417SOL    HW141159   0.016   2.024   6.165  1.0316 -0.1538 -0.1785
13417SOL    HW241160  -0.072   1.920   6.229 -1.1131  1.3169 -0.6171
13418SOL     OW41161   4.577   3.503   7.234 -0.0586  0.1465  0.3158
13418SOL    HW141162   4.629   3.583   7.241 -0.5165  0.3922  1.0073
13418SOL    HW241163   4.569   3.471   7.324 -1.0219  0.0599  0.2069
13419SOL     OW41164   7.578   4.865   1.414 -0.4380 -0.8118  0.4804
13419SOL    HW141165   7.667   4.831   1.403 -0.5536 -0.5532 -1.6909
13419SOL    HW241166   7.526   4.818   1.349 -1.1316  1.6012 -0.8404
13420SOL     OW41167   4.226   1.533   3.725 -0.4488 -0.3674  0.1663
13420SOL    HW141168   4.240   1.625   3.744  1.7107 -0.8827  1.2766
13420SOL    HW241169   4.307   1.503   3.685 -0.6029 -2.0813  1.0246
13421SOL     OW41170   7.631   5.734   7.030  0.1471 -0.2505 -0.1965
13421SOL    HW141171   7.708   5.726   7.087 -0.4807  0.0317  0.7013
13421SOL    HW241172   7.666   5.770   6.948  0.7503  1.4093  0.7499
13422SOL     OW41173   2.268   4.900   3.540 -0.3195  0.2790 -0.4109
13422SOL    HW141174   2.235   4.971   3.595 -1.3259 -0.3238 -0.2069
13422SOL    HW241175   2.335   4.857   3.594 -1.2016 -0.2213  0.3025
13423SOL     OW41176   4.700   6.470   5.144 -0.2338 -0.0205  0.2592
13423SOL    HW141177   4.642   6.521   5.088 -0.2968  0.6100  0.8944
13423SOL    HW241178   4.786   6.511   5.132  0.0369 -0.7722 -0.4595
13424SOL     OW41179   0.039   3.248   6.486  0.3869 -0.1813 -0.5670
13424SOL    HW141180   0.083   3.178   6.533 -0.5108 -0.4359 -0.0790
13424SOL    HW241181   0.110   3.300   6.447  1.0519 -1.5970 -1.3053
13425SOL     OW41182   4.055   2.020   5.053 -0.0785 -0.1116 -0.1606
13425SOL    HW141183   4.000   2.043   4.978  0.6322 -0.2775 -0.7467
13425SOL    HW241184   4.033   1.929   5.072  0.0817 -0.2209 -0.4811
13426SOL     OW41185   5.937   5.347   4.317  0.0362 -0.3262 -0.1450
13426SOL    HW141186   6.018   5.328   4.271  0.1396 -0.6612  0.1648
13426SOL    HW241187   5.935   5.284   4.390  0.0275  0.3854  0.4859
13427SOL     OW41188   5.029   7.390   7.025  0.3351 -0.1100 -0.2240
13427SOL    HW141189   5.123   7.371   7.030  0.4596  0.7313  1.1268
13427SOL    HW241190   5.022   7.483   7.046 -0.7446  0.0265 -1.1103
13428SOL     OW41191   4.506   1.229   5.161  0.0511  0.0306 -0.0162
13428SOL    HW141192   4.579   1.168   5.172 -0.6705 -1.1177 -1.1923
13428SOL    HW241193   4.541   1.299   5.106  0.7906  0.4932  1.0349
13429SOL     OW41194   5.576   5.564   0.108 -0.2046 -0.3669  0.4462
13429SOL    HW141195   5.584   5.572   0.203  1.9999  0.6818  0.2329
13429SOL    HW241196   5.587   5.654   0.075 -1.9646 -0.5548 -0.7699
13430SOL     OW41197   0.426   1.559   2.399 -0.2890 -0.4365  0.1894
13430SOL    HW141198   0.499   1.504   2.370  0.7563 -0.0943  2.0002
13430SOL    HW241199   0.390   1.512   2.475 -0.0900  0.7846  1.0730
13431SOL     OW41200   1.037   7.186   1.168  0.7813 -0.5321  0.5490
13431SOL    HW141201   1.036   7.275   1.203 -2.9759  0.1699 -0.9265
13431SOL    HW241202   1.092   7.192   1.089  0.3878  0.5781  0.3378
13432SOL     OW41203   4.080   1.096   0.295 -0.2391 -0.3381 -0.0291
13432SOL    HW141204   4.115   1.066   0.379  0.2724  1.1173  0.3096
13432SOL    HW241205   4.054   1.187   0.311 -1.4711 -0.4749 -1.0767
13433SOL     OW41206   4.885   6.164   2.392 -0.5899 -0.4081  0.6155
13433SOL    HW141207   4.946   6.187   2.322 -1.1046 -1.3132 -0.1592
13433SOL    HW241208   4.911   6.075   2.418 -1.3170 -0.6444  0.5584
13434SOL     OW41209   5.203   6.232   0.445  0.7168 -0.8242  0.2289
13434SOL    HW141210   5.188   6.168   0.515  1.1664 -0.4546  0.6678
13434SOL    HW241211   5.231   6.178   0.371 -1.6262 -1.4237 -0.2925
13435SOL     OW41212   0.506   0.788   7.505 -0.2981  0.5525 -0.0917
13435SOL    HW141213   0.509   0.692   7.505 -2.3926  0.3976 -2.4268
13435SOL    HW241214   0.465   0.811   7.588  2.1557 -0.3746  1.4829
13436SOL     OW41215   4.351   1.095   1.785  0.5717 -0.5610 -0.4287
13436SOL    HW141216   4.298   1.160   1.738  0.4644 -0.4411 -0.1480
13436SOL    HW241217   4.364   1.134   1.871 -1.1377 -1.7290  0.4290
13437SOL     OW41218   6.883   0.107   3.189 -0.1067  0.5703 -0.5670
13437SOL    HW141219   6.868   0.050   3.264 -0.1525  0.4926 -0.6344
13437SOL    HW241220   6.878   0.196   3.225  3.0543  0.5606  0.1481
13438SOL     OW41221   0.420   7.175   6.069  0.0336 -0.2352  0.4688
13438SOL    HW141222   0.440   7.090   6.031  2.1438  1.0433 -1.4904
13438SOL    HW241223   0.455   7.171   6.158 -1.9013 -2.0858  1.2453
13439SOL     OW41224   0.151   3.208   0.431  0.9864  0.1852 -0.3207
13439SOL    HW141225   0.149   3.163   0.516 -1.8808 -0.5012 -0.6540
13439SOL    HW241226   0.066   3.189   0.392  0.9461  3.1839 -1.9716
13440SOL     OW41227   5.895   3.244   3.987 -0.0547 -0.1928 -0.5052
13440SOL    HW141228   5.931   3.217   3.903 -0.5558 -1.7733 -0.2400
13440SOL    HW241229   5.827   3.307   3.964  0.3266 -0.0277 -1.2259
13441SOL     OW41230   2.069   7.664   6.829 -0.2608  0.3647  0.0236
13441SOL    HW141231   2.015   7.740   6.807  0.1882  1.0496  1.1674
13441SOL    HW241232   2.028   7.628   6.908  0.7108  0.6610  0.6800
13442SOL     OW41233   2.690   3.479   7.567  0.1826 -0.6072  0.1598
13442SOL    HW141234   2.722   3.389   7.563 -1.5454 -1.1984 -2.0092
13442SOL    HW241235   2.595   3.471   7.568 -0.0058  1.1965  1.4370
13443SOL     OW41236   4.154   1.272   3.545  0.2178  0.2643  0.3696
13443SOL    HW141237   4.210   1.217   3.600 -0.0281 -1.3361 -0.8806
13443SOL    HW241238   4.191   1.360   3.552  1.6779 -0.3798  1.1210
13444SOL     OW41239   6.979   2.429   4.931 -0.3032 -0.1747  0.6185
13444SOL    HW141240   7.020   2.500   4.882  0.4474  0.0772  1.5721
13444SOL    HW241241   6.895   2.466   4.960  0.7466  0.9714  2.4665
13445SOL     OW41242   7.378   2.635   2.367  0.3460 -0.3791  0.0311
13445SOL    HW141243   7.402   2.554   2.321  1.9949 -0.5691  1.1384
13445SOL    HW241244   7.369   2.609   2.459  0.3854  0.5910  0.3207
13446SOL     OW41245   3.008   0.093   3.621  0.3981 -0.6802 -0.1400
13446SOL    HW141246   3.064   0.128   3.552  0.6648  0.1438  0.4671
13446SOL    HW241247   2.980   0.007   3.590  1.7189 -0.9531 -0.6127
13447SOL     OW41248   6.161   3.432   0.489  0.1013 -0.0841  0.4174
13447SOL    HW141249   6.146   3.344   0.455 -2.9792  0.6877 -0.5084
13447SOL    HW241250   6.157   3.422   0.584  3.4095 -1.4065  0.5485
13448SOL     OW41251   5.205   6.541   4.197  0.1159 -0.1035 -0.1809
13448SOL    HW141252   5.290   6.577   4.171  0.1791 -0.6267 -0.7182
13448SOL    HW241253   5.177   6.488   4.122  0.0658 -1.2445  0.6091
13449SOL     OW41254   0.545   4.404   6.322  0.4202  0.2474  0.0960
13449SOL    HW141255   0.566   4.311   6.311  1.2300  0.1015  2.3073
13449SOL    HW241256   0.460   4.405   6.366 -0.4904  0.6469 -1.5856
13450SOL     OW41257   4.332   5.060   5.114 -0.3360 -0.1006 -0.2346
13450SOL    HW141258   4.264   5.100   5.169 -0.4699 -0.3397 -0.2250
13450SOL    HW241259   4.329   5.110   5.032  0.2745  0.6517  0.1839
13451SOL     OW41260   5.024   2.949   5.608  0.3569  0.0097  0.5269
13451SOL    HW141261   4.942   2.900   5.616 -0.6833  1.5292 -0.1735
13451SOL    HW241262   5.007   3.011   5.537  1.9883  0.6407  0.6512
13452SOL     OW41263   1.617   7.374   7.543 -0.1127  0.2621  0.6277
13452SOL    HW141264   1.530   7.410   7.531 -0.5731 -1.1714 -0.7652
13452SOL    HW241265   1.614   7.288   7.500  2.1597  0.4580 -0.0808
13453SOL     OW41266   1.319   5.571   4.282 -0.2088 -0.4225 -0.2196
13453SOL    HW141267   1.254   5.556   4.350  0.0243 -0.4661 -0.0041
13453SOL    HW241268   1.271   5.561   4.200 -1.0039  1.7933 -0.0939
13454SOL     OW41269   2.662   1.440   6.500 -0.3122  0.4421 -0.4930
13454SOL    HW141270   2.597   1.393   6.448  0.8455 -0.2581 -1.3572
13454SOL    HW241271   2.701   1.374   6.557 -1.3106  1.1312  1.0552
13455SOL     OW41272   5.298   6.694   5.462 -0.4238 -0.8595 -0.0030
13455SOL    HW141273   5.297   6.603   5.492 -2.0214 -0.7271  0.4856
13455SOL    HW241274   5.262   6.690   5.373 -0.8839 -0.6841  0.1685
13456SOL     OW41275   3.462   0.672   7.476  0.6510 -0.0793  0.1480
13456SOL    HW141276   3.427   0.587   7.448  1.1777 -0.3326  0.2539
13456SOL    HW241277   3.465   0.724   7.395 -2.4404  0.8740  0.5004
13457SOL     OW41278   3.902   0.074   3.233  0.1935 -0.1494 -1.0787
13457SOL    HW141279   3.899   0.074   3.137  2.3355  0.7310 -1.1919
13457SOL    HW241280   3.995   0.067   3.254 -0.2075  0.1077  0.9460
13458SOL     OW41281   6.904   1.617   2.349  0.2365  0.5975 -0.6714
13458SOL    HW141282   6.937   1.640   2.262  1.5383  0.6097 -0.2083
13458SOL    HW241283   6.844   1.688   2.372 -3.2179 -1.3025 -3.1037
13459SOL     OW41284   3.154   6.298   0.327  0.0558  0.4792 -0.0927
13459SOL    HW141285   3.171   6.248   0.247  0.5490 -0.7086  0.7246
13459SOL    HW241286   3.214   6.372   0.322  1.9130 -0.9377  0.3357
13460SOL     OW41287   1.217   5.103   1.032 -0.2382 -0.8431  0.6243
13460SOL    HW141288   1.187   5.034   1.091  0.9468 -0.1947  2.0561
13460SOL    HW241289   1.251   5.171   1.090 -0.3181  0.4426 -0.7873
13461SOL     OW41290   0.191   0.064   5.179  0.9036  0.3776  0.2458
13461SOL    HW141291   0.196  -0.018   5.228  1.1341  0.6700  0.7232
13461SOL    HW241292   0.198   0.132   5.246  1.7745  0.7823 -0.2398
13462SOL     OW41293   2.714   0.332   2.073 -0.1284 -0.2168  0.2159
13462SOL    HW141294   2.625   0.346   2.105  1.0249  0.5521  3.3747
13462SOL    HW241295   2.727   0.400   2.006 -1.0891  1.3435  1.5497
13463SOL     OW41296   0.821   1.490   2.524  0.4268 -0.0719  0.2947
13463SOL    HW141297   0.751   1.465   2.464  1.4063 -0.8653 -0.5418
13463SOL    HW241298   0.784   1.476   2.611 -1.1791  1.5359 -0.0555
13464SOL     OW41299   7.336   4.504   3.378  0.2160 -0.1483  0.3276
13464SOL    HW141300   7.316   4.475   3.289 -1.2177  3.3884 -0.6713
13464SOL    HW241301   7.257   4.484   3.428 -0.4639  1.2352 -0.1628
13465SOL     OW41302   4.505   6.614   2.942 -0.4135  0.4128  0.2917
13465SOL    HW141303   4.454   6.629   2.863  1.2167  0.5754 -0.7787
13465SOL    HW241304   4.517   6.519   2.946 -0.2715  0.4261  0.1878
13466SOL     OW41305   1.969   6.936   1.949  0.6877 -0.6877 -0.2024
13466SOL    HW141306   1.877   6.939   1.925  0.4650 -1.5834  0.5073
13466SOL    HW241307   2.012   6.994   1.885 -0.7724  2.4969  1.4715
13467SOL     OW41308   0.618   2.558   6.989 -0.4240  0.9519 -0.2621
13467SOL    HW141309   0.573   2.477   6.965 -1.0514  0.5658  2.0320
13467SOL    HW241310   0.554   2.627   6.972 -0.2411  0.8871 -1.2766
13468SOL     OW41311   2.437   4.492   4.956  0.0286 -0.1258 -0.0304
13468SOL    HW141312   2.366   4.538   4.912 -0.0550  0.7656  0.9865
13468SOL    HW241313   2.418   4.503   5.050  1.4036 -0.0108  0.2571
13469SOL     OW41314   2.578   0.328   4.526 -0.1449 -0.3839 -0.5265
13469SOL    HW141315   2.625   0.276   4.460 -0.7665 -1.3042 -0.2737
13469SOL    HW241316   2.625   0.309   4.608 -0.2873 -0.4393 -0.4577
13470SOL     OW41317   2.363   1.701   2.102  0.1087 -0.5383 -0.2755
13470SOL    HW141318   2.446   1.666   2.070  0.9570 -0.3762  1.6011
13470SOL    HW241319   2.351   1.661   2.188 -0.1609  1.7778  0.8633
13471SOL     OW41320   6.617   2.442   4.285  0.0329  0.0426 -0.1050
13471SOL    HW141321   6.680   2.417   4.353  2.5502  0.4530 -2.1319
13471SOL    HW241322   6.652   2.524   4.250 -2.4397  1.0219 -0.4305
13472SOL     OW41323   3.205   3.503   7.089 -0.2953  0.2981  0.1728
13472SOL    HW141324   3.170   3.477   7.004  1.1558 -0.8752 -0.1068
13472SOL    HW241325   3.298   3.480   7.084 -0.0845  0.7021  1.8807
13473SOL     OW41326   0.696   5.711   0.976 -0.0603 -0.1943 -0.4786
13473SOL    HW141327   0.606   5.702   0.945 -0.6423  0.4851  0.9362
13473SOL    HW241328   0.688   5.733   1.068  1.5524  0.5519 -0.4739
13474SOL     OW41329   7.503   7.263   0.376  0.6117 -0.2693  0.2484
13474SOL    HW141330   7.575   7.289   0.318 -0.7046  1.1634 -0.8355
13474SOL    HW241331   7.521   7.310   0.458  1.3412 -0.5993  0.2888
13475SOL     OW41332   7.622   2.490   5.016 -0.4013 -0.1572 -0.1843
13475SOL    HW141333   7.569   2.559   5.056  0.0448  1.0007 -1.5152
13475SOL    HW241334   7.574   2.466   4.937  0.1386 -0.4048 -0.4366
13476SOL     OW41335   3.540   3.899   2.927  0.5732  0.3095  0.2581
13476SOL    HW141336   3.533   3.808   2.955 -3.6604 -0.9124 -3.5358
13476SOL    HW241337   3.620   3.902   2.875  2.0609 -0.4821  2.3847
13477SOL     OW41338   6.944   4.253   1.442 -0.4621 -0.0809  0.1390
13477SOL    HW141339   7.025   4.293   1.411 -0.8830 -0.5528 -1.7577
13477SOL    HW241340   6.954   4.247   1.537  0.8748  1.6729  0.1622
13478SOL     OW41341   1.009   7.153   7.468  0.1007  0.6313  0.3370
13478SOL    HW141342   1.080   7.198   7.513  1.0937 -0.6705  0.1329
13478SOL    HW241343   1.024   7.171   7.375 -0.0284  0.6156  0.3126
13479SOL     OW41344   5.782   4.882   6.540  0.5037  0.2285  0.4701
13479SOL    HW141345   5.779   4.909   6.448  0.1573 -1.1565  0.0515
13479SOL    HW241346   5.710   4.931   6.580 -1.9361 -2.0067 -0.8654
13480SOL     OW41347   5.843   1.911   1.445  0.9017  0.3518  0.4719
13480SOL    HW141348   5.801   1.988   1.406  1.4149  0.4952  0.1884
13480SOL    HW241349   5.935   1.937   1.455  1.7668 -1.1981 -2.3525
13481SOL     OW41350   2.182   5.454   3.910 -0.4506  0.3126 -0.0414
13481SOL    HW141351   2.200   5.400   3.987  0.1563  1.1875  0.4324
13481SOL    HW241352   2.091   5.482   3.921 -0.3740  0.4132  0.3438
13482SOL     OW41353   6.245   0.031   6.050  0.2994 -0.8938  0.3876
13482SOL    HW141354   6.223   0.110   6.100  0.5049  0.9391 -2.2100
13482SOL    HW241355   6.327   0.053   6.005 -0.9022 -1.5298 -2.3667
13483SOL     OW41356   5.367   1.243   5.980 -0.3574 -0.0564  0.4882
13483SOL    HW141357   5.392   1.311   6.043 -0.3158  0.4652 -0.0748
13483SOL    HW241358   5.298   1.194   6.023  0.4062 -0.3895  1.3699
13484SOL     OW41359   6.032   3.940   3.368  0.0029 -0.6730  0.2420
13484SOL    HW141360   5.976   4.000   3.417  0.3126  0.6701 -0.9958
13484SOL    HW241361   6.121   3.966   3.391  0.1525 -0.0069 -1.0252
13485SOL     OW41362   0.608   3.888   0.198  0.7795 -0.4033 -0.1819
13485SOL    HW141363   0.583   3.858   0.110  1.6693  0.4861 -0.7499
13485SOL    HW241364   0.533   3.864   0.253 -0.8943  1.2004 -1.6404
13486SOL     OW41365   0.978   2.650   0.785  1.0243  0.1870 -0.0036
13486SOL    HW141366   0.912   2.667   0.717 -0.8869  0.2298  1.7448
13486SOL    HW241367   0.975   2.727   0.841  0.2167 -1.1255  1.8641
13487SOL     OW41368   5.090   1.510   3.004  0.3220 -0.2333 -0.5126
13487SOL    HW141369   5.015   1.548   3.051 -0.4476 -2.3157  0.0820
13487SOL    HW241370   5.167   1.548   3.047 -0.3864 -0.9583  1.5466
13488SOL     OW41371   7.516   5.564   3.037  0.1352 -0.3034 -0.1017
13488SOL    HW141372   7.470   5.511   2.971  0.0692  0.1253 -0.4061
13488SOL    HW241373   7.537   5.646   2.991 -3.5192  1.7746  1.4724
13489SOL     OW41374   2.262   4.831   5.897 -0.3089  0.1437  0.9484
13489SOL    HW141375   2.220   4.753   5.933 -0.3770  0.6508  1.9867
13489SOL    HW241376   2.204   4.903   5.920 -0.9157  0.3909 -1.1194
13490SOL     OW41377   0.017   3.049   3.183 -0.1085  0.0516 -0.6858
13490SOL    HW141378  -0.037   3.128   3.190 -0.6541 -0.4261  1.5164
13490SOL    HW241379   0.103   3.080   3.157 -0.6566  1.2042 -1.1726
13491SOL     OW41380   5.212   3.862   5.652 -0.1759  0.0492 -0.1257
13491SOL    HW141381   5.136   3.920   5.652  0.6994  1.2392 -0.0503
13491SOL    HW241382   5.212   3.821   5.566 -0.7521  0.2418 -0.2193
13492SOL     OW41383   7.370   2.668   7.344 -0.3283  0.1946 -0.1844
13492SOL    HW141384   7.304   2.635   7.283 -1.1928 -0.6976  1.1679
13492SOL    HW241385   7.333   2.649   7.431  1.5120  0.0677  0.6096
13493SOL     OW41386   0.456   6.477   1.914 -0.1001 -0.4451 -0.4062
13493SOL    HW141387   0.528   6.522   1.872  0.4726 -0.7949  0.1796
13493SOL    HW241388   0.403   6.546   1.954 -1.9812  0.1543 -3.5656
13494SOL     OW41389   3.717   2.896   6.581  0.3816 -0.0214 -0.2379
13494SOL    HW141390   3.785   2.947   6.538  0.0560 -0.3847 -1.1931
13494SOL    HW241391   3.765   2.835   6.637  0.7883  0.7939  0.3304
13495SOL     OW41392   0.095   5.820   2.039  0.7082  0.4954  0.3808
13495SOL    HW141393   0.169   5.842   2.096  0.4028 -1.1252  1.4924
13495SOL    HW241394   0.024   5.798   2.099 -0.4399  1.1945 -0.6676
13496SOL     OW41395   4.742   3.981   5.071  0.2909 -0.3982 -0.4071
13496SOL    HW141396   4.689   3.906   5.097 -0.5875  0.7260  1.2860
13496SOL    HW241397   4.731   4.044   5.143  1.8028  0.9457 -1.2740
13497SOL     OW41398   6.795   2.779   1.449 -0.3680  0.3024 -0.4107
13497SOL    HW141399   6.838   2.800   1.532  0.8390 -0.4163 -0.8360
13497SOL    HW241400   6.800   2.861   1.399  0.0185  0.3844 -0.2432
13498SOL     OW41401   5.421   6.779   4.713  0.1374  0.1110  0.0425
13498SOL    HW141402   5.486   6.752   4.778  0.7241  2.5069  0.5596
13498SOL    HW241403   5.337   6.771   4.759  0.5610  1.9474  1.2355
13499SOL     OW41404   0.738   4.498   4.742  0.3730 -0.2059  0.4353
13499SOL    HW141405   0.713   4.460   4.827  0.6364 -1.7819 -0.1532
13499SOL    HW241406   0.665   4.476   4.684  0.2697  0.7289  0.2003
13500SOL     OW41407   5.862   4.113   3.499  0.4473  0.6964 -0.0565
13500SOL    HW141408   5.793   4.154   3.551 -1.0060 -1.2674 -0.2958
13500SOL    HW241409   5.927   4.085   3.563 -0.0351  0.6542  0.4243
13501SOL     OW41410   2.596   4.380   2.151 -0.2661  0.2165  0.1399
13501SOL    HW141411   2.666   4.420   2.099 -0.2871  2.2501  1.5590
13501SOL    HW241412   2.636   4.302   2.188  0.6160  0.2614 -0.6655
13502SOL     OW41413   5.733   6.486   1.066  0.4182  0.1244 -0.1550
13502SOL    HW141414   5.822   6.517   1.052  0.4067  0.2913  0.1316
13502SOL    HW241415   5.726   6.474   1.160  0.5872 -1.2787 -0.3104
13503SOL     OW41416   0.270   1.651   5.140 -0.0205  0.2950 -0.2897
13503SOL    HW141417   0.187   1.648   5.093 -0.7411  0.9046  0.8902
13503SOL    HW241418   0.255   1.601   5.220  1.4614 -1.4901 -1.0452
13504SOL     OW41419   2.251   4.885   2.252  0.6118  0.1239 -0.2950
13504SOL    HW141420   2.316   4.819   2.227 -0.6431 -0.6777 -1.6071
13504SOL    HW241421   2.167   4.850   2.221 -0.3360  1.5573  0.5016
13505SOL     OW41422   7.640   2.229   4.842  0.0380  0.4679  0.4339
13505SOL    HW141423   7.661   2.224   4.935  0.7880 -1.1045  0.2119
13505SOL    HW241424   7.720   2.261   4.800  1.1026 -2.5138 -0.0526
13506SOL     OW41425   2.968   1.838   2.962 -0.0977  0.0500 -0.1342
13506SOL    HW141426   2.907   1.901   3.001 -0.3548  1.2001 -2.2410
13506SOL    HW241427   3.054   1.879   2.973 -0.1257  0.1736 -0.3571
13507SOL     OW41428   4.435   0.868   2.478 -0.0513  0.2811 -0.0073
13507SOL    HW141429   4.420   0.820   2.559 -0.9264 -0.6254 -0.6855
13507SOL    HW241430   4.403   0.956   2.497  1.0358  0.4818  1.0619
13508SOL     OW41431   5.890   2.974   4.062  0.1673 -0.1378 -0.5955
13508SOL    HW141432   5.913   3.063   4.035  0.1653  0.5022  1.4012
13508SOL    HW241433   5.954   2.952   4.129 -1.0801 -0.8534  0.3922
13509SOL     OW41434   2.982   1.592   1.747  0.3354  0.2694  0.4384
13509SOL    HW141435   2.922   1.518   1.746 -0.1356  0.5833  2.3176
13509SOL    HW241436   2.926   1.668   1.763  1.2627  0.4677  3.1653
13510SOL     OW41437   1.686   2.302   4.287  0.6932 -1.0088  0.7346
13510SOL    HW141438   1.634   2.232   4.327 -0.1173 -0.8796 -0.0690
13510SOL    HW241439   1.669   2.379   4.341  2.0864 -1.5467  2.0093
13511SOL     OW41440   5.191   5.017   2.709 -0.2260 -0.4379  0.0317
13511SOL    HW141441   5.172   4.926   2.687 -1.0873 -0.2207 -0.1882
13511SOL    HW241442   5.256   5.012   2.778  2.3310 -1.1687 -2.2453
13512SOL     OW41443   5.063   5.897   4.584  0.2769  0.5444 -0.0837
13512SOL    HW141444   5.048   5.809   4.549  0.3209  0.5450 -0.1036
13512SOL    HW241445   5.011   5.899   4.664 -0.2668  0.7301 -0.4364
13513SOL     OW41446   1.387   1.897   6.057 -0.6123  0.0431  0.2506
13513SOL    HW141447   1.459   1.840   6.032 -1.0592 -0.1139 -0.7110
13513SOL    HW241448   1.396   1.974   6.000  0.2769  1.2087  1.8595
13514SOL     OW41449   1.931   4.035   3.135  0.0688 -0.1233 -0.1752
13514SOL    HW141450   1.919   3.940   3.141  0.1085 -0.5004 -3.8403
13514SOL    HW241451   1.994   4.055   3.204 -0.5597 -2.5876  1.2460
13515SOL     OW41452   0.734   6.391   5.009  0.1056 -0.0879 -0.6392
13515SOL    HW141453   0.816   6.439   5.001 -0.0379  0.1100 -0.9459
13515SOL    HW241454   0.681   6.444   5.068  0.1822 -0.1934 -0.4757
13516SOL     OW41455   1.677   1.889   2.076  0.1353 -0.1810  0.1528
13516SOL    HW141456   1.745   1.830   2.108 -0.4941 -0.9920  0.0392
13516SOL    HW241457   1.695   1.898   1.983  0.4668  0.1359  0.2442
13517SOL     OW41458   4.938   6.771   1.632  0.1554  0.6062  0.1526
13517SOL    HW141459   4.961   6.863   1.615 -1.1059  1.4468  2.6173
13517SOL    HW241460   4.912   6.769   1.724  0.4796 -2.3231  0.2664
13518SOL     OW41461   5.338   1.791   0.446  0.5832  0.1929 -0.2364
13518SOL    HW141462   5.249   1.757   0.436  0.6445 -0.6440  1.6011
13518SOL    HW241463   5.325   1.883   0.470 -0.0828 -0.7752  3.8431
13519SOL     OW41464   6.083   1.428   3.199 -0.1188 -0.0105  0.4138
13519SOL    HW141465   6.135   1.439   3.278 -2.0970  2.6136  1.5030
13519SOL    HW241466   6.140   1.454   3.127  1.0367 -0.3700  1.1841
13520SOL     OW41467   4.709   6.086   1.166 -0.4505 -0.2188 -0.4219
13520SOL    HW141468   4.687   6.170   1.125  0.3877  0.1095 -0.2255
13520SOL    HW241469   4.718   6.106   1.259  1.1039 -0.2101 -0.5395
13521SOL     OW41470   1.483   4.041   1.736  0.2745  0.4488  0.1849
13521SOL    HW141471   1.525   4.110   1.684  0.8847  0.7604  1.0611
13521SOL    HW241472   1.555   4.002   1.785 -0.3825  0.7001  1.3915
13522SOL     OW41473   0.988   5.101   7.066 -0.0104 -0.3799  0.2232
13522SOL    HW141474   1.004   5.146   7.150 -0.5986 -0.2300  0.2601
13522SOL    HW241475   1.040   5.150   7.003  1.3495 -1.1761  0.6762
13523SOL     OW41476   4.741   4.513   6.448  0.1887 -0.3103 -0.5477
13523SOL    HW141477   4.807   4.444   6.453 -0.2869 -0.8755 -1.6273
13523SOL    HW241478   4.699   4.500   6.362  1.8948  2.9470 -2.0613
13524SOL     OW41479   6.186   4.675   0.999 -0.3452 -0.4539  0.1823
13524SOL    HW141480   6.154   4.602   1.052 -2.0980  1.4350  1.9120
13524SOL    HW241481   6.223   4.736   1.063  1.1482  0.1866 -1.2244
13525SOL     OW41482   6.976   1.503   0.164 -0.0081  0.1482 -0.5272
13525SOL    HW141483   6.914   1.430   0.161  0.3877 -0.2780  0.8570
13525SOL    HW241484   6.931   1.572   0.213  0.6078 -0.1984  0.5713
13526SOL     OW41485   0.181   6.392   4.860  0.2992 -0.9524 -0.3711
13526SOL    HW141486   0.268   6.430   4.868 -0.2745  0.6796 -1.6154
13526SOL    HW241487   0.187   6.309   4.908  2.1413 -0.2457  0.6971
13527SOL     OW41488   6.449   4.861   2.895  0.5670  0.3720  0.5856
13527SOL    HW141489   6.520   4.920   2.923 -0.2233  0.9675  1.3992
13527SOL    HW241490   6.454   4.861   2.800  2.2957 -0.4049  0.6268
13528SOL     OW41491   1.510   2.648   5.378  0.3391  0.4282  0.6096
13528SOL    HW141492   1.532   2.561   5.345  0.8116  0.3885  1.0157
13528SOL    HW241493   1.533   2.707   5.306  0.4474  0.2567  0.5036
13529SOL     OW41494   6.937   3.428   6.820 -0.3554  0.9088 -0.0220
13529SOL    HW141495   6.983   3.512   6.819  0.1247  0.6554 -1.3243
13529SOL    HW241496   6.932   3.403   6.728  1.2299 -1.4347  0.4655
13530SOL     OW41497   5.534   3.271   2.845  0.2869  0.0075  0.1330
13530SOL    HW141498   5.444   3.304   2.847  0.1189 -0.3555  2.8417
13530SOL    HW241499   5.589   3.349   2.843 -0.1331  0.3724  1.4947
13531SOL     OW41500   5.623   5.530   7.554 -0.0998 -0.1939 -0.1880
13531SOL    HW141501   5.567   5.530   7.477 -0.9690  0.1897  0.4270
13531SOL    HW241502   5.584   5.596   7.612  0.1566 -0.9333  0.8543
13532SOL     OW41503   6.540   7.712   5.287  0.4304 -0.0466  0.2341
13532SOL    HW141504   6.469   7.706   5.351 -0.3720 -0.7553 -0.6910
13532SOL    HW241505   6.517   7.787   5.232  1.9290  1.5743  1.6666
13533SOL     OW41506   3.225   2.718   3.116  0.1549  0.0560  0.2807
13533SOL    HW141507   3.250   2.637   3.160  0.4314  0.6994  1.3284
13533SOL    HW241508   3.136   2.701   3.085  0.9239 -1.3758 -1.3384
13534SOL     OW41509   7.565   4.586   2.783  0.1887 -0.2422 -0.3245
13534SOL    HW141510   7.474   4.600   2.756 -0.3188 -1.4977  0.6607
13534SOL    HW241511   7.586   4.663   2.836 -1.0140 -0.9229  1.1972
13535SOL     OW41512   7.596   2.408   0.953  0.0707  0.0192 -0.1355
13535SOL    HW141513   7.582   2.459   1.033 -2.1997 -3.0984  1.6877
13535SOL    HW241514   7.527   2.437   0.894 -0.8968 -0.5550  0.6924
13536SOL     OW41515   3.253   6.958   3.491 -0.8729 -0.2181 -0.3820
13536SOL    HW141516   3.275   7.051   3.495 -0.4931 -0.3477  1.2509
13536SOL    HW241517   3.333   6.913   3.518 -0.9424 -1.0663 -1.4719
13537SOL     OW41518   6.100   3.115   5.447  0.4266  0.5629 -0.4714
13537SOL    HW141519   6.023   3.087   5.398 -0.4361  0.2299  1.0096
13537SOL    HW241520   6.099   3.210   5.442  1.3065  0.5121 -2.4673
13538SOL     OW41521   7.312   0.269   5.844 -0.1858 -0.1340  0.0409
13538SOL    HW141522   7.232   0.222   5.865 -0.9557  1.3674  0.6212
13538SOL    HW241523   7.377   0.233   5.904 -0.8790 -0.1486  0.8086
13539SOL     OW41524   0.011   5.866   5.041  0.4168  0.2164  0.2267
13539SOL    HW141525   0.025   5.953   5.078 -0.2152  0.5875 -0.3747
13539SOL    HW241526  -0.084   5.859   5.033  0.4983 -0.2282 -0.4290
13540SOL     OW41527   1.070   0.432   1.440  0.3494 -0.0925  0.5169
13540SOL    HW141528   0.985   0.469   1.463  1.9629  2.3542  3.1732
13540SOL    HW241529   1.072   0.347   1.485 -1.1533 -0.8748 -0.7851
13541SOL     OW41530   5.706   4.837   6.211  0.6481 -0.0586 -0.4856
13541SOL    HW141531   5.625   4.838   6.162 -0.3563  0.8279  1.0828
13541SOL    HW241532   5.725   4.745   6.227  0.4245 -0.3022 -1.5635
13542SOL     OW41533   4.889   3.924   5.909 -0.3589 -0.0685  0.8474
13542SOL    HW141534   4.886   4.015   5.878 -0.6100  0.1138  1.3884
13542SOL    HW241535   4.982   3.907   5.924 -0.3836  0.4440  1.7005
13543SOL     OW41536   4.914   3.434   4.651 -0.9031 -0.4458 -0.1892
13543SOL    HW141537   4.873   3.518   4.672  0.6508  0.4210 -0.5008
13543SOL    HW241538   4.841   3.374   4.640 -2.0211  0.2559  2.4712
13544SOL     OW41539   4.964   2.744   2.420  0.0893  0.0583  0.5090
13544SOL    HW141540   4.973   2.651   2.442 -0.2849 -0.0071  0.3956
13544SOL    HW241541   4.887   2.773   2.470  0.3977  0.3861  0.7952
13545SOL     OW41542   1.773   0.357   0.518  0.2034  0.4791  0.0665
13545SOL    HW141543   1.707   0.387   0.580 -0.8191 -1.5098  0.0425
13545SOL    HW241544   1.722   0.319   0.446  1.3838  1.0531 -1.1082
13546SOL     OW41545   5.586   5.038   2.429  0.3204 -0.0557 -0.2112
13546SOL    HW141546   5.540   5.009   2.351  1.8573 -0.0880 -1.1424
13546SOL    HW241547   5.552   5.126   2.446  2.2051  1.3119 -2.8605
13547SOL     OW41548   2.518   4.762   5.939  0.5071 -0.4290  0.0549
13547SOL    HW141549   2.437   4.799   5.904 -0.1766 -1.2471  0.7306
13547SOL    HW241550   2.583   4.832   5.928 -0.6951  0.9366  1.1145
13548SOL     OW41551   3.285   2.284   3.408  0.4236 -0.7388 -0.1614
13548SOL    HW141552   3.235   2.297   3.489  0.2801 -1.9795 -0.0322
13548SOL    HW241553   3.359   2.230   3.434  0.6431 -0.7352 -0.7710
13549SOL     OW41554   1.968   3.319   3.782 -0.5081  0.0414 -0.1443
13549SOL    HW141555   2.057   3.349   3.763 -0.7248  1.6927  1.2564
13549SOL    HW241556   1.911   3.372   3.726 -0.8699  2.2472  2.1356
13550SOL     OW41557   7.238   5.571   0.157  0.1899  0.5889  0.0719
13550SOL    HW141558   7.291   5.637   0.201  1.3862  0.8044 -1.5783
13550SOL    HW241559   7.185   5.621   0.095  0.7763  0.0708 -0.8715
13551SOL     OW41560   0.497   5.161   5.656  0.0787 -0.3791 -0.6824
13551SOL    HW141561   0.452   5.206   5.728  0.0032  0.3064 -1.1495
13551SOL    HW241562   0.589   5.164   5.681  0.0630 -0.0608 -0.6544
13552SOL     OW41563   1.053   0.236   5.676  0.2616 -0.0287 -0.0375
13552SOL    HW141564   0.980   0.263   5.732  0.2578  0.6577 -0.3686
13552SOL    HW241565   1.076   0.149   5.708  0.3347  0.3945  1.1023
13553SOL     OW41566   7.156   4.181   0.627  0.2579  0.1205 -0.6377
13553SOL    HW141567   7.184   4.129   0.551  1.7120 -1.8252  1.1167
13553SOL    HW241568   7.122   4.117   0.689  2.5270  1.1011  1.8224
13554SOL     OW41569   6.090   1.503   3.639  0.4591  0.2073 -0.5321
13554SOL    HW141570   6.155   1.569   3.660  1.0652  0.0858 -1.9269
13554SOL    HW241571   6.107   1.481   3.548  0.2045 -1.7999 -0.1325
13555SOL     OW41572   5.547   3.744   3.902 -0.6356 -0.0909  0.6900
13555SOL    HW141573   5.462   3.773   3.867  0.1622 -1.3157 -2.6512
13555SOL    HW241574   5.593   3.825   3.924 -0.9795  0.9220 -1.9565
13556SOL     OW41575   2.601   7.263   1.686  0.5692 -0.3010  0.2264
13556SOL    HW141576   2.693   7.240   1.693  0.6329 -0.4287 -0.8120
13556SOL    HW241577   2.586   7.275   1.592 -0.0638  1.3976  0.4924
13557SOL     OW41578   4.869   4.329   4.310 -0.2707  0.0016 -0.1125
13557SOL    HW141579   4.810   4.256   4.325 -0.6389  0.4437  0.6778
13557SOL    HW241580   4.943   4.313   4.370 -1.2489  1.2329  1.5041
13558SOL     OW41581   7.657   6.201   3.021 -0.5040 -0.3338 -0.1975
13558SOL    HW141582   7.662   6.221   2.927 -0.5308  1.2045  0.1049
13558SOL    HW241583   7.575   6.242   3.050 -2.0668 -3.2681 -0.0270
13559SOL     OW41584   6.592   1.804   0.287  0.0455  0.0381  0.4187
13559SOL    HW141585   6.537   1.812   0.365  0.7763 -0.2876  0.9735
13559SOL    HW241586   6.542   1.749   0.228  0.3674 -1.4421  1.4733
13560SOL     OW41587   4.936   2.047   5.638  0.1314 -0.5515 -0.4287
13560SOL    HW141588   4.999   1.998   5.690 -1.7622 -1.4776  1.1209
13560SOL    HW241589   4.877   1.981   5.602 -0.7463  0.3695 -0.7355
13561SOL     OW41590   3.383   4.575   2.685  0.5712  0.0281  0.5868
13561SOL    HW141591   3.389   4.488   2.645  1.8726 -0.4618  1.7535
13561SOL    HW241592   3.467   4.616   2.666  0.2975  0.6900  0.7907
13562SOL     OW41593   6.605   2.415   4.840 -0.4099  0.1012 -0.2521
13562SOL    HW141594   6.631   2.465   4.762  0.9441 -1.8040 -1.0882
13562SOL    HW241595   6.564   2.336   4.804  0.6010 -0.9982  0.9309
13563SOL     OW41596   6.748   6.717   1.540 -0.3177  0.6744 -0.6032
13563SOL    HW141597   6.711   6.804   1.556 -0.6266  0.2263  1.3465
13563SOL    HW241598   6.784   6.690   1.624 -0.4136 -1.1814 -1.1067
13564SOL     OW41599   7.331   4.371   0.712 -0.3802  0.1850 -0.3436
13564SOL    HW141600   7.289   4.287   0.690 -0.9170  0.0828  0.9303
13564SOL    HW241601   7.403   4.346   0.770  0.6955  0.4706 -1.5179
13565SOL     OW41602   1.224   3.798   3.309 -0.1446  0.2734  0.2612
13565SOL    HW141603   1.308   3.751   3.310 -0.5453 -0.4814  2.0956
13565SOL    HW241604   1.248   3.888   3.285  1.2927  0.2220  1.3216
13566SOL     OW41605   6.113   3.456   6.950  0.3342 -0.0669  0.1401
13566SOL    HW141606   6.167   3.515   6.898 -0.5646  0.6811  0.0296
13566SOL    HW241607   6.171   3.426   7.020  1.4282 -0.7492 -1.0247
13567SOL     OW41608   2.607   5.007   0.590  0.5670  0.0492 -0.5087
13567SOL    HW141609   2.517   5.026   0.616  0.8238  1.1197 -0.3533
13567SOL    HW241610   2.636   5.086   0.544  2.7898  1.5596  3.0366
13568SOL     OW41611   2.444   7.408   3.382 -0.2383  0.4713  0.1494
13568SOL    HW141612   2.416   7.357   3.306  1.3073  3.1927 -2.4569
13568SOL    HW241613   2.362   7.443   3.418 -1.1467 -2.2484  0.9166
13569SOL     OW41614   2.774   4.988   4.012 -1.0616 -0.1074 -0.5458
13569SOL    HW141615   2.764   5.082   4.003  1.8421  0.7973  3.0474
13569SOL    HW241616   2.737   4.968   4.098  0.8015 -1.6542 -0.0254
13570SOL     OW41617   5.434   4.802   6.174 -0.3586  0.0836 -0.3236
13570SOL    HW141618   5.432   4.842   6.261  1.7695  0.5179 -0.4146
13570SOL    HW241619   5.390   4.718   6.185  1.7695 -0.8734  1.7759
13571SOL     OW41620   7.564   0.955   6.937  0.0225  0.2054 -0.4748
13571SOL    HW141621   7.648   0.951   6.983  1.2237 -0.5415 -2.6055
13571SOL    HW241622   7.500   0.973   7.006  1.8367  0.2011  1.3053
13572SOL     OW41623   0.002   4.815   5.864 -0.5967  0.6131  0.1552
13572SOL    HW141624   0.066   4.745   5.865 -1.1488  0.0506  2.5053
13572SOL    HW241625  -0.064   4.787   5.800  0.8787  0.6886 -1.4642
13573SOL     OW41626   7.047   7.327   0.835 -0.3789 -0.5796  0.0293
13573SOL    HW141627   7.063   7.282   0.753 -1.3860 -2.2701  0.7185
13573SOL    HW241628   6.968   7.286   0.871  0.1267 -0.0110  1.9280
13574SOL     OW41629   4.773   7.079   6.264  0.5001 -0.1697  1.0816
13574SOL    HW141630   4.845   7.024   6.233  1.8219  2.5466 -1.0982
13574SOL    HW241631   4.814   7.140   6.326 -0.3385  0.1519  1.3358
13575SOL     OW41632   2.965   0.293   7.077 -0.4532  0.3223 -0.7581
13575SOL    HW141633   2.982   0.199   7.071 -0.5571  0.2402  0.1542
13575SOL    HW241634   2.901   0.309   7.007  0.7700  0.0316 -1.9943
13576SOL     OW41635   1.244   6.467   0.302  0.0272 -0.4571  0.0860
13576SOL    HW141636   1.196   6.386   0.283 -0.0680 -0.5974  0.8486
13576SOL    HW241637   1.328   6.456   0.259  1.0472 -2.1517  2.2785
13577SOL     OW41638   2.185   5.800   2.222 -0.0578 -0.2774 -0.2670
13577SOL    HW141639   2.108   5.757   2.258  0.5289 -1.4446 -0.3484
13577SOL    HW241640   2.251   5.794   2.291 -0.8385  3.3408  0.9784
13578SOL     OW41641   0.315   4.383   0.668  0.3594  0.0548 -0.0546
13578SOL    HW141642   0.236   4.333   0.647  0.5585  0.2908 -1.4635
13578SOL    HW241643   0.286   4.448   0.732  0.1829 -2.0752  2.1533
13579SOL     OW41644   2.592   4.382   3.496 -0.2410 -0.0052  0.1640
13579SOL    HW141645   2.523   4.432   3.540  0.1692  0.8467 -0.1504
13579SOL    HW241646   2.556   4.365   3.408 -0.7253 -1.0132  0.5321
13580SOL     OW41647   4.371   3.901   1.941  0.3042 -0.6190 -0.3423
13580SOL    HW141648   4.445   3.956   1.968  0.2385 -0.1360 -1.1227
13580SOL    HW241649   4.410   3.819   1.914  0.6030 -0.2053 -1.1861
13581SOL     OW41650   6.852   6.204   4.738  0.1528  0.3164 -0.4255
13581SOL    HW141651   6.794   6.263   4.690 -0.9276  0.1695  0.6406
13581SOL    HW241652   6.802   6.122   4.745  0.7926 -0.0497 -0.1141
13582SOL     OW41653   3.340   6.577   4.865 -0.3520 -0.0777  0.1735
13582SOL    HW141654   3.302   6.591   4.952  0.1393  0.1274  0.3578
13582SOL    HW241655   3.345   6.482   4.857  0.0714 -0.0932  0.5796
13583SOL     OW41656   7.363   4.004   1.538 -0.1375  0.0289  0.2747
13583SOL    HW141657   7.421   3.956   1.478  0.0083  2.1188 -1.3989
13583SOL    HW241658   7.422   4.041   1.604  0.0680 -0.1982  0.2205
13584SOL     OW41659   2.341   5.567   4.872 -0.2847  0.0954  0.3797
13584SOL    HW141660   2.437   5.567   4.871 -0.1341 -0.0095  4.0596
13584SOL    HW241661   2.318   5.482   4.834  1.3120 -1.5125  2.6927
13585SOL     OW41662   6.338   1.180   5.870 -0.0296  0.5826  0.0902
13585SOL    HW141663   6.324   1.090   5.897  0.1242  0.0013 -1.6568
13585SOL    HW241664   6.356   1.175   5.777  0.2143  2.4068 -0.0039
13586SOL     OW41665   5.294   0.572   4.623 -0.5331  0.0958  0.0161
13586SOL    HW141666   5.305   0.583   4.718  0.0958 -0.9060  0.0684
13586SOL    HW241667   5.235   0.497   4.615  0.2380 -0.4751 -0.3936
13587SOL     OW41668   0.729   4.971   3.430  0.5095 -0.4555  0.7422
13587SOL    HW141669   0.645   5.011   3.409  0.8658 -0.0781 -0.0183
13587SOL    HW241670   0.766   5.027   3.498  0.3360 -0.3802  0.7762
13588SOL     OW41671   2.895   6.852   1.089 -0.2086 -0.2451 -0.2957
13588SOL    HW141672   2.869   6.767   1.055 -1.1232 -0.7477  1.5170
13588SOL    HW241673   2.963   6.833   1.153 -0.8670  0.2747  0.5964
13589SOL     OW41674   1.801   0.149   3.425  0.7970  0.1375  0.0085
13589SOL    HW141675   1.818   0.165   3.332 -4.2083  2.0257 -0.9165
13589SOL    HW241676   1.821   0.232   3.468 -0.8899  0.7226 -0.2493
13590SOL     OW41677   3.570   7.244   5.401  0.1155  0.0720  0.1406
13590SOL    HW141678   3.608   7.209   5.481  0.3529 -0.3263 -0.1461
13590SOL    HW241679   3.642   7.289   5.357  0.2513 -0.6362 -0.3763
13591SOL     OW41680   6.771   6.239   2.316 -0.1194  0.9901 -0.2039
13591SOL    HW141681   6.755   6.254   2.223 -0.2627  1.2233 -0.1408
13591SOL    HW241682   6.866   6.225   2.321 -0.2318  0.0804 -0.5051
13592SOL     OW41683   3.441   6.045   0.191 -0.2001  0.2753 -0.0389
13592SOL    HW141684   3.412   5.990   0.119  0.0704 -0.8532  0.6922
13592SOL    HW241685   3.421   5.995   0.270  0.1181  1.1928  0.6440
13593SOL     OW41686   1.066   0.747   1.761  0.4681 -0.0160 -0.3893
13593SOL    HW141687   1.098   0.783   1.679  2.1518  0.5233  0.4620
13593SOL    HW241688   1.129   0.775   1.827  0.5703 -2.5274  0.7252
13594SOL     OW41689   4.512   6.095   5.622  0.5129  0.3215  0.2166
13594SOL    HW141690   4.499   6.017   5.568  0.5119  1.2306 -1.1356
13594SOL    HW241691   4.423   6.123   5.645  0.4981  0.1491  0.3701
13595SOL     OW41692   3.356   0.475   6.520 -0.2982  0.4130 -0.2365
13595SOL    HW141693   3.298   0.405   6.549  1.5284 -1.0846 -0.0009
13595SOL    HW241694   3.371   0.528   6.598  0.4186 -0.5232  0.2770
13596SOL     OW41695   0.180   4.818   2.389  0.2685  0.5745  0.1035
13596SOL    HW141696   0.101   4.867   2.414 -0.2483  0.6831 -1.5754
13596SOL    HW241697   0.180   4.742   2.447 -1.4984  0.1948 -0.3174
13597SOL     OW41698   6.424   5.567   2.541 -0.7382 -0.1866  0.0089
13597SOL    HW141699   6.480   5.611   2.605 -2.6281 -0.1143  1.7454
13597SOL    HW241700   6.417   5.629   2.469 -0.7722  1.0119  1.0008
13598SOL     OW41701   7.656   4.936   3.643 -0.1204 -0.2303  0.1105
13598SOL    HW141702   7.600   5.011   3.664  0.0468 -0.3727  1.1421
13598SOL    HW241703   7.745   4.971   3.649 -0.0535 -0.4090  0.1641
13599SOL     OW41704   6.883   0.729   6.031  0.2308  0.1250 -0.2775
13599SOL    HW141705   6.925   0.706   6.114  1.2798  0.0439 -0.8105
13599SOL    HW241706   6.955   0.760   5.976 -0.3549 -0.3770 -1.3518
13600SOL     OW41707   0.105   4.120   4.368 -0.7046  0.3099  0.3139
13600SOL    HW141708   0.135   4.209   4.384  0.7806  0.1466 -1.2765
13600SOL    HW241709   0.010   4.124   4.380 -0.7468  2.2597 -0.3511
13601SOL     OW41710   5.546   1.756   4.740 -0.2797  0.2819 -0.0938
13601SOL    HW141711   5.486   1.773   4.813 -1.1358  0.3851 -0.7950
13601SOL    HW241712   5.533   1.664   4.719 -0.0773  0.2660 -0.1529
13602SOL     OW41713   0.899   6.384   4.039  0.3208 -0.1411  0.0611
13602SOL    HW141714   0.990   6.358   4.051  0.4809  0.5886  0.5196
13602SOL    HW241715   0.874   6.346   3.955  0.5067 -1.7967  0.7056
13603SOL     OW41716   5.908   5.148   5.118  0.0510 -0.1647 -0.0690
13603SOL    HW141717   5.923   5.230   5.165 -0.3510 -0.9439  1.4786
13603SOL    HW241718   5.824   5.161   5.073 -0.1553  0.1708  0.4088
13604SOL     OW41719   4.334   5.614   3.905 -0.1961 -0.0853 -0.3465
13604SOL    HW141720   4.334   5.699   3.949  3.2275  0.5900 -1.3680
13604SOL    HW241721   4.246   5.607   3.867 -1.8927  1.1448  2.9597
13605SOL     OW41722   4.304   1.683   7.189 -0.6242  0.1765  0.2890
13605SOL    HW141723   4.354   1.610   7.225 -1.2765  0.2938  1.4640
13605SOL    HW241724   4.357   1.713   7.115  0.5256 -0.3556  0.8624
13606SOL     OW41725   5.060   0.602   7.434  0.1534  0.2225  0.1107
13606SOL    HW141726   5.130   0.541   7.459 -0.6843 -2.4151 -3.2948
13606SOL    HW241727   5.012   0.618   7.516  2.8945 -0.1964  1.9677
13607SOL     OW41728   5.374   3.024   3.954 -0.4093 -0.1470 -0.0784
13607SOL    HW141729   5.458   2.981   3.972  0.1736  1.6025  1.7836
13607SOL    HW241730   5.396   3.096   3.894 -0.3482  0.8882  1.1330
13608SOL     OW41731   2.805   1.518   3.748 -0.3018 -0.1071  0.2752
13608SOL    HW141732   2.865   1.450   3.777  0.7797 -1.1818 -3.8714
13608SOL    HW241733   2.718   1.482   3.767  0.0882  0.6552  4.5941
13609SOL     OW41734   5.875   6.719   2.793  0.4369  0.0210 -0.1410
13609SOL    HW141735   5.800   6.760   2.748 -0.3872  0.3754  1.4724
13609SOL    HW241736   5.836   6.662   2.858  1.5502  0.8677  1.3282
13610SOL     OW41737   1.019   6.050   6.600  0.0275 -0.1589  0.1122
13610SOL    HW141738   1.064   5.974   6.564  0.8674  0.5693 -0.4135
13610SOL    HW241739   1.059   6.125   6.556 -0.4885  0.6185  0.9249
13611SOL     OW41740   3.017   5.583   6.040 -0.4271  0.1559 -0.2026
13611SOL    HW141741   3.039   5.601   5.949 -0.3813 -1.7388 -0.6151
13611SOL    HW241742   3.087   5.524   6.070 -1.0837 -0.1943  0.6838
13612SOL     OW41743   6.624   1.204   1.685  0.6056 -0.1576  0.5765
13612SOL    HW141744   6.545   1.243   1.649 -0.4385  0.0029  2.9061
13612SOL    HW241745   6.601   1.112   1.700  0.3429  0.1907  2.5318
13613SOL     OW41746   1.789   2.314   2.224 -0.3641  0.7338 -0.1147
13613SOL    HW141747   1.849   2.306   2.298 -0.1185  0.8985 -0.2928
13613SOL    HW241748   1.707   2.274   2.254 -0.8708  2.4645  0.9175
13614SOL     OW41749   0.007   3.952   0.040 -0.0841 -0.2370  0.0138
13614SOL    HW141750  -0.006   4.044   0.062 -1.0343 -0.8499  2.3019
13614SOL    HW241751   0.096   3.948   0.004  0.4569  1.3824  1.0482
13615SOL     OW41752   6.400   3.076   4.100  0.3519  0.2895 -0.5146
13615SOL    HW141753   6.495   3.077   4.098  0.3921  2.8125 -0.6407
13615SOL    HW241754   6.374   3.163   4.070 -2.0345 -0.6191 -1.3998
13616SOL     OW41755   0.806   4.190   2.816  0.3439 -0.2874 -0.2900
13616SOL    HW141756   0.713   4.166   2.817 -0.1594  1.4218 -1.4106
13616SOL    HW241757   0.811   4.272   2.865  0.7932  0.9487 -2.2806
13617SOL     OW41758   3.552   4.937   3.563  0.4000  0.0490 -0.8277
13617SOL    HW141759   3.589   4.893   3.639  1.1250  0.8908 -0.6793
13617SOL    HW241760   3.510   5.015   3.598 -0.3350 -0.1843 -1.1613
13618SOL     OW41761   1.009   4.264   1.615 -0.0581  0.2367 -0.0837
13618SOL    HW141762   0.987   4.276   1.523 -0.3075 -0.7354 -0.1581
13618SOL    HW241763   1.001   4.170   1.630  0.3437  0.3360  0.8390
13619SOL     OW41764   4.948   4.990   3.706 -0.5068  0.4971 -0.0399
13619SOL    HW141765   4.965   5.061   3.643  0.3996  1.0970  0.8410
13619SOL    HW241766   5.000   5.014   3.783  0.7500 -1.7063 -0.1312
13620SOL     OW41767   5.980   2.242   6.313  0.2352 -0.0545 -0.0643
13620SOL    HW141768   5.998   2.240   6.407 -0.9231  0.0289  0.1733
13620SOL    HW241769   5.905   2.183   6.302 -1.4334  2.0279 -0.5055
13621SOL     OW41770   0.419   5.973   1.769 -0.0774 -1.1799 -0.3511
13621SOL    HW141771   0.349   6.017   1.721 -1.2476 -3.0926 -0.4651
13621SOL    HW241772   0.471   6.045   1.806 -1.8538  0.2959 -0.5801
13622SOL     OW41773   6.026   0.330   2.494 -0.1024 -0.6649  0.3706
13622SOL    HW141774   6.018   0.372   2.408  0.1984 -0.2310  0.5560
13622SOL    HW241775   6.114   0.294   2.495 -0.0390 -0.5022  0.5744
13623SOL     OW41776   5.338   1.212   6.291  0.7306  0.0033 -0.3356
13623SOL    HW141777   5.330   1.143   6.357  2.3357 -0.3383 -0.4424
13623SOL    HW241778   5.300   1.175   6.212  0.4101 -0.2661 -0.0581
13624SOL     OW41779   4.252   7.004   5.473 -0.2308 -0.4234  0.1054
13624SOL    HW141780   4.170   7.054   5.466  0.7166  1.2131  0.1452
13624SOL    HW241781   4.280   7.015   5.564 -0.0221 -1.0814  0.1274
13625SOL     OW41782   6.141   6.078   6.236 -0.3770  0.3269  0.2863
13625SOL    HW141783   6.107   5.992   6.261  1.2913 -0.5598 -0.2786
13625SOL    HW241784   6.221   6.088   6.289  0.3570  0.7621 -0.8621
13626SOL     OW41785   1.564   0.645   0.247  0.2492 -0.0105  0.1356
13626SOL    HW141786   1.519   0.603   0.320 -1.2728 -2.0230 -1.8347
13626SOL    HW241787   1.657   0.644   0.271 -0.3590  1.1113  2.8033
13627SOL     OW41788   5.299   4.407   2.467 -0.4887  0.0844 -0.1025
13627SOL    HW141789   5.294   4.401   2.562 -0.1839 -0.8722 -0.1419
13627SOL    HW241790   5.389   4.437   2.449 -0.9413  1.5761 -0.0547
13628SOL     OW41791   3.601   3.375   3.793  0.3104  0.2366 -0.4323
13628SOL    HW141792   3.512   3.358   3.823 -0.9718  3.0098 -2.2810
13628SOL    HW241793   3.644   3.416   3.868 -0.8889  1.4475 -0.3650
13629SOL     OW41794   0.068   6.526   7.699  0.6224 -0.0437  0.0779
13629SOL    HW141795   0.053   6.603   7.644 -1.1594  0.7593  1.5796
13629SOL    HW241796   0.080   6.455   7.636 -3.7711  0.3339 -1.5850
13630SOL     OW41797   3.121   2.701   3.453 -0.6613  0.2235  0.1406
13630SOL    HW141798   3.145   2.772   3.394  0.2099  0.0444  0.2626
13630SOL    HW241799   3.054   2.652   3.406  0.0373  0.0702 -0.7004
13631SOL     OW41800   6.753   7.634   5.089  0.7007  0.6972 -0.9259
13631SOL    HW141801   6.713   7.670   5.168  2.3492  2.1351 -0.6843
13631SOL    HW241802   6.718   7.688   5.018 -1.3409 -1.0444 -1.3617
13632SOL     OW41803   0.562   3.423   4.657  0.2680 -0.4032 -0.1137
13632SOL    HW141804   0.547   3.517   4.665 -0.8349 -0.6336  0.7557
13632SOL    HW241805   0.475   3.384   4.670 -0.0760 -1.3850 -3.9911
13633SOL     OW41806   2.848   1.577   4.431  0.4430 -0.3251 -0.1970
13633SOL    HW141807   2.896   1.655   4.460  0.4928 -1.5056  3.3845
13633SOL    HW241808   2.902   1.540   4.362  1.1830  1.9545 -0.9321
13634SOL     OW41809   0.702   6.440   2.953  0.2785 -0.3277  0.2311
13634SOL    HW141810   0.763   6.499   2.909 -2.0558  0.5836 -2.0683
13634SOL    HW241811   0.701   6.361   2.898  0.3706 -0.8728  0.9979
13635SOL     OW41812   2.323   7.082   1.045  0.1999  0.1484 -0.2433
13635SOL    HW141813   2.383   7.031   1.100 -0.7139 -0.9303 -0.2127
13635SOL    HW241814   2.242   7.031   1.044 -0.7349  1.5712 -0.2781
13636SOL     OW41815   7.611   2.421   6.512  0.0994 -0.8000 -0.2464
13636SOL    HW141816   7.669   2.365   6.564  1.7400  1.7787  0.9565
13636SOL    HW241817   7.566   2.475   6.577 -0.2278  0.3209 -1.3659
13637SOL     OW41818   1.771   3.571   2.232  0.0544  0.8268  0.2170
13637SOL    HW141819   1.738   3.493   2.278  1.7635 -2.2489 -3.2035
13637SOL    HW241820   1.850   3.595   2.279 -0.9452  1.0863  1.8249
13638SOL     OW41821   5.295   4.385   1.688  0.5245  0.2721 -0.0133
13638SOL    HW141822   5.385   4.353   1.684  1.1266  1.9531 -1.5382
13638SOL    HW241823   5.296   4.452   1.756  0.1669 -0.3448  0.6175
13639SOL     OW41824   5.492   0.503   5.358  0.4751 -0.0314 -0.0003
13639SOL    HW141825   5.412   0.457   5.332  0.0920  0.4639  0.2808
13639SOL    HW241826   5.551   0.493   5.284  0.0205 -0.0940 -0.3606
13640SOL     OW41827   6.239   2.792   4.706  0.2328 -0.0514  0.0141
13640SOL    HW141828   6.320   2.787   4.655 -0.4953 -0.6093 -1.1438
13640SOL    HW241829   6.256   2.858   4.773  1.9564 -0.8231  0.3890
13641SOL     OW41830   4.792   3.220   5.480 -0.1707  0.2025 -0.2687
13641SOL    HW141831   4.886   3.205   5.487  0.0864  0.3128 -2.5785
13641SOL    HW241832   4.778   3.242   5.388 -2.4610  0.2492  0.0230
13642SOL     OW41833   6.745   1.175   3.906  0.0653 -0.5944 -0.1427
13642SOL    HW141834   6.787   1.105   3.856  0.2419 -0.3310 -0.3678
13642SOL    HW241835   6.651   1.157   3.899  0.1017 -0.7048 -0.3491
13643SOL     OW41836   1.853   6.237   4.552 -0.6590  0.1371 -0.3242
13643SOL    HW141837   1.793   6.294   4.600 -1.4280 -1.4654  0.6911
13643SOL    HW241838   1.824   6.244   4.461  1.1947  3.6905 -0.8266
13644SOL     OW41839   7.548   7.452   3.221  0.1896  0.3967 -0.0680
13644SOL    HW141840   7.537   7.507   3.142  1.7322 -1.0951 -1.4010
13644SOL    HW241841   7.463   7.411   3.233  0.5415 -1.3206 -2.5815
13645SOL     OW41842   5.805   4.452   3.674 -0.6649  0.4510 -0.6244
13645SOL    HW141843   5.725   4.479   3.718  0.7824  0.2996  2.3653
13645SOL    HW241844   5.854   4.533   3.659 -1.4050  0.5795 -2.7218
13646SOL     OW41845   1.491   2.674   4.872 -0.0600  0.3922  0.4494
13646SOL    HW141846   1.466   2.767   4.867  2.7596  1.2354  0.2832
13646SOL    HW241847   1.467   2.639   4.786  1.7103  1.8667 -0.7486
13647SOL     OW41848   7.566   6.442   0.572  0.0244  0.1172  0.1048
13647SOL    HW141849   7.619   6.454   0.493  1.0916 -1.9234  0.4584
13647SOL    HW241850   7.604   6.503   0.635  0.4641  0.3202 -0.3466
13648SOL     OW41851   1.493   6.260   4.832  0.3085  0.3008  0.3740
13648SOL    HW141852   1.493   6.197   4.760 -0.2284  1.2047 -0.4441
13648SOL    HW241853   1.482   6.207   4.911  1.2112 -0.7284 -0.1794
13649SOL     OW41854   7.286   2.656   0.604  0.2109  0.5318 -0.0546
13649SOL    HW141855   7.216   2.679   0.544 -0.1837 -0.0748  0.1579
13649SOL    HW241856   7.263   2.700   0.686  0.6506  1.2076 -0.2943
13650SOL     OW41857   2.770   6.988   2.647  0.7025  0.2518 -0.8351
13650SOL    HW141858   2.786   6.972   2.740  1.0425 -0.0807 -0.9478
13650SOL    HW241859   2.828   7.061   2.624  0.7825  0.1872 -0.8377
13651SOL     OW41860   3.580   0.370   6.022 -0.2081 -0.2516 -0.1353
13651SOL    HW141861   3.498   0.418   6.025 -0.6317 -0.9723  0.2432
13651SOL    HW241862   3.648   0.437   6.029 -0.6818  0.5787 -2.7057
13652SOL     OW41863   7.496   0.055   5.662 -0.2721 -0.3798  0.6105
13652SOL    HW141864   7.555  -0.003   5.615 -0.6275 -0.7902  0.6631
13652SOL    HW241865   7.535   0.063   5.749  0.5704  0.6549  0.1567
13653SOL     OW41866   5.905   6.436   6.225 -0.3142 -0.2914  0.1744
13653SOL    HW141867   5.823   6.483   6.213 -0.0152  0.4323  0.9105
13653SOL    HW241868   5.908   6.415   6.319  0.3763 -0.2351  0.1725
13654SOL     OW41869   3.665   4.005   4.559  0.5650 -0.1579 -0.1299
13654SOL    HW141870   3.687   4.080   4.504  1.4648 -0.1326  0.2339
13654SOL    HW241871   3.750   3.965   4.580  0.0463 -1.8626 -1.0970
13655SOL     OW41872   1.523   1.780   4.880  0.3416 -0.3727 -0.2323
13655SOL    HW141873   1.534   1.786   4.786 -0.5115 -1.1004 -0.3921
13655SOL    HW241874   1.612   1.785   4.915  1.0018 -3.0158 -1.2737
13656SOL     OW41875   2.628   5.960   4.612 -0.0804 -0.0363 -0.2287
13656SOL    HW141876   2.568   6.021   4.655  0.6113  1.0898 -0.8245
13656SOL    HW241877   2.632   5.990   4.522  0.5405 -0.7659 -0.4520
13657SOL     OW41878   2.738   2.707   3.484  0.2566 -0.0168 -0.3467
13657SOL    HW141879   2.745   2.650   3.408  0.1347  0.8298 -1.0073
13657SOL    HW241880   2.717   2.648   3.557 -0.5539 -0.7174 -1.1322
13658SOL     OW41881   1.249   1.738   5.328  0.2772  0.2833  0.2552
13658SOL    HW141882   1.177   1.676   5.340 -0.2569  1.0437  1.2166
13658SOL    HW241883   1.323   1.685   5.299 -0.5576 -0.5774 -0.3452
13659SOL     OW41884   0.403   2.449   2.107  0.1466 -0.2324 -0.1429
13659SOL    HW141885   0.331   2.487   2.057 -0.8130 -2.0013 -0.1930
13659SOL    HW241886   0.381   2.356   2.115 -0.6346  0.1088  4.9674
13660SOL     OW41887   4.226   2.950   2.097  0.4558  0.2769 -0.9503
13660SOL    HW141888   4.147   2.923   2.145  1.0250 -2.5943 -1.4279
13660SOL    HW241889   4.194   2.969   2.009  0.0063  1.3944 -0.5642
13661SOL     OW41890   4.865   5.456   4.815 -0.2238 -0.7914  0.6858
13661SOL    HW141891   4.833   5.492   4.898 -3.1792 -1.3041 -0.0909
13661SOL    HW241892   4.812   5.376   4.802  0.5340 -1.0158 -1.4189
13662SOL     OW41893   2.535   1.023   4.746 -0.8361  0.8238  0.1633
13662SOL    HW141894   2.538   1.042   4.653 -0.1111 -2.3520 -0.5704
13662SOL    HW241895   2.441   1.012   4.765 -0.9053  0.1320 -0.5355
13663SOL     OW41896   1.169   4.813   3.663 -0.4218 -0.5134  0.2370
13663SOL    HW141897   1.149   4.754   3.735 -0.9127  0.1950  0.6828
13663SOL    HW241898   1.112   4.888   3.676  0.4890  0.2559 -0.0889
13664SOL     OW41899   3.925   1.054   0.090  0.1562 -0.0889  0.3206
13664SOL    HW141900   3.980   1.049   0.168  0.0821  0.8494  0.4353
13664SOL    HW241901   3.836   1.053   0.124  0.1233  0.2592  0.2408
13665SOL     OW41902   1.191   3.347   4.148 -0.3803 -0.6218 -0.3672
13665SOL    HW141903   1.176   3.360   4.242  2.5387  1.8264 -0.0775
13665SOL    HW241904   1.208   3.253   4.139 -3.1522 -1.3621  1.0424
13666SOL     OW41905   2.720   1.407   3.361 -0.0345 -0.3551 -0.4895
13666SOL    HW141906   2.780   1.332   3.357 -0.1130 -0.4601 -5.2489
13666SOL    HW241907   2.634   1.368   3.377  0.4029 -0.7277  1.1920
13667SOL     OW41908   0.965   5.228   3.485 -0.2634 -0.4056 -0.2265
13667SOL    HW141909   0.914   5.252   3.562 -0.8549 -2.4979  0.0873
13667SOL    HW241910   1.039   5.177   3.519  1.6784  1.8447 -0.7532
13668SOL     OW41911   4.555   0.012   1.981  0.1554  0.3861 -0.2985
13668SOL    HW141912   4.513   0.036   2.063 -0.5056  0.8704 -0.7780
13668SOL    HW241913   4.534   0.083   1.920 -0.0256 -0.3428 -1.1155
13669SOL     OW41914   4.925   5.791   6.295  0.3563 -0.0302  0.7716
13669SOL    HW141915   4.998   5.822   6.241  0.6219 -0.8739  0.6299
13669SOL    HW241916   4.881   5.725   6.240  0.3319 -0.5363  1.3867
13670SOL     OW41917   0.150   4.354   0.318 -0.2318  0.3697 -0.1883
13670SOL    HW141918   0.077   4.324   0.263  1.3899 -0.5066 -1.9707
13670SOL    HW241919   0.174   4.439   0.281 -0.0207  0.4357  0.0969
13671SOL     OW41920   0.622   5.345   1.230 -0.0012 -0.4431 -0.5522
13671SOL    HW141921   0.624   5.418   1.292  1.3982 -0.2971 -0.7394
13671SOL    HW241922   0.599   5.269   1.284 -1.7459  0.1404 -0.4046
13672SOL     OW41923   1.780   7.554   2.716 -0.4733 -0.3255  0.9190
13672SOL    HW141924   1.757   7.539   2.625  1.2331 -2.0785  0.7111
13672SOL    HW241925   1.712   7.510   2.767 -0.1746 -1.3799  0.4250
13673SOL     OW41926   3.551   3.853   1.977 -0.4131 -0.0707 -0.1120
13673SOL    HW141927   3.570   3.944   1.956  1.7167 -0.2094  1.0043
13673SOL    HW241928   3.567   3.805   1.896 -0.6750  0.4193 -0.4572
13674SOL     OW41929   0.347   0.666   4.523 -0.6850  0.3191 -0.2012
13674SOL    HW141930   0.386   0.715   4.596 -2.4285  1.1137  0.2341
13674SOL    HW241931   0.288   0.728   4.481  0.1144 -0.1924 -2.1946
13675SOL     OW41932   3.260   0.288   2.189 -0.1047 -0.1810 -0.0313
13675SOL    HW141933   3.202   0.347   2.237 -0.4160  0.0068 -0.6219
13675SOL    HW241934   3.274   0.331   2.104 -0.0684 -0.7883 -0.3434
13676SOL     OW41935   0.143   6.764   1.654  0.5252  0.0715 -0.2158
13676SOL    HW141936   0.168   6.800   1.569  0.2977 -0.7762 -0.6485
13676SOL    HW241937   0.050   6.782   1.661  0.4305 -0.3435 -0.3912
13677SOL     OW41938   3.333   3.346   4.581 -0.1926  0.0506 -0.1340
13677SOL    HW141939   3.336   3.362   4.676 -0.7335 -1.8384  0.2421
13677SOL    HW241940   3.252   3.297   4.568  0.4496 -0.7155 -1.4089
13678SOL     OW41941   1.135   0.203   3.996 -0.5417  0.1968 -0.3357
13678SOL    HW141942   1.122   0.292   3.964  1.1423  0.8185  0.5909
13678SOL    HW241943   1.046   0.166   4.000 -1.1754  1.4872 -1.6312
13679SOL     OW41944   0.468   4.878   5.761 -0.1607  0.2572  0.4977
13679SOL    HW141945   0.521   4.919   5.829  2.2321 -0.8028 -0.6246
13679SOL    HW241946   0.490   4.923   5.681  1.2298 -1.9637 -0.4642
13680SOL     OW41947   2.119   3.268   4.088  0.3848 -0.2076 -0.0084
13680SOL    HW141948   2.063   3.285   4.163 -0.2935  1.1860 -0.7884
13680SOL    HW241949   2.122   3.173   4.081  2.0399 -0.5044  2.9095
13681SOL     OW41950   1.701   5.322   6.073  0.8783  0.0499 -0.2106
13681SOL    HW141951   1.734   5.237   6.101  0.0709 -0.2609 -0.1792
13681SOL    HW241952   1.771   5.383   6.094  1.8094 -0.7219 -1.0047
13682SOL     OW41953   0.418   6.107   2.480 -0.6245 -0.4113  0.2328
13682SOL    HW141954   0.435   6.200   2.471  0.5997 -0.5594  0.8490
13682SOL    HW241955   0.400   6.077   2.391  0.7436  0.1028 -0.2441
13683SOL     OW41956   7.104   3.817   1.514  0.5870  0.2775  0.2986
13683SOL    HW141957   7.066   3.810   1.427  1.1239 -1.6369  0.1723
13683SOL    HW241958   7.143   3.904   1.517 -1.5592  1.3215 -0.4629
13684SOL     OW41959   6.714   7.626   7.387  0.2664 -0.3502 -0.1722
13684SOL    HW141960   6.773   7.551   7.386 -0.4971 -0.9682  0.2216
13684SOL    HW241961   6.665   7.620   7.305  1.9792  1.1976 -1.3916
13685SOL     OW41962   4.092   6.171   2.509  0.2874  0.4074 -0.3885
13685SOL    HW141963   4.054   6.253   2.476  1.7009  0.6830 -1.4252
13685SOL    HW241964   4.100   6.185   2.603 -1.7960  0.4714 -0.1720
13686SOL     OW41965   5.978   2.078   3.989 -0.2925 -0.1632 -0.3912
13686SOL    HW141966   5.897   2.127   3.977 -0.2224  0.3124  0.9464
13686SOL    HW241967   6.048   2.142   3.972 -0.1963 -0.2766 -0.4288
13687SOL     OW41968   2.403   0.165   0.198 -0.3945 -0.5056  0.0005
13687SOL    HW141969   2.432   0.078   0.224 -0.0603  0.0561  1.5930
13687SOL    HW241970   2.308   0.161   0.202 -0.4268 -1.0944 -0.9971
13688SOL     OW41971   6.640   6.926   0.410  0.3202 -0.3659 -0.4045
13688SOL    HW141972   6.688   6.900   0.331  3.2462 -0.3177  1.2433
13688SOL    HW241973   6.620   6.843   0.454  1.0041 -0.2749  0.0773
13689SOL     OW41974   4.639   0.945   7.185  0.2319  0.4997  0.8559
13689SOL    HW141975   4.726   0.977   7.209  1.2941 -1.8285  0.3904
13689SOL    HW241976   4.641   0.939   7.090 -0.9228  1.6493  0.7436
13690SOL     OW41977   2.230   6.920   2.653  0.2089 -0.2458  0.2414
13690SOL    HW141978   2.303   6.914   2.591  1.2204 -2.5137  1.5284
13690SOL    HW241979   2.152   6.916   2.598  1.0010  1.0909 -1.0844
13691SOL     OW41980   7.347   0.144   4.265 -0.3267  0.2215  0.1553
13691SOL    HW141981   7.349   0.125   4.359  3.0068  0.4157  0.2418
13691SOL    HW241982   7.302   0.069   4.227 -0.0703 -0.8000  1.7459
13692SOL     OW41983   5.601   3.954   4.086  0.0633 -0.0147 -0.1954
13692SOL    HW141984   5.506   3.958   4.101 -0.0836  0.4981 -1.1682
13692SOL    HW241985   5.636   3.911   4.164 -1.0867 -1.1878 -0.2986
13693SOL     OW41986   6.407   6.411   5.167  0.2526 -0.7593  0.2154
13693SOL    HW141987   6.421   6.429   5.074  0.4430  0.5298  0.4815
13693SOL    HW241988   6.422   6.317   5.176  2.4476 -0.5498 -0.6752
13694SOL     OW41989   5.157   0.083   0.061  0.4720  0.5830 -0.5191
13694SOL    HW141990   5.107   0.064  -0.018  0.2207  0.0316 -0.2362
13694SOL    HW241991   5.244   0.048   0.045 -0.4222 -2.4752  0.6249
13695SOL     OW41992   4.043   0.597   6.517 -0.3463  0.3592  0.0386
13695SOL    HW141993   4.051   0.625   6.426 -0.5648  1.0135  0.2124
13695SOL    HW241994   4.114   0.533   6.529  0.7544  1.5059 -0.1287
13696SOL     OW41995   1.275   4.595   4.461  0.5358  0.4272  0.2949
13696SOL    HW141996   1.247   4.550   4.540 -0.0953  1.4655  0.6820
13696SOL    HW241997   1.225   4.553   4.391 -0.2231  0.6812  0.6780
13697SOL     OW41998   7.615   3.088   5.375  0.1234 -0.3707 -0.0515
13697SOL    HW141999   7.553   3.029   5.417  0.1438 -0.3635 -0.0118
13697SOL    HW242000   7.654   3.138   5.446 -0.9523  0.7285 -0.1846
13698SOL     OW42001   0.922   3.899   6.244 -0.8584  0.3061  0.1514
13698SOL    HW142002   0.862   3.934   6.178 -1.5888  0.7079  1.0058
13698SOL    HW242003   0.909   3.956   6.320 -0.4235 -0.4700  0.8185
13699SOL     OW42004   0.016   6.038   7.157 -0.7596  0.1841  0.0433
13699SOL    HW142005  -0.072   6.004   7.137 -1.0861  0.0856  1.5295
13699SOL    HW242006   0.008   6.074   7.245 -0.2836  3.6781 -1.1885
13700SOL     OW42007   0.202   7.720   0.703 -0.1934  0.1792 -0.0376
13700SOL    HW142008   0.180   7.805   0.665  0.8128  0.4484 -0.0427
13700SOL    HW242009   0.141   7.659   0.662 -1.2189  0.9484  0.2847
13701SOL     OW42010   4.124   6.775   5.534 -0.3593 -0.0207 -0.6309
13701SOL    HW142011   4.072   6.765   5.454 -0.7429 -0.1226 -0.3725
13701SOL    HW242012   4.196   6.834   5.509 -1.3785  1.2538 -0.6172
13702SOL     OW42013   6.488   2.399   1.007  0.0050  0.4370  0.2657
13702SOL    HW142014   6.550   2.385   0.935  0.5936  1.4042  0.5660
13702SOL    HW242015   6.437   2.476   0.981 -3.3563 -2.1112 -1.4792
13703SOL     OW42016   5.836   3.284   6.121 -0.0367 -0.0170  0.4274
13703SOL    HW142017   5.889   3.352   6.162  0.4533 -0.7381  1.0254
13703SOL    HW242018   5.765   3.268   6.183 -0.1071 -0.1117  0.3237
13704SOL     OW42019   3.974   4.809   7.523  0.1427  0.2715  0.3350
13704SOL    HW142020   3.973   4.846   7.435 -2.0858 -4.1911 -1.8461
13704SOL    HW242021   3.904   4.855   7.570 -0.2315  1.1137 -1.0115
13705SOL     OW42022   2.816   6.456   6.430  0.1777  0.2363  0.5794
13705SOL    HW142023   2.762   6.427   6.357 -1.1533  3.4088  0.1144
13705SOL    HW242024   2.753   6.493   6.492  1.6096  3.6265  0.2384
13706SOL     OW42025   4.127   3.059   3.621  0.4332  0.0116 -0.5267
13706SOL    HW142026   4.090   3.137   3.580 -0.9972  0.3468  1.3070
13706SOL    HW242027   4.065   2.989   3.601 -0.4896  0.2589  1.3038
13707SOL     OW42028   0.081   1.790   3.435 -0.5044  0.0033  0.2034
13707SOL    HW142029   0.122   1.730   3.373  0.5804  0.6510  0.2876
13707SOL    HW242030   0.076   1.874   3.389 -0.0554  0.3871  0.8386
13708SOL     OW42031   6.274   3.095   3.755  0.3862 -0.1085  0.2897
13708SOL    HW142032   6.277   3.054   3.668 -0.0959 -0.1358  0.2887
13708SOL    HW242033   6.301   3.026   3.815  0.3939 -0.1827  0.2007
13709SOL     OW42034   2.195   7.682   5.894  0.3270  0.3699 -0.4717
13709SOL    HW142035   2.151   7.757   5.935  2.5197  0.4334  1.9876
13709SOL    HW242036   2.212   7.711   5.804 -1.4579  1.6384 -0.4542
13710SOL     OW42037   0.917   2.088   6.612 -0.1695  0.1806  0.4170
13710SOL    HW142038   0.944   2.161   6.557 -0.6914 -0.9072 -1.3446
13710SOL    HW242039   0.966   2.013   6.578 -0.7740 -0.5859  1.2099
13711SOL     OW42040   5.184   5.940   7.106 -0.3331 -0.8139  0.1788
13711SOL    HW142041   5.182   6.007   7.174  1.1097  0.1753 -0.6811
13711SOL    HW242042   5.136   5.866   7.143 -1.5970  0.5218  1.3363
13712SOL     OW42043   0.172   1.120   5.558 -0.4148 -0.3748 -0.3004
13712SOL    HW142044   0.143   1.134   5.468  0.1956 -0.7656 -0.5704
13712SOL    HW242045   0.261   1.156   5.561 -0.6818  0.2462  0.3327
13713SOL     OW42046   2.368   4.223   2.190  0.1418  0.0432  0.2432
13713SOL    HW142047   2.450   4.268   2.209  0.7132 -1.2808  1.1144
13713SOL    HW242048   2.373   4.202   2.097  0.8319 -0.0837  0.3008
13714SOL     OW42049   4.686   3.866   1.494 -1.0453 -0.2896  0.4425
13714SOL    HW142050   4.645   3.814   1.425 -1.2107  0.7672 -0.2708
13714SOL    HW242051   4.644   3.952   1.487  0.2400  0.3701  0.6526
13715SOL     OW42052   1.484   6.261   7.656 -0.8741  0.6133 -0.3309
13715SOL    HW142053   1.519   6.292   7.740 -1.4556  3.7428 -1.1095
13715SOL    HW242054   1.391   6.249   7.672 -0.7170 -0.4108 -0.1387
13716SOL     OW42055   5.719   7.525   1.191 -0.4748 -0.6316  0.3610
13716SOL    HW142056   5.802   7.503   1.149 -0.4563 -0.4194  0.2839
13716SOL    HW242057   5.675   7.441   1.203 -0.3656 -0.7176  0.1570
13717SOL     OW42058   3.516   1.707   0.912 -0.2071 -0.2147 -0.1468
13717SOL    HW142059   3.562   1.628   0.881 -0.0667  0.3694 -1.4984
13717SOL    HW242060   3.583   1.775   0.913 -0.2710 -0.1487  1.2542
13718SOL     OW42061   4.253   2.765   5.903 -0.0575  0.0026 -0.3514
13718SOL    HW142062   4.344   2.753   5.929  0.0693  1.4474 -0.0119
13718SOL    HW242063   4.201   2.730   5.975  0.2685  1.1879  0.4930
13719SOL     OW42064   3.419   5.226   2.722  0.0027  0.6192 -0.1134
13719SOL    HW142065   3.342   5.230   2.666  0.4633  0.0560 -0.7916
13719SOL    HW242066   3.425   5.134   2.749  0.7106  0.5575 -0.4565
13720SOL     OW42067   3.617   5.989   2.173  0.2241 -0.2323 -0.4698
13720SOL    HW142068   3.591   5.971   2.264 -0.9039 -1.4009 -0.9870
13720SOL    HW242069   3.544   6.039   2.137  1.3930  1.6625 -0.3120
13721SOL     OW42070   6.150   2.971   2.936  0.3071 -0.3837  0.5233
13721SOL    HW142071   6.080   2.933   2.883  0.9037 -0.5953 -0.1355
13721SOL    HW242072   6.176   2.900   2.996 -0.0354 -0.3058  0.7653
13722SOL     OW42073   0.394   3.828   1.869  0.1227 -0.0648 -0.7397
13722SOL    HW142074   0.328   3.773   1.827 -0.1995  0.5712 -1.0828
13722SOL    HW242075   0.350   3.913   1.881  1.2135  0.7066 -1.9784
13723SOL     OW42076   7.235   7.210   1.823  0.0020 -0.0216  0.3010
13723SOL    HW142077   7.265   7.283   1.877  0.1065  1.5406 -1.7278
13723SOL    HW242078   7.271   7.228   1.736 -1.7488 -1.3444 -0.7772
13724SOL     OW42079   5.856   4.398   3.385  0.2448  0.4986 -0.1498
13724SOL    HW142080   5.820   4.378   3.471 -0.9490  3.5330  0.1997
13724SOL    HW242081   5.946   4.426   3.403  0.8207 -1.1480 -0.2614
13725SOL     OW42082   2.051   3.042   3.703  0.2262  0.1096  0.5231
13725SOL    HW142083   2.025   3.121   3.750  2.6565  2.0928 -1.2710
13725SOL    HW242084   2.078   3.072   3.617 -1.2952 -3.0566 -1.2533
13726SOL     OW42085   7.263   2.374   3.144 -0.3583  0.0920 -0.0609
13726SOL    HW142086   7.192   2.317   3.114 -0.9121  1.3486 -1.2185
13726SOL    HW242087   7.340   2.342   3.097 -0.8268  0.7877 -1.3372
13727SOL     OW42088   4.979   5.757   7.150  0.0731  0.1780 -0.4114
13727SOL    HW142089   4.943   5.670   7.130  0.6538  0.0960 -1.1356
13727SOL    HW242090   4.942   5.815   7.084  1.0583  0.1395 -1.0114
13728SOL     OW42091   3.558   3.297   1.729  0.8021  0.3701 -0.3683
13728SOL    HW142092   3.523   3.350   1.657  1.9888  1.6094 -0.0896
13728SOL    HW242093   3.611   3.359   1.780  3.1482 -1.2738 -0.6315
13729SOL     OW42094   0.798   1.831   5.839  0.2287  0.1868 -0.3456
13729SOL    HW142095   0.825   1.792   5.923 -1.2076 -1.0646 -0.4344
13729SOL    HW242096   0.774   1.921   5.862 -2.6187 -0.8290  1.1681
13730SOL     OW42097   0.143   5.644   6.515  0.1613 -0.4808  0.5055
13730SOL    HW142098   0.197   5.628   6.592  1.1353 -2.3912 -0.5189
13730SOL    HW242099   0.133   5.558   6.474  1.0410  0.6625 -2.3675
13731SOL     OW42100   6.025   5.489   6.306  0.3838  0.0074 -0.0235
13731SOL    HW142101   6.004   5.545   6.232  0.2656 -0.3511 -0.2626
13731SOL    HW242102   6.117   5.509   6.326  0.6104 -0.3516 -0.6684
13732SOL     OW42103   0.398   3.918   3.076 -0.2374 -0.3747  0.4060
13732SOL    HW142104   0.400   3.910   3.171  0.9451  0.6341  0.4985
13732SOL    HW242105   0.489   3.933   3.052 -0.8265  2.2715 -0.5683
13733SOL     OW42106   5.181   5.916   3.483 -0.3924  0.2015  0.4882
13733SOL    HW142107   5.262   5.879   3.448 -0.8794  0.3313 -0.8116
13733SOL    HW242108   5.166   5.867   3.564 -0.1549 -1.3084 -0.3522
13734SOL     OW42109   2.187   5.718   1.779 -0.7833  0.4280  0.1762
13734SOL    HW142110   2.255   5.755   1.722 -2.4225  0.8278 -1.5995
13734SOL    HW242111   2.182   5.780   1.852  0.5980  0.5031  0.2410
13735SOL     OW42112   0.528   0.195   7.186  0.1555 -0.6002 -0.2296
13735SOL    HW142113   0.564   0.226   7.270  0.1060 -2.4104  0.4953
13735SOL    HW242114   0.605   0.168   7.136  0.0219 -2.0990  0.3335
13736SOL     OW42115   4.046   3.984   6.840  0.6209  0.3479  0.1554
13736SOL    HW142116   4.066   3.900   6.800  1.0662  0.4680  0.1183
13736SOL    HW242117   4.059   4.048   6.770 -0.9489  0.3465 -0.1823
13737SOL     OW42118   0.441   6.140   3.397 -0.1367 -0.5253  0.6736
13737SOL    HW142119   0.437   6.092   3.480 -1.1883 -1.9959 -0.1926
13737SOL    HW242120   0.410   6.228   3.420 -1.2465 -1.1403  1.6953
13738SOL     OW42121   6.389   2.344   5.943 -0.1784 -0.5981 -0.0371
13738SOL    HW142122   6.398   2.439   5.942 -0.8727 -0.5233 -0.0013
13738SOL    HW242123   6.323   2.327   6.011 -0.8472 -1.0198 -0.7745
13739SOL     OW42124   5.501   4.553   0.614  0.6292 -0.4710 -0.1005
13739SOL    HW142125   5.564   4.519   0.678  0.5282 -0.6544 -0.0957
13739SOL    HW242126   5.548   4.554   0.531  0.1709 -2.1447 -0.4328
13740SOL     OW42127   7.073   1.042   5.526  0.2353 -0.5117 -0.1937
13740SOL    HW142128   7.063   0.950   5.552 -0.2262 -1.0328 -2.0538
13740SOL    HW242129   7.160   1.066   5.558  0.4280 -1.6446  0.1939
13741SOL     OW42130   4.765   5.370   1.227 -0.7362 -0.4077  0.0557
13741SOL    HW142131   4.681   5.414   1.215 -0.9631 -1.0090 -0.6342
13741SOL    HW242132   4.827   5.425   1.179 -0.7658 -0.0857  0.3770
13742SOL     OW42133   6.879   6.872   2.268  0.1392 -0.0422  0.2373
13742SOL    HW142134   6.932   6.797   2.296  0.9398  0.9795  1.5456
13742SOL    HW242135   6.934   6.918   2.204 -0.0486 -0.1447 -0.0008
13743SOL     OW42136   3.190   1.155   6.834 -0.5468  0.8808  0.3401
13743SOL    HW142137   3.274   1.198   6.819 -0.6861  1.2716  0.6622
13743SOL    HW242138   3.207   1.062   6.819 -0.0271  0.9450  0.5242
13744SOL     OW42139   0.475   2.080   6.419  0.3083  0.3906 -0.4120
13744SOL    HW142140   0.425   2.024   6.360  2.2355 -2.1363  0.1933
13744SOL    HW242141   0.454   2.048   6.507  1.3070  0.7397 -0.0354
13745SOL     OW42142   2.324   6.258   6.496  0.6772  0.2064  0.5986
13745SOL    HW142143   2.308   6.265   6.402 -2.6069  0.6078  1.0706
13745SOL    HW242144   2.381   6.332   6.517 -0.0946  1.2403 -0.8220
13746SOL     OW42145   7.604   3.849   5.361  0.1459 -0.8032 -0.4670
13746SOL    HW142146   7.552   3.807   5.431  1.8064 -1.5128  0.3855
13746SOL    HW242147   7.538   3.883   5.300 -1.3905  0.0500  1.5406
13747SOL     OW42148   3.850   2.216   5.625 -0.6370  0.5276 -0.6176
13747SOL    HW142149   3.832   2.162   5.701  0.2683 -2.8285 -2.5747
13747SOL    HW242150   3.820   2.164   5.551  2.5476  1.5359 -2.8503
13748SOL     OW42151   3.253   7.724   6.944 -0.2196 -0.3940  0.1351
13748SOL    HW142152   3.332   7.693   6.988 -0.2036 -1.7233 -0.7523
13748SOL    HW242153   3.273   7.716   6.851 -0.9303  0.5467 -0.1179
13749SOL     OW42154   6.512   7.105   4.970  0.2879 -0.8036 -0.1469
13749SOL    HW142155   6.456   7.182   4.981 -1.5171 -1.7986 -1.7035
13749SOL    HW242156   6.515   7.065   5.057  2.4610  1.6707  1.0866
13750SOL     OW42157   0.838   6.574   6.215 -0.5293  0.3257 -0.3169
13750SOL    HW142158   0.917   6.626   6.228 -0.9288  0.7045  0.7130
13750SOL    HW242159   0.774   6.637   6.180 -0.4021  0.0340 -1.0976
13751SOL     OW42160   7.214   6.114   4.724 -0.2522  0.4391  0.0924
13751SOL    HW142161   7.206   6.208   4.708 -2.7178  0.5483  1.5291
13751SOL    HW242162   7.216   6.074   4.637 -2.3104  1.6319 -0.5559
13752SOL     OW42163   3.505   5.607   7.147  0.2603 -0.8135  0.5338
13752SOL    HW142164   3.420   5.630   7.186  1.2558  0.6482  1.9760
13752SOL    HW242165   3.570   5.635   7.212  1.9180 -0.4597 -1.1737
13753SOL     OW42166   3.646   6.271   4.429 -0.5507  0.4691 -0.1674
13753SOL    HW142167   3.739   6.290   4.446 -0.5932 -0.0089  0.6466
13753SOL    HW242168   3.610   6.354   4.399 -0.6055  1.5837  2.6958
13754SOL     OW42169   0.249   5.317   7.744 -0.5530  0.3877 -0.4742
13754SOL    HW142170   0.324   5.360   7.786 -0.7126  0.8980 -0.7050
13754SOL    HW242171   0.173   5.361   7.781 -0.8971 -1.7495  1.6195
13755SOL     OW42172   0.150   6.407   7.264 -0.3930 -0.4381 -0.0576
13755SOL    HW142173   0.193   6.435   7.344  0.3640  0.9516 -0.8994
13755SOL    HW242174   0.073   6.357   7.293  0.2671 -0.5871  1.4960
13756SOL     OW42175   4.042   7.384   2.082 -0.2559  0.3627 -0.3429
13756SOL    HW142176   3.974   7.385   2.015 -0.2446  0.4227 -0.3536
13756SOL    HW242177   4.121   7.353   2.037 -0.4064 -0.2317 -0.2041
13757SOL     OW42178   0.383   7.103   0.912  0.0906 -0.1258 -0.8887
13757SOL    HW142179   0.456   7.150   0.872  0.4861 -1.6110 -2.0191
13757SOL    HW242180   0.376   7.022   0.861 -1.4562 -0.6517  0.0841
13758SOL     OW42181   6.673   0.119   0.155 -0.1101  0.1245  0.0989
13758SOL    HW142182   6.648   0.115   0.247  1.9263 -0.6305  0.6698
13758SOL    HW242183   6.767   0.135   0.156 -0.0034 -0.1032 -1.8638
13759SOL     OW42184   2.467   5.825   1.297 -0.2140  0.3941 -0.0122
13759SOL    HW142185   2.499   5.761   1.233 -1.7344  1.8882 -2.4217
13759SOL    HW242186   2.372   5.825   1.285 -0.6298  0.3058  2.7604
13760SOL     OW42187   0.972   3.639   4.638 -0.2298  0.0733 -0.1033
13760SOL    HW142188   0.904   3.612   4.577 -0.0406  1.0310 -0.7562
13760SOL    HW242189   0.966   3.734   4.641 -0.7865  0.0120  2.0298
13761SOL     OW42190   5.466   4.996   3.132 -0.2843  0.2922  0.3117
13761SOL    HW142191   5.387   5.016   3.082  0.0262  1.9990  0.4403
13761SOL    HW242192   5.530   5.062   3.104  0.8998 -0.6606  0.6782
13762SOL     OW42193   3.405   3.095   4.708  0.3744 -0.7024  0.4591
13762SOL    HW142194   3.448   3.140   4.781 -0.7868  1.2072  0.0511
13762SOL    HW242195   3.382   3.166   4.647 -1.7671 -1.8198 -0.1288
13763SOL     OW42196   4.436   0.850   4.780 -0.3578  0.0467  0.2275
13763SOL    HW142197   4.373   0.815   4.843  0.4250  0.5925  1.3419
13763SOL    HW242198   4.384   0.909   4.724 -0.8447  0.4539  1.0969
13764SOL     OW42199   4.105   5.257   4.797  0.2448 -0.3917 -0.4513
13764SOL    HW142200   4.051   5.237   4.873 -0.5532  0.0804 -0.8838
13764SOL    HW242201   4.111   5.352   4.796  0.8985 -0.4302 -0.5401
13765SOL     OW42202   4.323   3.554   5.792 -0.1499 -0.3195 -0.3027
13765SOL    HW142203   4.371   3.539   5.874  1.4707  3.7645 -0.2839
13765SOL    HW242204   4.237   3.585   5.821 -0.0914 -0.2744 -0.1739
13766SOL     OW42205   0.909   0.204   6.821  0.0514 -0.5105  0.2794
13766SOL    HW142206   0.962   0.133   6.859  1.9284  0.3112 -0.6415
13766SOL    HW242207   0.921   0.194   6.727  0.5092  1.0958  0.1378
13767SOL     OW42208   4.278   4.270   5.645 -0.0996  0.1833 -0.2231
13767SOL    HW142209   4.267   4.250   5.552 -0.0226 -0.4337 -0.0975
13767SOL    HW242210   4.198   4.240   5.686 -0.6753  1.5702 -0.2541
13768SOL     OW42211   0.418   2.913   1.707 -0.2875  0.0022 -0.3365
13768SOL    HW142212   0.326   2.939   1.712 -0.5129 -0.6855 -0.8806
13768SOL    HW242213   0.417   2.819   1.724  0.4813  0.2318  1.2147
13769SOL     OW42214   5.380   3.343   1.020  0.0001  0.3701  0.0239
13769SOL    HW142215   5.330   3.352   0.939 -0.2967  2.2754  0.3647
13769SOL    HW242216   5.408   3.432   1.040  0.2111 -0.0873  1.9182
13770SOL     OW42217   5.681   3.092   5.609  0.1352 -0.0907  0.2869
13770SOL    HW142218   5.618   3.150   5.568 -0.8831 -0.8237  0.7612
13770SOL    HW242219   5.656   3.090   5.701  0.3915 -0.9565  0.3534
13771SOL     OW42220   5.408   4.091   1.371 -0.0760  0.5836 -0.1216
13771SOL    HW142221   5.406   4.165   1.311  1.5336  1.5504  0.9477
13771SOL    HW242222   5.346   4.114   1.440  1.6307  1.7690  1.0794
13772SOL     OW42223   5.742   4.244   2.486 -0.5891  0.0264  0.2144
13772SOL    HW142224   5.787   4.274   2.407 -2.8115  3.1187 -0.0655
13772SOL    HW242225   5.812   4.227   2.549  1.1317 -0.5024 -1.7346
13773SOL     OW42226   6.543   2.831   1.177  0.0121  0.4131  0.1767
13773SOL    HW142227   6.479   2.761   1.193  0.1168  0.6941  2.0872
13773SOL    HW242228   6.567   2.821   1.085 -0.2203 -1.8721  0.2981
13774SOL     OW42229   2.621   0.809   6.082  0.1176  0.2003 -0.1777
13774SOL    HW142230   2.686   0.867   6.122 -0.2328 -0.2842  1.1169
13774SOL    HW242231   2.545   0.866   6.068 -0.2654  0.0586  1.1943
13775SOL     OW42232   7.270   1.276   7.253 -0.2494  0.4019  0.0002
13775SOL    HW142233   7.335   1.317   7.196 -1.2977  0.9311 -0.8596
13775SOL    HW242234   7.224   1.349   7.294 -0.5055  0.0402  0.3676
13776SOL     OW42235   1.035   6.519   5.009  0.3366 -0.5794  0.0759
13776SOL    HW142236   1.040   6.449   4.943  1.8374 -0.2514 -0.1993
13776SOL    HW242237   1.025   6.599   4.958 -2.5266 -0.6165  0.4222
13777SOL     OW42238   2.250   2.679   4.834 -0.2708  0.4531  0.0394
13777SOL    HW142239   2.228   2.764   4.873 -1.0893 -0.1859  1.0084
13777SOL    HW242240   2.346   2.679   4.830 -0.0565  0.2089  2.9289
13778SOL     OW42241   1.510   2.114   4.402  0.3545 -0.0226  0.5896
13778SOL    HW142242   1.593   2.089   4.442  0.4071  0.7761  0.9971
13778SOL    HW242243   1.444   2.098   4.469 -0.1324 -2.5989 -0.4037
13779SOL     OW42244   4.629   5.307   2.915 -0.1272 -0.4341 -0.0340
13779SOL    HW142245   4.547   5.275   2.876 -0.3790 -1.1954  1.0832
13779SOL    HW242246   4.617   5.296   3.009  0.3949  1.5366  0.3124
13780SOL     OW42247   0.654   5.034   5.448  0.2201  0.3989 -0.4155
13780SOL    HW142248   0.633   5.097   5.379  0.0317 -0.4182 -1.1321
13780SOL    HW242249   0.698   5.085   5.515 -3.2932  2.0805  0.8154
13781SOL     OW42250   2.479   4.453   2.477 -0.3168 -0.1685  0.2130
13781SOL    HW142251   2.562   4.488   2.446 -1.2246 -0.1911 -2.5332
13781SOL    HW242252   2.501   4.366   2.511  0.6386 -0.8669 -1.9738
13782SOL     OW42253   7.388   4.545   5.390 -0.1627  0.1510  0.4884
13782SOL    HW142254   7.457   4.531   5.455 -1.9965 -0.6465  2.3959
13782SOL    HW242255   7.431   4.593   5.319  2.1395  0.3753  1.9271
13783SOL     OW42256   4.865   7.600   6.878  0.3137  0.2864  0.5550
13783SOL    HW142257   4.803   7.647   6.933 -0.1836  0.6264 -0.2804
13783SOL    HW242258   4.852   7.508   6.902  1.1226  0.5225  2.0190
13784SOL     OW42259   0.551   6.455   1.313  0.2207  0.2845  0.5807
13784SOL    HW142260   0.609   6.440   1.238 -0.2784  0.9319  0.0604
13784SOL    HW242261   0.463   6.462   1.275  0.1149  2.0169  1.0488
13785SOL     OW42262   7.539   3.341   6.159  0.2289  0.0980 -0.7810
13785SOL    HW142263   7.479   3.394   6.211 -0.1195 -1.1649  0.1725
13785SOL    HW242264   7.585   3.403   6.102 -0.3118  1.3575  0.1336
13786SOL     OW42265   6.323   2.783   7.560 -0.1886 -0.1709  0.0441
13786SOL    HW142266   6.395   2.770   7.621 -0.7003 -0.3050  0.6245
13786SOL    HW242267   6.366   2.814   7.480  0.5035 -0.1634  0.4041
13787SOL     OW42268   0.223   7.543   5.257  0.1271 -0.2735 -0.2435
13787SOL    HW142269   0.256   7.471   5.310 -1.0240 -1.7529 -1.4449
13787SOL    HW242270   0.293   7.561   5.194 -0.1045 -1.3109 -0.8208
13788SOL     OW42271   4.282   7.165   7.058  0.5307 -0.1827  0.1014
13788SOL    HW142272   4.221   7.163   7.132 -0.0209 -2.0575 -0.3447
13788SOL    HW242273   4.365   7.194   7.096  0.0055 -0.1248  1.2473
13789SOL     OW42274   0.140   4.224   3.251 -0.2286  0.0022  0.6397
13789SOL    HW142275   0.070   4.183   3.200 -1.6315  2.7584  0.1331
13789SOL    HW242276   0.196   4.267   3.186  1.1727 -0.9949  1.1379
13790SOL     OW42277   2.732   5.197   7.331  0.8317 -0.3749 -0.1152
13790SOL    HW142278   2.718   5.103   7.333  0.7680 -0.4663 -2.1040
13790SOL    HW242279   2.807   5.209   7.273 -0.0556  0.8326 -1.1006
13791SOL     OW42280   7.066   5.531   4.480 -0.0755  0.1280 -0.2409
13791SOL    HW142281   7.018   5.601   4.435 -2.2919 -0.0602  1.6186
13791SOL    HW242282   7.154   5.534   4.443 -0.7975  2.2472 -1.9873
13792SOL     OW42283   5.975   0.358   4.698 -0.3149 -1.2690 -0.4055
13792SOL    HW142284   5.967   0.280   4.644  2.5835 -1.0645 -1.2961
13792SOL    HW242285   5.988   0.430   4.635  3.1477 -1.0281  0.3753
13793SOL     OW42286   6.490   1.859   6.882  0.6844  0.3009  0.6526
13793SOL    HW142287   6.536   1.908   6.814 -0.5477 -0.1710 -0.5589
13793SOL    HW242288   6.399   1.889   6.876  0.3830 -0.4131  1.4814
13794SOL     OW42289   0.491   0.809   0.993  0.7814  0.1555 -0.0662
13794SOL    HW142290   0.396   0.797   0.989  0.9650 -1.2240 -1.1678
13794SOL    HW242291   0.518   0.765   1.074  0.5906 -0.4743 -0.3371
13795SOL     OW42292   4.143   2.435   4.968  0.1762  0.2308  0.1274
13795SOL    HW142293   4.118   2.447   4.876  0.0637  0.1032  0.1412
13795SOL    HW242294   4.230   2.474   4.974  1.0480 -1.4895 -0.4904
13796SOL     OW42295   1.751   4.562   6.390 -0.2708  0.0794  0.6272
13796SOL    HW142296   1.700   4.484   6.410 -1.5925  0.5653 -0.7176
13796SOL    HW242297   1.711   4.631   6.443 -1.1321  0.4854 -0.5130
13797SOL     OW42298   4.374   7.547   4.837  0.0935 -0.1924 -0.1010
13797SOL    HW142299   4.307   7.574   4.775  0.0016 -0.2666 -0.0329
13797SOL    HW242300   4.424   7.479   4.790 -0.2711 -0.5906  0.0790
13798SOL     OW42301   2.842   0.970   4.720  0.0608 -0.5113 -0.3490
13798SOL    HW142302   2.843   0.996   4.628  1.9637  1.2423  0.0964
13798SOL    HW242303   2.804   1.045   4.766 -1.0104 -1.4260  0.3296
13799SOL     OW42304   7.549   4.662   1.691 -0.3814  0.0190  0.2855
13799SOL    HW142305   7.495   4.740   1.690  0.3661  0.6014 -2.3282
13799SOL    HW242306   7.508   4.605   1.757 -2.4080  1.5703  0.4598
13800SOL     OW42307   7.710   1.704   2.407 -0.4391 -0.1673 -0.0903
13800SOL    HW142308   7.795   1.730   2.371 -1.7488 -0.1835 -3.5822
13800SOL    HW242309   7.718   1.611   2.423  0.8836  0.2426  1.9565
13801SOL     OW42310   5.289   0.323   7.034 -0.0175 -0.4686  0.2137
13801SOL    HW142311   5.283   0.248   6.974 -0.7752  0.9326 -1.5326
13801SOL    HW242312   5.308   0.283   7.119  0.4733 -2.5774 -0.8142
13802SOL     OW42313   5.576   0.912   1.672 -0.2441 -0.4210  0.2046
13802SOL    HW142314   5.643   0.862   1.626 -0.4931 -0.3098 -0.2891
13802SOL    HW242315   5.619   0.994   1.697  0.1410 -0.8507  0.9430
13803SOL     OW42316   5.403   4.725   3.119 -0.1471  0.5001 -0.1682
13803SOL    HW142317   5.431   4.811   3.150  1.3099  0.1498 -0.4275
13803SOL    HW242318   5.373   4.740   3.029 -0.7929  0.8738  0.1003
13804SOL     OW42319   0.735   3.514   3.349  0.4528 -0.1482  0.0256
13804SOL    HW142320   0.721   3.485   3.439  1.0498 -2.2590 -0.5134
13804SOL    HW242321   0.823   3.551   3.349  0.3299  0.1583  0.3539
13805SOL     OW42322   1.095   1.370   4.279 -0.2448 -0.2149 -0.8403
13805SOL    HW142323   1.116   1.277   4.273 -1.3414 -0.4452 -1.2949
13805SOL    HW242324   1.018   1.373   4.336  1.2336  0.6492  1.2471
13806SOL     OW42325   6.786   7.689   0.986 -0.4790 -0.2683  0.2916
13806SOL    HW142326   6.811   7.613   0.935 -0.1429  0.0323  0.0031
13806SOL    HW242327   6.860   7.703   1.046 -0.9739 -0.7649  1.0333
13807SOL     OW42328   4.354   1.178   0.481 -0.0315  0.1063  0.2381
13807SOL    HW142329   4.376   1.208   0.393  1.8342 -1.7370 -0.0074
13807SOL    HW242330   4.282   1.234   0.508 -0.1126  1.2760 -2.1293
13808SOL     OW42331   2.961   4.948   1.632  0.7425 -0.0552 -0.1419
13808SOL    HW142332   2.904   4.887   1.585  0.6194 -0.5103  0.5815
13808SOL    HW242333   3.036   4.896   1.659  0.2089 -0.1339  1.2797
13809SOL     OW42334   6.757   1.995   4.442 -0.2349 -0.0291 -0.2448
13809SOL    HW142335   6.836   1.944   4.462  0.0641  0.7106  0.5535
13809SOL    HW242336   6.783   2.086   4.458 -1.3492  0.2025  0.4111
13810SOL     OW42337   1.506   7.549   0.962  0.0765  0.0032 -0.5101
13810SOL    HW142338   1.564   7.504   1.024 -0.2189 -0.7022 -0.7328
13810SOL    HW242339   1.429   7.492   0.957  0.2083 -0.0870 -1.7343
13811SOL     OW42340   2.432   1.218   1.071 -0.7115 -0.2412  0.0454
13811SOL    HW142341   2.400   1.182   1.154  0.0990 -0.7718  0.1429
13811SOL    HW242342   2.472   1.143   1.027 -0.6501  0.1556 -0.5859
13812SOL     OW42343   1.910   6.634   0.659 -0.5459  0.0514  0.3864
13812SOL    HW142344   1.985   6.633   0.600 -0.6109  0.3448  0.2915
13812SOL    HW242345   1.875   6.723   0.650 -0.2661  0.2572  1.2373
13813SOL     OW42346   5.661   1.301   7.178 -0.2733  0.5870  0.0276
13813SOL    HW142347   5.624   1.244   7.245  1.1355  2.5804  2.6534
13813SOL    HW242348   5.720   1.244   7.129 -2.4003 -1.2509 -0.5709
13814SOL     OW42349   1.950   7.299   5.646 -0.5606  0.3384 -0.4014
13814SOL    HW142350   1.963   7.379   5.697  1.9154 -0.8747  1.0655
13814SOL    HW242351   1.881   7.252   5.692 -0.0700  0.3933  0.4233
13815SOL     OW42352   2.259   5.686   3.298  0.5159 -0.4675  0.7514
13815SOL    HW142353   2.170   5.667   3.327 -0.6859 -0.0739 -2.3226
13815SOL    HW242354   2.279   5.772   3.335 -1.7728  0.9837 -1.0948
13816SOL     OW42355   1.249   4.750   3.320 -0.1417  0.3078  0.5515
13816SOL    HW142356   1.204   4.773   3.402 -0.9443 -1.8513  0.7816
13816SOL    HW242357   1.210   4.808   3.255 -0.5905  1.0206  1.4253
13817SOL     OW42358   6.644   7.138   0.824  0.4835 -0.0881 -0.0657
13817SOL    HW142359   6.669   7.137   0.731  0.0482  0.6200 -0.2025
13817SOL    HW242360   6.689   7.063   0.862  0.6455 -0.4039 -0.8577
13818SOL     OW42361   5.846   4.031   6.965  0.4195  0.8940  0.3707
13818SOL    HW142362   5.815   3.946   6.994 -0.4987  0.2680 -2.1982
13818SOL    HW242363   5.768   4.086   6.964  0.5847  1.1251 -0.0663
13819SOL     OW42364   3.062   6.598   3.663  0.8920  0.2534  0.3851
13819SOL    HW142365   3.024   6.567   3.581  1.1785 -0.1814  0.4098
13819SOL    HW242366   3.144   6.639   3.636  0.7713  0.5056  0.4073
13820SOL     OW42367   5.833   2.784   6.158  0.2372  0.1806 -0.0305
13820SOL    HW142368   5.900   2.833   6.206 -1.1036  1.0053  1.0734
13820SOL    HW242369   5.863   2.785   6.067  1.5522  0.8055  0.3826
13821SOL     OW42370   2.250   7.515   3.521 -0.2165  0.1166 -0.1659
13821SOL    HW142371   2.179   7.568   3.483  0.2762  0.3263 -0.8214
13821SOL    HW242372   2.238   7.522   3.615 -0.9253  0.3495 -0.2678
13822SOL     OW42373   4.843   0.799   7.361 -0.4642 -0.4413  0.1905
13822SOL    HW142374   4.913   0.795   7.295  0.5452 -1.0470  1.2614
13822SOL    HW242375   4.843   0.891   7.389 -0.2894 -0.3768 -0.0120
13823SOL     OW42376   7.478   5.961   0.780 -0.4542 -0.6722 -0.2357
13823SOL    HW142377   7.573   5.966   0.791 -0.5381 -0.1082  0.3316
13823SOL    HW242378   7.449   6.053   0.780 -0.9829 -0.8360 -0.5344
13824SOL     OW42379   5.141   0.626   1.658 -0.3935  1.1795  0.1350
13824SOL    HW142380   5.060   0.594   1.618  0.5926 -1.0899 -0.1976
13824SOL    HW242381   5.112   0.693   1.720 -2.5791  0.1406  0.3411
13825SOL     OW42382   1.714   4.049   1.091 -0.2311  0.0376 -0.3713
13825SOL    HW142383   1.709   4.089   1.004  0.7011  0.2432 -0.3402
13825SOL    HW242384   1.624   4.053   1.124 -0.2170  2.0475 -0.4050
13826SOL     OW42385   2.792   1.064   5.930 -0.0841 -0.1180 -0.3045
13826SOL    HW142386   2.807   1.052   6.023  1.8192 -1.3676 -0.6999
13826SOL    HW242387   2.865   1.118   5.900  0.4924 -1.3981 -1.3601
13827SOL     OW42388   6.666   0.427   2.629  0.4719  0.0768 -0.5885
13827SOL    HW142389   6.572   0.433   2.645  0.5151 -1.7762  0.6487
13827SOL    HW242390   6.676   0.452   2.537 -1.4442 -1.1908 -1.2007
13828SOL     OW42391   0.353   4.382   5.023 -0.1778 -0.4693 -0.0975
13828SOL    HW142392   0.372   4.356   5.113 -2.9168  0.6818  0.8975
13828SOL    HW242393   0.431   4.354   4.974  1.7108 -0.5503  2.6814
13829SOL     OW42394   4.344   1.865   7.402 -0.4446 -0.6151  0.1544
13829SOL    HW142395   4.348   1.816   7.320  0.2366  0.7370 -0.6583
13829SOL    HW242396   4.407   1.936   7.391 -1.1440  0.2485  1.4145
13830SOL     OW42397   4.020   3.999   4.319  0.2230 -0.0839  0.6511
13830SOL    HW142398   4.043   4.054   4.394  0.3684 -0.8478  1.1847
13830SOL    HW242399   3.972   3.925   4.357 -0.1624 -0.2206 -0.0712
13831SOL     OW42400   2.730   0.068   7.241  0.2521  0.3236  0.1423
13831SOL    HW142401   2.740   0.052   7.335  0.8411 -1.1929 -0.1511
13831SOL    HW242402   2.744  -0.018   7.200 -2.0860  0.5001 -1.2032
13832SOL     OW42403   3.064   2.730   2.709 -0.1309  0.0162 -0.1716
13832SOL    HW142404   3.156   2.721   2.683  0.8960  4.2652  1.2281
13832SOL    HW242405   3.063   2.707   2.802 -0.1225  1.3962  0.1853
13833SOL     OW42406   0.521   7.385   1.261  0.0916  0.2326  0.5547
13833SOL    HW142407   0.580   7.370   1.188 -0.2006  0.4373  0.2736
13833SOL    HW242408   0.576   7.424   1.329 -0.0205  1.9069 -0.2739
13834SOL     OW42409   2.189   3.822   7.063  0.1977  0.4746  0.1307
13834SOL    HW142410   2.180   3.820   6.967 -0.1767 -1.2558  0.1688
13834SOL    HW242411   2.240   3.744   7.083  0.1408  0.7450  1.3644
13835SOL     OW42412   2.712   5.806   4.314 -0.0379  0.0303 -0.2246
13835SOL    HW142413   2.707   5.792   4.220 -1.1138 -1.4864  0.0203
13835SOL    HW242414   2.794   5.853   4.327  1.7015 -2.4087 -1.6416
13836SOL     OW42415   4.174   4.513   3.667  0.0180  0.0300 -0.2841
13836SOL    HW142416   4.238   4.521   3.738  0.2152  0.4528 -0.5034
13836SOL    HW242417   4.101   4.568   3.695 -0.0966 -0.1655 -0.2004
13837SOL     OW42418   0.063   5.638   7.708  0.4642  0.4309 -0.6679
13837SOL    HW142419   0.060   5.554   7.753 -0.6657 -1.1772 -3.4867
13837SOL    HW242420   0.156   5.663   7.709  0.6717 -0.2341  1.1283
13838SOL     OW42421   4.275   5.137   2.442 -0.4011  0.0416 -0.2659
13838SOL    HW142422   4.223   5.084   2.381  1.3367 -0.9277 -0.9737
13838SOL    HW242423   4.308   5.209   2.388  1.3731 -0.9711 -0.6223
13839SOL     OW42424   5.951   5.253   3.951  0.0454 -0.4402 -0.2069
13839SOL    HW142425   5.860   5.224   3.959 -0.1921  0.4265  0.4362
13839SOL    HW242426   6.001   5.172   3.945 -0.7978 -0.9269 -1.0016
13840SOL     OW42427   1.416   4.683   5.469  0.4156  0.8051  0.6548
13840SOL    HW142428   1.351   4.723   5.411 -0.9125 -0.8849  0.9069
13840SOL    HW242429   1.500   4.713   5.434 -0.3750  0.7520 -1.4732
13841SOL     OW42430   0.607   3.393   2.272  0.1832 -0.3109  0.0671
13841SOL    HW142431   0.633   3.481   2.247  0.1483  0.1024  1.4034
13841SOL    HW242432   0.687   3.353   2.307 -0.1377 -0.2647  0.8781
13842SOL     OW42433   1.262   0.700   4.328  0.3650  0.5475 -0.5714
13842SOL    HW142434   1.214   0.628   4.367  0.7473  0.5007 -0.1782
13842SOL    HW242435   1.307   0.742   4.402  0.9707  0.5518 -0.9321
13843SOL     OW42436   7.419   5.301   3.236 -0.1949 -0.0175 -0.3970
13843SOL    HW142437   7.471   5.340   3.166  0.6569 -1.0073 -0.3490
13843SOL    HW242438   7.469   5.321   3.316  0.2355 -1.1420 -0.3710
13844SOL     OW42439   3.230   2.852   5.253  0.1775  0.4676 -0.1451
13844SOL    HW142440   3.198   2.852   5.343  1.4378  1.1741  0.3401
13844SOL    HW242441   3.272   2.938   5.243 -0.0046  0.4230 -1.4273
13845SOL     OW42442   5.727   2.165   1.382  0.3308  0.4260  0.1442
13845SOL    HW142443   5.651   2.223   1.391 -1.3856 -1.8649  1.7636
13845SOL    HW242444   5.736   2.152   1.288 -2.6183 -0.7178 -0.0939
13846SOL     OW42445   0.399   1.092   4.428 -0.6872 -0.1807 -0.3000
13846SOL    HW142446   0.433   1.026   4.368 -0.8951  0.2076 -0.8528
13846SOL    HW242447   0.339   1.145   4.375  2.3337  2.9083 -1.0369
13847SOL     OW42448   2.398   4.599   0.385  0.2070 -0.3627 -0.8508
13847SOL    HW142449   2.390   4.591   0.290  1.0068 -0.8086 -0.8853
13847SOL    HW242450   2.492   4.595   0.402  0.2663  2.0979 -0.2337
13848SOL     OW42451   1.364   0.259   2.889 -0.5621 -0.3699 -0.3677
13848SOL    HW142452   1.333   0.346   2.915 -0.2445 -0.2986 -0.2147
13848SOL    HW242453   1.417   0.275   2.810 -0.7176 -0.4575 -0.4890
13849SOL     OW42454   2.056   2.544   6.407  0.5529  0.1227 -0.0202
13849SOL    HW142455   1.972   2.578   6.438  1.5946  0.7518  2.4243
13849SOL    HW242456   2.061   2.455   6.443  0.7824 -0.0476 -0.4633
13850SOL     OW42457   1.219   2.974   5.088  0.0394 -0.1652  0.4813
13850SOL    HW142458   1.227   3.058   5.132 -0.3929  1.1794 -1.8178
13850SOL    HW242459   1.309   2.947   5.071  0.1696  0.2631  0.4883
13851SOL     OW42460   1.494   6.415   5.460  0.4958  0.2384  0.4618
13851SOL    HW142461   1.501   6.453   5.373  2.1081  0.8716  0.8271
13851SOL    HW242462   1.400   6.420   5.481  0.1886  0.7167 -0.9380
13852SOL     OW42463   1.031   3.900   3.733 -0.1508  0.0425 -0.5042
13852SOL    HW142464   1.124   3.885   3.719 -0.2311 -1.5913  0.4226
13852SOL    HW242465   1.024   3.994   3.752  1.4252  0.0419  0.2341
13853SOL     OW42466   5.814   4.580   6.907 -0.2094 -0.4463 -0.1255
13853SOL    HW142467   5.899   4.625   6.899 -0.8294  1.0426  0.9966
13853SOL    HW242468   5.832   4.490   6.882  1.6600 -0.1134 -0.1424
13854SOL     OW42469   1.926   4.895   3.662  0.5670 -0.5598 -0.0059
13854SOL    HW142470   1.887   4.975   3.696 -0.1207 -0.8623 -0.0689
13854SOL    HW242471   2.004   4.925   3.615 -0.5406  0.2725 -1.4148
13855SOL     OW42472   1.380   2.321   7.329 -0.0212  0.4370 -0.2730
13855SOL    HW142473   1.373   2.334   7.424 -1.1076 -0.3205 -0.2329
13855SOL    HW242474   1.419   2.234   7.320  0.6242  0.7442 -0.5366
13856SOL     OW42475   6.561   1.917   7.384 -0.2356  0.6354  0.0152
13856SOL    HW142476   6.611   1.995   7.361  0.5771  0.4367  1.0405
13856SOL    HW242477   6.617   1.844   7.358 -0.9780  0.3711 -0.9113
13857SOL     OW42478   4.549   2.001   7.614  0.7493 -0.3393  0.0367
13857SOL    HW142479   4.587   2.060   7.549 -0.5847  1.9469  1.1855
13857SOL    HW242480   4.574   2.038   7.699  0.4650 -1.8701  0.8351
13858SOL     OW42481   4.214   0.392   7.626  0.6430  0.5109 -0.1149
13858SOL    HW142482   4.134   0.411   7.577  1.4158  2.2406 -0.7904
13858SOL    HW242483   4.281   0.380   7.559  1.2690  0.6603  0.4676
13859SOL     OW42484   5.493   1.493   6.060  0.3082 -0.2566  0.6410
13859SOL    HW142485   5.572   1.506   6.008  0.0374 -1.1258 -0.0181
13859SOL    HW242486   5.524   1.492   6.151  1.0441 -0.4667  0.4000
13860SOL     OW42487   7.477   1.561   6.438 -0.0808  0.0386  0.5028
13860SOL    HW142488   7.382   1.555   6.450  0.1649 -1.8130  2.0117
13860SOL    HW242489   7.495   1.655   6.435 -1.7171  0.4930  2.5977
13861SOL     OW42490   4.421   1.048   1.064  0.1870  0.2151  0.2049
13861SOL    HW142491   4.492   1.023   1.006  0.4317 -0.5168  0.8026
13861SOL    HW242492   4.464   1.095   1.135  0.1463 -0.6394  0.8111
13862SOL     OW42493   6.921   3.187   7.257 -0.3266 -0.1529 -0.0738
13862SOL    HW142494   6.834   3.215   7.286 -0.6251  0.1795 -1.2411
13862SOL    HW242495   6.915   3.186   7.162  0.3447 -2.1043 -0.1404
13863SOL     OW42496   2.841   7.451   0.236 -0.1935  0.8016  0.4296
13863SOL    HW142497   2.912   7.515   0.233 -1.0947  1.8553 -3.4685
13863SOL    HW242498   2.838   7.414   0.148 -2.0689 -2.0428  1.5502
13864SOL     OW42499   3.333   0.958   2.388 -0.1226  0.2372  0.2617
13864SOL    HW142500   3.395   0.912   2.444  0.6626  1.7032  0.6553
13864SOL    HW242501   3.383   1.031   2.352 -0.7018 -0.4081 -2.0728
13865SOL     OW42502   0.219   3.619   4.866 -0.5188 -0.4221 -0.2554
13865SOL    HW142503   0.213   3.607   4.961 -0.9767  0.1075 -0.2123
13865SOL    HW242504   0.251   3.709   4.856 -0.3981 -0.5037 -0.6048
13866SOL     OW42505   5.260   0.771   2.307 -0.2498  0.2651  0.0211
13866SOL    HW142506   5.343   0.790   2.352 -0.0276 -0.2975 -0.1412
13866SOL    HW242507   5.267   0.818   2.224 -0.1397  0.3071  0.0530
13867SOL     OW42508   6.301   5.733   4.231 -0.1076  0.0278 -0.1309
13867SOL    HW142509   6.294   5.814   4.180  0.0216 -0.4677 -0.9559
13867SOL    HW242510   6.267   5.665   4.173  2.2652 -0.9388 -0.5348
13868SOL     OW42511   4.603   7.303   1.799  0.5395  0.1275 -0.4110
13868SOL    HW142512   4.679   7.318   1.743  0.8237  1.1395  0.2068
13868SOL    HW242513   4.530   7.289   1.738  1.2064 -0.8174 -1.0038
13869SOL     OW42514   3.944   6.582   1.913 -0.2588  0.6753  0.1124
13869SOL    HW142515   4.037   6.587   1.890 -0.1751 -0.0063  0.2848
13869SOL    HW242516   3.916   6.674   1.917  0.4201  0.8912  0.1242
13870SOL     OW42517   0.279   4.356   7.014 -0.0420 -0.2147 -0.4901
13870SOL    HW142518   0.354   4.366   7.073 -0.9156  0.0163  0.6262
13870SOL    HW242519   0.251   4.266   7.027 -0.9450  0.1703  0.3503
13871SOL     OW42520   7.636   4.456   4.301  0.3458  0.4847  0.3513
13871SOL    HW142521   7.610   4.441   4.210 -2.1571  0.7961  0.9506
13871SOL    HW242522   7.635   4.369   4.341 -0.8665  0.6081  0.6157
13872SOL     OW42523   0.087   6.504   5.080 -0.3274  0.8162 -0.3757
13872SOL    HW142524  -0.008   6.496   5.069 -0.2633  1.8857 -2.0841
13872SOL    HW242525   0.124   6.455   5.007  0.6377 -2.7244  2.2132
13873SOL     OW42526   1.077   2.380   3.469  0.3646 -0.2094  0.0685
13873SOL    HW142527   1.106   2.304   3.418  1.1547 -0.3984  0.7744
13873SOL    HW242528   0.988   2.357   3.498 -0.0671 -0.1258 -1.1447
13874SOL     OW42529   3.030   4.159   0.213  0.6082  0.7921  0.9034
13874SOL    HW142530   3.076   4.074   0.215 -0.2558  0.2079 -1.3092
13874SOL    HW242531   3.100   4.223   0.226  1.8800 -0.1359 -0.9091
13875SOL     OW42532   4.118   2.489   2.380  0.4266 -0.0591  0.0005
13875SOL    HW142533   4.184   2.516   2.317  0.1205 -1.1908 -0.8334
13875SOL    HW242534   4.037   2.530   2.349  0.4859  0.3101  0.3190
13876SOL     OW42535   3.308   6.821   3.953 -0.0901  0.0954 -0.2857
13876SOL    HW142536   3.376   6.888   3.962  0.2520 -0.0630 -1.5623
13876SOL    HW242537   3.341   6.762   3.886 -1.1008 -0.4773 -0.2984
13877SOL     OW42538   7.730   5.169   0.565  0.4769 -0.1120 -0.3887
13877SOL    HW142539   7.805   5.227   0.578  0.3429 -0.2487  1.1871
13877SOL    HW242540   7.691   5.160   0.653 -0.8297 -0.7816 -1.0079
13878SOL     OW42541   1.519   1.957   7.640 -0.2553 -0.1021  0.9196
13878SOL    HW142542   1.424   1.967   7.649 -0.5092  0.5372 -1.7440
13878SOL    HW242543   1.542   1.890   7.705 -2.8073 -1.6361  0.3928
13879SOL     OW42544   2.725   1.892   2.749 -0.2988  0.5066 -0.8340
13879SOL    HW142545   2.728   1.834   2.673  0.8744  0.4794 -0.7910
13879SOL    HW242546   2.796   1.862   2.805 -1.2782  0.4048  0.3800
13880SOL     OW42547   1.163   6.359   4.006 -0.3237 -0.0053 -0.3925
13880SOL    HW142548   1.228   6.395   3.947  0.2195  0.2534  0.3500
13880SOL    HW242549   1.194   6.382   4.094 -1.4985  0.2689 -0.0253
13881SOL     OW42550   7.012   5.383   7.720  0.0505 -0.6360 -0.2403
13881SOL    HW142551   7.088   5.325   7.728  1.5851  1.2656 -0.2650
13881SOL    HW242552   6.980   5.393   7.810 -0.8686 -2.2608 -0.3508
13882SOL     OW42553   3.160   7.314   1.717 -0.1876  0.4933 -0.2330
13882SOL    HW142554   3.241   7.353   1.749  0.4005 -0.9045  0.0538
13882SOL    HW242555   3.186   7.268   1.636 -0.3983 -0.9680  0.4871
13883SOL     OW42556   6.946   5.834   2.563  0.1120 -0.1506  0.2870
13883SOL    HW142557   7.042   5.829   2.568  0.0218 -1.6082  1.2285
13883SOL    HW242558   6.929   5.867   2.475  1.4901  1.0058  0.4124
13884SOL     OW42559   2.163   3.748   6.801 -0.4209 -0.2726 -0.4009
13884SOL    HW142560   2.127   3.666   6.833 -1.7920  0.0278 -1.1021
13884SOL    HW242561   2.250   3.725   6.769 -1.4132 -1.8358 -2.1721
13885SOL     OW42562   4.315   5.377   5.578 -0.2180  0.1259  0.2388
13885SOL    HW142563   4.311   5.286   5.608  0.8505 -0.9939 -2.6664
13885SOL    HW242564   4.376   5.420   5.638 -0.5757 -1.1276  1.5281
13886SOL     OW42565   0.688   1.241   6.992 -0.1324  0.7586  0.4239
13886SOL    HW142566   0.617   1.287   7.035  0.0476  0.9854  0.4798
13886SOL    HW242567   0.733   1.194   7.062 -1.5445 -1.1658  0.0965
13887SOL     OW42568   1.015   4.825   1.837 -0.8879  0.0732  0.3254
13887SOL    HW142569   1.057   4.889   1.779 -0.4252 -0.8562 -0.3843
13887SOL    HW242570   0.951   4.781   1.781 -0.0390 -1.2296  0.3418
13888SOL     OW42571   3.735   0.742   5.103  0.2061  0.0990  0.0683
13888SOL    HW142572   3.665   0.793   5.143 -0.1266 -0.8435  0.7128
13888SOL    HW242573   3.816   0.784   5.132 -0.0255 -0.6134  1.8122
13889SOL     OW42574   4.660   1.393   2.670  0.2643 -0.0443  0.0072
13889SOL    HW142575   4.686   1.421   2.582  0.8382  0.6188  0.3842
13889SOL    HW242576   4.664   1.472   2.723 -1.3711 -0.1575  0.3580
13890SOL     OW42577   5.828   5.566   1.170  0.1376 -0.1972  0.6537
13890SOL    HW142578   5.901   5.550   1.110 -0.4237  0.0896 -0.1176
13890SOL    HW242579   5.749   5.546   1.119 -0.3381 -0.3373  1.4217
13891SOL     OW42580   0.559   4.638   5.419  0.3313  0.6750  0.3203
13891SOL    HW142581   0.641   4.615   5.463 -0.3870 -0.8164  0.9467
13891SOL    HW242582   0.530   4.558   5.377 -1.3244  0.8671  0.9856
13892SOL     OW42583   6.258   4.592   0.135 -0.2277  0.0061  0.3970
13892SOL    HW142584   6.294   4.557   0.054 -0.1261  2.6481 -0.7853
13892SOL    HW242585   6.324   4.653   0.167 -1.6100  1.3721  0.7499
13893SOL     OW42586   3.754   1.028   3.277 -0.1734  0.9971 -1.0779
13893SOL    HW142587   3.777   1.061   3.364 -0.5065 -0.1929 -0.5183
13893SOL    HW242588   3.751   0.933   3.287  1.4497  0.7039 -2.7936
13894SOL     OW42589   7.254   0.333   7.391 -0.5808  0.0005 -0.1159
13894SOL    HW142590   7.275   0.415   7.435 -0.1615 -0.8975  1.4339
13894SOL    HW242591   7.253   0.355   7.298 -0.7577  1.8086  0.2784
13895SOL     OW42592   6.075   6.154   3.937  0.3495  0.3446  0.1561
13895SOL    HW142593   6.028   6.125   3.858 -0.2370  0.2744  0.5240
13895SOL    HW242594   6.026   6.230   3.967  1.1012  0.9187 -0.0463
13896SOL     OW42595   6.745   5.168   0.203  0.1046  0.2346  0.1205
13896SOL    HW142596   6.757   5.251   0.250 -0.5898  0.2275  0.3319
13896SOL    HW242597   6.670   5.184   0.146  0.6192  0.0733 -0.6089
13897SOL     OW42598   4.626   1.090   1.245 -0.0100  0.5853 -0.1916
13897SOL    HW142599   4.572   1.113   1.321  0.0125  4.4925 -1.1702
13897SOL    HW242600   4.713   1.074   1.282 -0.5799 -0.4043  0.8228
13898SOL     OW42601   6.367   4.045   6.877 -0.2279  0.3748 -0.2179
13898SOL    HW142602   6.276   4.074   6.878 -0.4236 -0.1782 -1.0824
13898SOL    HW242603   6.388   4.035   6.784  0.4512 -0.2925 -0.0010
13899SOL     OW42604   3.056   4.096   2.731 -0.2481 -0.3809  0.1283
13899SOL    HW142605   3.135   4.042   2.734 -0.1421 -0.2558 -0.3185
13899SOL    HW242606   3.085   4.183   2.759  0.1437  0.0878 -1.6367
13900SOL     OW42607   6.506   4.031   0.746 -0.8035  0.0126 -0.2238
13900SOL    HW142608   6.517   4.013   0.839 -0.4780  0.7362 -0.1239
13900SOL    HW242609   6.509   4.126   0.739  0.5621 -0.0692 -1.1425
13901SOL     OW42610   7.746   4.603   1.520  0.1880 -0.1001 -0.3497
13901SOL    HW142611   7.669   4.630   1.570 -2.0044 -2.3158 -2.2295
13901SOL    HW242612   7.798   4.551   1.582 -1.1673 -0.7142  0.3045
13902SOL     OW42613   6.319   3.379   3.550  0.0880  0.3510  0.0558
13902SOL    HW142614   6.377   3.400   3.477 -0.1013  0.8713  0.0511
13902SOL    HW242615   6.377   3.348   3.619  0.2828 -0.0015 -0.2664
13903SOL     OW42616   3.938   2.481   5.797  0.5593 -0.6972 -0.2568
13903SOL    HW142617   3.994   2.520   5.729  2.1013 -3.1420 -0.5245
13903SOL    HW242618   3.996   2.421   5.844 -1.3308 -1.6708  0.9630
13904SOL     OW42619   7.460   7.537   1.662 -0.2008  0.5639  0.1747
13904SOL    HW142620   7.364   7.540   1.665 -0.3258  1.6596 -2.4222
13904SOL    HW242621   7.479   7.486   1.583  1.3619  0.8698  0.3311
13905SOL     OW42622   5.919   1.485   4.153  0.1110  0.4556 -0.2066
13905SOL    HW142623   5.915   1.562   4.096 -1.4109 -0.6208 -1.6497
13905SOL    HW242624   5.993   1.434   4.121 -0.3599  0.1612 -0.8590
13906SOL     OW42625   7.173   4.295   4.183  0.8106 -0.2770 -0.0333
13906SOL    HW142626   7.100   4.246   4.144 -0.3080  0.4986  1.0269
13906SOL    HW242627   7.251   4.251   4.149 -0.1346 -2.2825  0.2147
13907SOL     OW42628   1.414   1.479   1.197  0.3241 -0.3734  0.2146
13907SOL    HW142629   1.486   1.473   1.135  0.8700 -1.5681  0.9352
13907SOL    HW242630   1.443   1.430   1.274 -2.3207 -3.4926 -0.5404
13908SOL     OW42631   5.109   1.422   1.055 -0.3743  0.5251 -0.1499
13908SOL    HW142632   5.141   1.375   1.131 -1.5017 -0.4317 -0.2368
13908SOL    HW242633   5.186   1.434   0.999  0.2615  0.3596  0.6764
13909SOL     OW42634   2.901   4.714   4.230 -0.3770  0.2081 -0.5724
13909SOL    HW142635   2.959   4.703   4.154  1.0039 -0.7317  0.5650
13909SOL    HW242636   2.859   4.799   4.216 -1.3610 -0.5822 -3.1490
13910SOL     OW42637   3.900   3.422   5.917  0.2351 -0.1614  0.8501
13910SOL    HW142638   3.867   3.336   5.889 -0.3603 -0.0504  1.1836
13910SOL    HW242639   3.823   3.467   5.952  0.2434  1.0575 -0.6160
13911SOL     OW42640   5.913   2.851   2.869 -0.2957  0.1546  0.3077
13911SOL    HW142641   5.873   2.937   2.881  0.5982  0.3289  2.3700
13911SOL    HW242642   5.861   2.792   2.924 -0.7255 -0.6112 -0.8663
13912SOL     OW42643   0.542   1.143   6.580 -0.5692  0.3183  0.4989
13912SOL    HW142644   0.587   1.192   6.511  1.2411  2.2173  2.8359
13912SOL    HW242645   0.535   1.054   6.546  0.8944  1.0135 -1.8187
13913SOL     OW42646   3.533   1.663   0.581 -0.0143 -0.0590 -0.6198
13913SOL    HW142647   3.622   1.699   0.578 -0.0054 -0.1206 -1.4215
13913SOL    HW242648   3.476   1.739   0.580  0.0191  0.0650  1.9458
13914SOL     OW42649   5.742   7.076   5.007  0.5406 -0.0236 -0.1529
13914SOL    HW142650   5.660   7.126   5.004  1.6021  1.7565 -1.3376
13914SOL    HW242651   5.715   6.987   5.026 -1.6044  0.6694  0.3260
13915SOL     OW42652   3.800   2.135   2.035  0.0104  0.0187 -0.3553
13915SOL    HW142653   3.845   2.218   2.050  0.1166  0.6586 -3.4453
13915SOL    HW242654   3.858   2.086   1.976 -1.2347 -1.1037 -0.7136
13916SOL     OW42655   0.079   1.989   2.255  0.3730  0.2097 -0.4979
13916SOL    HW142656   0.117   1.952   2.176 -0.5072  0.5448 -1.0839
13916SOL    HW242657   0.105   1.928   2.325  0.1325 -0.7333 -1.2232
13917SOL     OW42658   2.508   2.266   4.134  0.1751 -0.4218  0.4542
13917SOL    HW142659   2.483   2.355   4.108 -1.8660 -1.4461 -1.5065
13917SOL    HW242660   2.487   2.261   4.227  1.0180  1.3282  0.7838
13918SOL     OW42661   1.647   7.076   5.426 -0.1412  0.0568  0.6507
13918SOL    HW142662   1.671   7.081   5.334 -0.0114 -0.1837  0.6691
13918SOL    HW242663   1.689   6.995   5.457 -3.2680 -1.9982 -0.0140
13919SOL     OW42664   6.666   3.853   1.463 -0.4263  0.4022  0.3132
13919SOL    HW142665   6.667   3.759   1.444 -0.1960  0.7098 -1.3209
13919SOL    HW242666   6.610   3.861   1.541 -0.1489 -1.1114  0.6996
13920SOL     OW42667   5.800   5.748   0.900 -0.4355 -0.4320 -0.3429
13920SOL    HW142668   5.739   5.820   0.915 -1.7702 -1.3867 -0.9101
13920SOL    HW242669   5.855   5.778   0.828  0.4085  0.8021  0.7661
13921SOL     OW42670   5.172   5.535   0.688 -0.4213  0.1835  0.6028
13921SOL    HW142671   5.193   5.587   0.766 -0.6466 -0.4462  1.0935
13921SOL    HW242672   5.232   5.460   0.692 -0.0329  0.4451 -0.1481
13922SOL     OW42673   3.795   2.071   0.071 -0.2738 -0.1334 -0.3143
13922SOL    HW142674   3.820   1.995   0.124  0.4407  1.2657  1.4967
13922SOL    HW242675   3.751   2.129   0.133  1.0664  1.8204 -1.0830
13923SOL     OW42676   6.677   0.013   6.256 -0.7000 -0.0175 -0.2164
13923SOL    HW142677   6.733   0.047   6.186  0.9439  2.0020  1.9057
13923SOL    HW242678   6.621   0.087   6.278 -2.0037 -1.0068 -0.1247
13924SOL     OW42679   2.704   6.184   0.188  0.1930  0.0100 -0.3598
13924SOL    HW142680   2.643   6.257   0.197  1.4067  0.9288  0.8085
13924SOL    HW242681   2.662   6.112   0.234 -0.6525  0.1870 -0.8272
13925SOL     OW42682   5.345   6.835   2.224 -0.0712 -0.4624  0.0995
13925SOL    HW142683   5.319   6.850   2.133 -0.7786 -1.3874  0.1276
13925SOL    HW242684   5.263   6.820   2.270  0.3049 -0.3386  0.8233
13926SOL     OW42685   4.868   0.798   5.515 -0.1081  0.0391 -1.1737
13926SOL    HW142686   4.947   0.751   5.490 -0.4181 -0.7075 -0.7993
13926SOL    HW242687   4.812   0.731   5.556  0.4110  1.1789  1.6398
13927SOL     OW42688   3.275   4.799   6.656 -0.1225  0.1950  0.2936
13927SOL    HW142689   3.345   4.737   6.633  1.6800  1.7581  1.2687
13927SOL    HW242690   3.290   4.874   6.597 -1.3090  0.3655  0.1829
13928SOL     OW42691   4.425   2.403   1.057  0.3588 -0.3684 -0.4302
13928SOL    HW142692   4.362   2.421   0.987  1.0250  3.1376 -0.3317
13928SOL    HW242693   4.510   2.416   1.016  0.8117  0.2001  0.6468
13929SOL     OW42694   1.185   1.159   2.555  0.1886 -0.2392  0.5088
13929SOL    HW142695   1.220   1.248   2.557 -1.0023  0.3346 -1.6047
13929SOL    HW242696   1.255   1.107   2.515 -0.4715  0.4883 -1.6946
13930SOL     OW42697   6.896   2.651   3.864  0.2204  0.1270 -0.0565
13930SOL    HW142698   6.904   2.577   3.804  1.4838  1.1127 -1.1738
13930SOL    HW242699   6.900   2.612   3.951  0.1726 -1.1722 -0.6116
13931SOL     OW42700   4.930   1.068   1.094 -0.0206  0.2070  0.0276
13931SOL    HW142701   4.846   1.026   1.075  1.0567 -1.4407 -1.2798
13931SOL    HW242702   4.927   1.150   1.045 -0.7300  0.0089 -0.2719
13932SOL     OW42703   4.394   7.187   3.879  0.3262 -0.2739 -0.6776
13932SOL    HW142704   4.342   7.259   3.914 -0.3852 -0.7406 -0.7533
13932SOL    HW242705   4.419   7.216   3.791  2.2523  0.9692  0.2238
13933SOL     OW42706   0.469   6.724   5.730 -0.0361  0.0752  0.1459
13933SOL    HW142707   0.504   6.715   5.818 -1.3902  1.1579  0.8390
13933SOL    HW242708   0.511   6.803   5.696  0.0303  0.0001  0.0536
13934SOL     OW42709   6.887   6.423   5.649  0.2780  0.3736  0.4640
13934SOL    HW142710   6.947   6.494   5.626  1.0413 -0.0730  1.0213
13934SOL    HW242711   6.932   6.376   5.719  0.9648 -2.2134 -1.5744
13935SOL     OW42712   2.174   6.969   6.949  0.2532 -0.2707  0.3587
13935SOL    HW142713   2.132   6.897   6.995 -1.4996  0.4687 -0.0129
13935SOL    HW242714   2.102   7.021   6.914  1.4273  1.9890  1.0693
13936SOL     OW42715   6.422   6.083   6.349  0.3317  0.2801  0.7206
13936SOL    HW142716   6.500   6.139   6.350  0.3781  0.2927 -1.0799
13936SOL    HW242717   6.420   6.043   6.436  2.3152  0.3213  0.8251
13937SOL     OW42718   5.740   5.824   7.214 -0.1122 -0.0240 -0.4012
13937SOL    HW142719   5.730   5.823   7.119  0.1971  0.0798 -0.4360
13937SOL    HW242720   5.650   5.826   7.248 -0.2754 -1.6191 -0.6593
13938SOL     OW42721   7.522   6.194   4.872 -0.6749 -0.2672  0.3223
13938SOL    HW142722   7.533   6.288   4.884 -0.8925 -0.4301  2.2001
13938SOL    HW242723   7.609   6.162   4.849 -0.9170  0.5535 -1.9233
13939SOL     OW42724   1.764   3.708   0.265  0.0936 -0.4694  0.0346
13939SOL    HW142725   1.802   3.782   0.219 -1.6525  0.5385  0.1374
13939SOL    HW242726   1.800   3.631   0.221 -0.5142  0.4531 -2.2116
13940SOL     OW42727   6.569   5.736   3.928 -0.3769  0.3812 -0.5039
13940SOL    HW142728   6.630   5.790   3.878  1.5882 -0.0403  1.2577
13940SOL    HW242729   6.583   5.763   4.019 -2.3754 -0.2242  0.0321
13941SOL     OW42730   6.600   0.045   4.905  0.2394  0.5686 -0.0607
13941SOL    HW142731   6.506   0.049   4.923  0.8271  0.5116  3.9529
13941SOL    HW242732   6.637   0.117   4.956  2.4558  0.2683 -1.1439
13942SOL     OW42733   4.149   4.670   2.201  0.3118 -0.2912 -0.0616
13942SOL    HW142734   4.075   4.612   2.220  1.0081 -0.8948  0.9539
13942SOL    HW242735   4.187   4.635   2.120 -0.4011 -0.0811 -0.4926
13943SOL     OW42736   3.214   4.628   2.929  1.2402 -0.5784  0.0133
13943SOL    HW142737   3.258   4.576   2.861  0.0429 -2.0597  0.3146
13943SOL    HW242738   3.195   4.711   2.887  0.6922 -1.3925 -1.4345
13944SOL     OW42739   0.541   0.398   6.416  0.0214 -0.3062 -0.3688
13944SOL    HW142740   0.485   0.320   6.421  2.3420 -2.0568  0.2137
13944SOL    HW242741   0.589   0.387   6.334  0.3882  0.5095 -0.2698
13945SOL     OW42742   0.372   5.684   2.616  0.1399  0.2236  0.2566
13945SOL    HW142743   0.307   5.630   2.571 -0.5095 -0.7629  2.2667
13945SOL    HW242744   0.329   5.768   2.628  0.2351  0.4222 -0.7348
13946SOL     OW42745   6.683   2.705   0.208 -0.6596 -0.6847 -0.2376
13946SOL    HW142746   6.702   2.687   0.300 -0.4563 -0.0692 -0.1569
13946SOL    HW242747   6.642   2.792   0.208 -0.2512 -0.4875 -0.7742
13947SOL     OW42748   5.375   7.246   4.076 -0.1509  0.3846  0.2458
13947SOL    HW142749   5.323   7.193   4.016 -1.2923  1.2558  0.4521
13947SOL    HW242750   5.316   7.267   4.148  0.5159  1.2933  0.5523
13948SOL     OW42751   5.182   0.774   0.588 -1.0463  0.1320  0.2280
13948SOL    HW142752   5.248   0.823   0.539 -1.5637 -0.7836 -1.4686
13948SOL    HW242753   5.100   0.792   0.542 -1.6204 -0.4927  0.9814
13949SOL     OW42754   7.246   6.273   0.232  0.2027 -0.2469 -0.4708
13949SOL    HW142755   7.168   6.278   0.287 -0.8278  3.4313 -1.9468
13949SOL    HW242756   7.212   6.261   0.143  1.5900 -1.7081 -0.8670
13950SOL     OW42757   4.578   0.776   6.107  0.4175  0.4848 -1.0632
13950SOL    HW142758   4.484   0.786   6.092 -0.2038 -1.1299  1.2159
13950SOL    HW242759   4.609   0.863   6.130 -0.9429  0.7050  0.0508
13951SOL     OW42760   0.294   2.924   7.074  0.2204  0.5840 -0.1527
13951SOL    HW142761   0.250   3.005   7.047  0.6914  0.3297 -1.8392
13951SOL    HW242762   0.282   2.920   7.169 -1.8939  1.3855 -0.3356
13952SOL     OW42763   7.516   1.454   0.757  0.3697 -0.0712  0.2731
13952SOL    HW142764   7.532   1.438   0.850 -2.4883  0.1563  0.9001
13952SOL    HW242765   7.420   1.451   0.748  0.4714  1.4288 -2.3856
13953SOL     OW42766   5.946   6.474   7.021 -0.4371  0.4337 -0.0650
13953SOL    HW142767   5.921   6.520   7.101  2.4154  1.3094  0.4459
13953SOL    HW242768   5.902   6.522   6.951 -0.5699  1.5725  0.7716
13954SOL     OW42769   4.070   0.085   1.438  0.3153  0.8006  0.7983
13954SOL    HW142770   4.027   0.171   1.446 -0.5707  0.4948 -0.3681
13954SOL    HW242771   4.094   0.078   1.345  1.4997  0.2886  1.1214
13955SOL     OW42772   5.054   7.099   4.888 -0.8770  0.1890  0.5172
13955SOL    HW142773   5.047   7.161   4.960  1.0706 -0.4175  1.2875
13955SOL    HW242774   5.129   7.044   4.910 -2.1631 -2.0878 -0.4118
13956SOL     OW42775   1.618   1.392   5.763  0.5453  0.3846  0.3675
13956SOL    HW142776   1.581   1.456   5.702  0.3349  1.8115  1.9281
13956SOL    HW242777   1.541   1.353   5.806  0.7248  0.6679  0.9607
13957SOL     OW42778   0.654   5.216   5.248  0.5514  0.0051  0.5808
13957SOL    HW142779   0.605   5.178   5.176  1.0355 -0.2972  0.4082
13957SOL    HW242780   0.723   5.267   5.206 -0.0794  1.0927  0.8050
13958SOL     OW42781   3.608   4.241   0.308 -0.6249 -0.4423  0.5028
13958SOL    HW142782   3.590   4.290   0.389  1.3068  1.3190 -0.0242
13958SOL    HW242783   3.544   4.275   0.245 -2.1335 -1.8164  1.2332
13959SOL     OW42784   2.066   1.952   3.655  0.4245  0.5220  0.2095
13959SOL    HW142785   2.081   2.021   3.591 -0.7035  0.5440 -0.0469
13959SOL    HW242786   2.016   1.995   3.725  1.4968  0.4609  1.0466
13960SOL     OW42787   0.722   2.496   4.222 -0.3561 -0.3854 -0.1484
13960SOL    HW142788   0.640   2.494   4.272  0.6430 -1.1476  1.5527
13960SOL    HW242789   0.776   2.561   4.267  0.5571 -1.0592 -0.2387
13961SOL     OW42790   4.657   6.124   4.255  0.2227  0.1419 -0.4610
13961SOL    HW142791   4.639   6.218   4.266 -1.2346 -0.2065  0.3047
13961SOL    HW242792   4.571   6.083   4.252  0.7927 -1.0429 -2.3127
13962SOL     OW42793   5.424   7.689   5.496 -0.4371  0.0745  0.1245
13962SOL    HW142794   5.345   7.682   5.549  0.5961  1.1658  1.8870
13962SOL    HW242795   5.402   7.752   5.428 -0.9917  0.6132  0.7891
13963SOL     OW42796   0.753   2.146   4.110 -0.4146  0.0835  0.0216
13963SOL    HW142797   0.717   2.061   4.137  0.0796 -0.3885 -0.7592
13963SOL    HW242798   0.682   2.187   4.062 -0.1745 -0.5292 -0.8784
13964SOL     OW42799   5.569   0.249   2.064 -0.6585  0.5715  0.2987
13964SOL    HW142800   5.514   0.217   1.992 -0.6039  0.8603  0.1279
13964SOL    HW242801   5.510   0.249   2.140  0.1699 -3.2241  1.1616
13965SOL     OW42802   6.004   5.845   6.276 -0.0368  0.1689  0.4545
13965SOL    HW142803   5.916   5.836   6.313  0.1207  1.6373  1.2196
13965SOL    HW242804   5.989   5.851   6.181 -0.7156 -0.0577  0.5398
13966SOL     OW42805   6.741   1.958   3.166  0.8486  0.0784 -0.1403
13966SOL    HW142806   6.783   2.024   3.222 -0.7341  2.9633 -2.1080
13966SOL    HW242807   6.808   1.935   3.102  1.2525  0.1270  0.2566
13967SOL     OW42808   0.883   3.737   7.728 -0.2924 -0.6480 -0.4745
13967SOL    HW142809   0.815   3.799   7.755  0.0998  0.0464 -1.0577
13967SOL    HW242810   0.854   3.707   7.641 -0.1346 -0.7705 -0.4848
13968SOL     OW42811   4.967   6.718   4.105 -0.5236  0.5601 -0.3437
13968SOL    HW142812   5.011   6.803   4.104  0.3071  0.1788 -3.3186
13968SOL    HW242813   5.037   6.655   4.122 -1.3109  0.3759  3.1623
13969SOL     OW42814   6.617   0.882   4.556  0.5457  0.6866 -0.0720
13969SOL    HW142815   6.710   0.862   4.567  0.6503 -0.6558 -2.6669
13969SOL    HW242816   6.573   0.797   4.559 -0.4539  1.1781 -0.1527
13970SOL     OW42817   1.526   4.187   3.832 -0.5312  0.0902 -0.2768
13970SOL    HW142818   1.553   4.144   3.913 -0.2481 -0.6204 -0.7386
13970SOL    HW242819   1.540   4.280   3.848 -0.4164 -0.0492  0.4662
13971SOL     OW42820   6.647   2.775   6.581  0.3512 -0.2164 -0.6833
13971SOL    HW142821   6.637   2.871   6.585  0.5478 -0.2033 -0.5222
13971SOL    HW242822   6.730   2.761   6.536 -0.4517 -0.3330 -2.1738
13972SOL     OW42823   7.708   1.612   5.408  0.1903 -0.2353 -0.9454
13972SOL    HW142824   7.615   1.618   5.433  0.7773 -0.8520  1.7658
13972SOL    HW242825   7.730   1.700   5.379 -0.6739  0.6179  0.8053
13973SOL     OW42826   4.508   1.066   2.910  0.4574  0.1369  0.4460
13973SOL    HW142827   4.600   1.043   2.897  0.6326  1.1304 -0.1431
13973SOL    HW242828   4.509   1.161   2.928 -0.3840  0.0261  1.1781
13974SOL     OW42829   3.520   5.491   1.124 -0.1939 -0.0444 -0.5266
13974SOL    HW142830   3.616   5.488   1.120 -0.2000 -1.4678 -0.1589
13974SOL    HW242831   3.501   5.531   1.209  0.0377  1.4198 -1.1258
13975SOL     OW42832   0.257   5.811   0.103 -0.2854  0.0006 -0.0046
13975SOL    HW142833   0.342   5.843   0.134 -0.6326 -1.6286  3.0269
13975SOL    HW242834   0.196   5.836   0.172 -1.7964 -1.0611 -0.9216
13976SOL     OW42835   1.321   1.211   1.830 -0.3856 -0.1421  0.1637
13976SOL    HW142836   1.406   1.211   1.873 -0.5734  2.2043  0.6696
13976SOL    HW242837   1.315   1.297   1.787 -2.0628 -0.6645 -0.7664
13977SOL     OW42838   0.315   3.494   7.488 -0.2177  0.2006  0.4812
13977SOL    HW142839   0.298   3.586   7.510 -2.0323  0.4111 -1.4922
13977SOL    HW242840   0.386   3.498   7.424 -3.0690  0.7235 -2.8902
13978SOL     OW42841   1.529   5.560   4.647 -0.2501  0.2576  0.0136
13978SOL    HW142842   1.466   5.583   4.715 -0.3120  1.4148 -0.4268
13978SOL    HW242843   1.514   5.466   4.632 -0.2005 -0.0434  1.6096
13979SOL     OW42844   4.928   0.651   0.993  0.5939  0.5431  0.2115
13979SOL    HW142845   4.973   0.693   1.066  0.5700 -0.1402  0.6341
13979SOL    HW242846   4.985   0.664   0.918  1.6790 -0.5942  0.8065
13980SOL     OW42847   0.543   3.654   7.108  0.1597  0.1394 -0.0558
13980SOL    HW142848   0.483   3.694   7.046  1.6739  0.2065 -1.5657
13980SOL    HW242849   0.620   3.712   7.108  0.7649 -0.6277  0.7941
13981SOL     OW42850   2.422   0.581   2.956 -0.3397 -0.3938 -0.5339
13981SOL    HW142851   2.488   0.643   2.923  2.1110 -2.5349  0.0170
13981SOL    HW242852   2.430   0.505   2.898 -0.4355 -1.7474  1.1616
13982SOL     OW42853   5.674   1.590   0.178  0.2067  0.1627 -0.1570
13982SOL    HW142854   5.766   1.592   0.205 -0.2707  1.3411  1.5353
13982SOL    HW242855   5.664   1.665   0.120  0.3862 -0.2089 -0.6796
13983SOL     OW42856   6.939   1.562   2.956  0.5998 -0.5579  0.1304
13983SOL    HW142857   6.953   1.487   2.898 -0.4820 -1.1585  0.6148
13983SOL    HW242858   6.870   1.534   3.016  1.2604  0.2721  1.3226
13984SOL     OW42859   4.059   4.542   5.255  0.2266  0.4433 -0.1096
13984SOL    HW142860   4.072   4.452   5.284  2.0851 -0.6725 -3.7793
13984SOL    HW242861   3.964   4.552   5.250 -0.0211 -1.2305  0.5629
13985SOL     OW42862   2.541   1.126   0.304  0.5271  0.3610  0.1974
13985SOL    HW142863   2.592   1.174   0.369  0.4142  0.2138  0.3966
13985SOL    HW242864   2.558   1.034   0.324 -0.5781  0.2949  0.8839
13986SOL     OW42865   6.973   7.692   6.747  0.1785  0.4083 -0.1793
13986SOL    HW142866   6.963   7.710   6.840  1.6284  0.1892  0.0516
13986SOL    HW242867   6.884   7.679   6.715 -0.6486  3.5624  0.5049
13987SOL     OW42868   0.522   0.837   6.559  0.1019 -0.2760  0.2373
13987SOL    HW142869   0.512   0.817   6.652  1.2337 -2.6331 -0.0798
13987SOL    HW242870   0.612   0.811   6.539 -0.3824 -0.6161 -1.7030
13988SOL     OW42871   0.311   2.722   6.370  0.2939 -0.1723 -0.3196
13988SOL    HW142872   0.346   2.804   6.405 -2.7395  1.4680 -0.8144
13988SOL    HW242873   0.321   2.731   6.275  2.9792 -1.9541 -0.3101
13989SOL     OW42874   5.418   2.302   3.036  0.3088  0.0693 -0.1448
13989SOL    HW142875   5.352   2.371   3.026  0.4324  0.6494  2.3752
13989SOL    HW242876   5.368   2.225   3.061  0.5328  0.5992  2.1251
13990SOL     OW42877   1.870   5.809   5.143 -0.7062  0.1180  0.5497
13990SOL    HW142878   1.954   5.782   5.181 -2.0026 -1.2843  2.6232
13990SOL    HW242879   1.834   5.871   5.207 -1.1196  0.9925 -0.4983
13991SOL     OW42880   5.612   4.616   3.790  0.2191  0.2622  0.5170
13991SOL    HW142881   5.625   4.703   3.752  0.7203  0.4467  1.0867
13991SOL    HW242882   5.640   4.625   3.881 -1.3406 -0.0640  1.0593
13992SOL     OW42883   2.191   5.474   2.701  0.4619 -0.4851 -0.0783
13992SOL    HW142884   2.129   5.471   2.773  0.7932  0.2359  0.2495
13992SOL    HW242885   2.246   5.396   2.712  1.7675  0.5998  1.6098
13993SOL     OW42886   5.465   4.893   5.618 -0.4435  0.2096  0.5315
13993SOL    HW142887   5.524   4.909   5.692  0.2893 -1.1329  0.2569
13993SOL    HW242888   5.452   4.798   5.617 -2.2412  0.4126  0.2868
13994SOL     OW42889   3.728   0.204   3.421  0.1295  0.1158  0.2237
13994SOL    HW142890   3.810   0.252   3.433 -0.6198  1.5177  0.0054
13994SOL    HW242891   3.753   0.127   3.370  1.2984  0.5910  0.0380
13995SOL     OW42892   6.388   0.246   3.790  0.2286  0.5431 -0.1026
13995SOL    HW142893   6.433   0.169   3.755 -0.1307 -0.1206  0.8485
13995SOL    HW242894   6.414   0.318   3.733  2.3774  0.1583  0.3204
13996SOL     OW42895   7.310   0.273   4.035  0.2879 -0.3079 -0.3602
13996SOL    HW142896   7.240   0.330   4.066 -0.5243 -0.6531 -1.4993
13996SOL    HW242897   7.331   0.218   4.111 -1.2153 -0.7067 -0.1981
13997SOL     OW42898   4.324   4.624   0.557  0.4824 -0.3922  0.4431
13997SOL    HW142899   4.267   4.567   0.609  0.3853 -0.2202  0.5270
13997SOL    HW242900   4.281   4.629   0.472  1.9048 -2.6711 -0.4850
13998SOL     OW42901   1.466   0.651   7.154  0.2555 -0.0916 -0.3831
13998SOL    HW142902   1.541   0.634   7.097 -1.0425 -0.6602 -1.9986
13998SOL    HW242903   1.408   0.704   7.100 -0.1129  1.1508  1.1787
13999SOL     OW42904   3.291   6.654   5.305  0.2512 -0.0627 -0.1955
13999SOL    HW142905   3.332   6.667   5.390 -0.7096 -1.7871  0.5904
13999SOL    HW242906   3.231   6.729   5.296 -0.3767 -0.3616  1.1397
14000SOL     OW42907   3.654   4.639   0.791  0.4836  0.0071  0.2265
14000SOL    HW142908   3.691   4.668   0.875  1.9829  0.0752 -0.4217
14000SOL    HW242909   3.726   4.592   0.749 -0.6890 -1.2456 -0.4367
14001SOL     OW42910   1.586   4.527   5.190  0.0641 -0.4011 -0.3843
14001SOL    HW142911   1.599   4.619   5.214  1.0740 -0.5430 -0.3667
14001SOL    HW242912   1.632   4.517   5.107 -1.1811 -0.5724 -1.0835
14002SOL     OW42913   4.539   7.287   7.067 -0.2501  0.0632 -0.0232
14002SOL    HW142914   4.616   7.260   7.017 -0.5096 -1.1210  0.1859
14002SOL    HW242915   4.526   7.379   7.045  2.2684  0.8181  1.2763
14003SOL     OW42916   6.486   3.088   5.619  0.0609  0.5419  0.2916
14003SOL    HW142917   6.480   3.181   5.595 -2.3530  0.4370  0.1846
14003SOL    HW242918   6.574   3.077   5.655  0.3313  2.9111  0.4876
14004SOL     OW42919   0.765   1.203   4.829 -0.5748  0.4964 -0.7331
14004SOL    HW142920   0.812   1.165   4.904 -0.9805  1.9419  0.3024
14004SOL    HW242921   0.678   1.162   4.834 -0.3851  0.0767 -0.8289
14005SOL     OW42922   0.182   0.724   2.484  0.3358 -0.4038  0.1155
14005SOL    HW142923   0.202   0.632   2.502 -0.6105 -0.6769 -0.1266
14005SOL    HW242924   0.246   0.774   2.535  2.0851 -1.1928 -1.2024
14006SOL     OW42925   4.409   0.461   3.754 -0.2695 -0.1709  0.2957
14006SOL    HW142926   4.358   0.453   3.834 -0.4183  0.1318  0.2311
14006SOL    HW242927   4.359   0.521   3.699 -0.4063 -0.7363 -0.2115
14007SOL     OW42928   5.403   0.029   0.816 -0.2782 -0.0557  0.6537
14007SOL    HW142929   5.479  -0.003   0.865  0.5491  1.3725  0.3567
14007SOL    HW242930   5.421   0.122   0.801 -2.4992  0.5594  1.3599
14008SOL     OW42931   7.362   2.870   1.013  0.1653 -0.0030  0.1683
14008SOL    HW142932   7.395   2.790   1.054  2.2494  0.5378 -0.2997
14008SOL    HW242933   7.437   2.903   0.964 -0.7661  2.0289  0.0365
14009SOL     OW42934   1.178   0.883   3.501  0.7309  0.5624  0.1513
14009SOL    HW142935   1.115   0.946   3.538 -0.2988  1.1263 -2.3472
14009SOL    HW242936   1.125   0.826   3.445  2.2151  0.0298 -0.7705
14010SOL     OW42937   7.014   1.688   3.613 -0.7263 -0.1272 -0.3533
14010SOL    HW142938   6.933   1.720   3.573 -1.1578 -0.0078  0.6058
14010SOL    HW242939   7.071   1.766   3.615 -1.5277  0.4466  1.3426
14011SOL     OW42940   5.258   2.111   5.478  0.5595  0.2161 -0.3446
14011SOL    HW142941   5.202   2.173   5.524  0.1816  1.5129 -2.4250
14011SOL    HW242942   5.346   2.150   5.484  0.4679  0.5212 -0.8947
14012SOL     OW42943   0.371   5.088   4.427  0.2343  0.4450  0.7531
14012SOL    HW142944   0.374   5.180   4.455 -1.8518  0.4359  1.1323
14012SOL    HW242945   0.463   5.062   4.421  0.8520  2.3480  1.3256
14013SOL     OW42946   6.978   2.269   6.531 -0.1463  0.3613 -0.0819
14013SOL    HW142947   7.006   2.259   6.440 -1.3763 -0.9968 -0.3583
14013SOL    HW242948   6.904   2.329   6.526  1.9202  3.1575  0.5221
14014SOL     OW42949   0.413   4.543   3.140 -0.0436 -0.1483 -0.3726
14014SOL    HW142950   0.379   4.621   3.097  0.3687 -0.3964 -1.1727
14014SOL    HW242951   0.382   4.550   3.231 -1.3918  0.1199 -0.8255
14015SOL     OW42952   3.080   0.102   6.311 -0.5048  0.3633  0.1379
14015SOL    HW142953   3.163   0.055   6.306 -0.7550  0.0243 -1.0435
14015SOL    HW242954   3.024   0.059   6.246 -1.1646  1.4482 -0.0354
14016SOL     OW42955   2.694   3.313   7.089 -0.1170 -0.4800 -0.4470
14016SOL    HW142956   2.599   3.317   7.082 -0.2776 -1.6133  0.6049
14016SOL    HW242957   2.717   3.382   7.151 -0.1445  0.3811 -1.3762
14017SOL     OW42958   2.679   4.164   7.387  0.1883  0.2858 -0.0478
14017SOL    HW142959   2.764   4.132   7.417  0.4049  0.2199 -0.7228
14017SOL    HW242960   2.694   4.257   7.367 -0.3047  0.7017  1.3844
14018SOL     OW42961   2.096   2.405   6.664 -0.6085  0.0125 -0.0545
14018SOL    HW142962   2.011   2.367   6.641 -0.4809  0.8799 -2.1761
14018SOL    HW242963   2.153   2.329   6.674 -1.0685 -0.4986 -1.1249
14019SOL     OW42964   1.720   7.447   0.189  0.0201  0.1170  0.8184
14019SOL    HW142965   1.751   7.474   0.103  1.2313 -0.8071  0.9443
14019SOL    HW242966   1.627   7.472   0.190  0.0473  0.3446 -0.6558
14020SOL     OW42967   2.156   5.246   1.205  0.3756  0.2216 -0.8744
14020SOL    HW142968   2.157   5.163   1.156  1.2491  0.1978 -0.8311
14020SOL    HW242969   2.184   5.222   1.293  3.3018  0.9265 -1.5120
14021SOL     OW42970   1.571   5.631   5.872  0.0561 -0.2624  0.3523
14021SOL    HW142971   1.559   5.661   5.781  2.1678  1.0358  0.4484
14021SOL    HW242972   1.569   5.536   5.865 -1.6730 -0.2012 -0.7484
14022SOL     OW42973   0.695   7.408   1.812 -0.1139  0.0885 -0.0690
14022SOL    HW142974   0.732   7.353   1.882  0.9669  0.6008 -0.2049
14022SOL    HW242975   0.706   7.497   1.845 -1.5043  0.2541 -0.0137
14023SOL     OW42976   0.137   0.612   1.392  0.2698  0.4820  0.0815
14023SOL    HW142977   0.086   0.573   1.463  0.6164  0.2806  0.2222
14023SOL    HW242978   0.133   0.549   1.321 -2.6041  1.9600 -1.2311
14024SOL     OW42979   1.396   5.495   1.631 -0.8792  0.1241 -0.9354
14024SOL    HW142980   1.487   5.489   1.601 -0.6555 -0.7880 -0.1302
14024SOL    HW242981   1.402   5.493   1.726 -1.7633 -0.1647 -0.8773
14025SOL     OW42982   1.192   4.720   5.026  0.2776  0.4924  0.0089
14025SOL    HW142983   1.155   4.632   5.034  0.3020  0.4455 -0.3562
14025SOL    HW242984   1.126   4.769   4.977 -0.3737  1.0708  1.4364
14026SOL     OW42985   6.597   4.644   0.578  0.3233  0.0086  0.3946
14026SOL    HW142986   6.515   4.680   0.543  1.5414  0.4122 -2.2923
14026SOL    HW242987   6.617   4.700   0.653 -0.1727  2.0736 -0.9365
14027SOL     OW42988   3.024   1.511   5.048 -0.0573 -0.6126  0.0807
14027SOL    HW142989   2.975   1.474   4.975  1.1513 -2.5538  0.1749
14027SOL    HW242990   2.960   1.519   5.119 -0.6262 -1.4192 -0.3339
14028SOL     OW42991   4.374   1.204   6.419 -0.4126 -0.1555  0.4413
14028SOL    HW142992   4.438   1.230   6.353 -0.7431 -1.9897 -0.6671
14028SOL    HW242993   4.426   1.192   6.499  0.1889  0.8886  0.2230
14029SOL     OW42994   0.624   2.587   0.770 -0.4746 -0.2306 -0.5121
14029SOL    HW142995   0.535   2.623   0.775 -0.5812 -0.5605  2.9866
14029SOL    HW242996   0.611   2.493   0.763 -0.4353 -0.2657 -0.1578
14030SOL     OW42997   3.682   6.767   6.136  0.0288  0.1604 -0.0577
14030SOL    HW142998   3.684   6.703   6.065  0.4258  1.6126 -1.3992
14030SOL    HW242999   3.711   6.849   6.096 -2.7502  1.7787  0.9883
14031SOL     OW43000   3.441   3.128   3.922 -0.2073  0.1065 -0.4628
14031SOL    HW143001   3.506   3.146   3.990 -2.3168  2.9253  1.0019
14031SOL    HW243002   3.373   3.079   3.966  0.1082 -1.4113 -1.5842
14032SOL     OW43003   1.664   4.767   5.264 -0.6600 -0.0792 -0.0568
14032SOL    HW143004   1.609   4.845   5.259 -0.2545  0.3983  2.0527
14032SOL    HW243005   1.746   4.798   5.302  0.1086 -1.2559 -0.6883
14033SOL     OW43006   2.748   1.442   1.760  0.1525 -0.4007 -0.4827
14033SOL    HW143007   2.681   1.510   1.769 -0.1382 -0.4662 -1.8879
14033SOL    HW243008   2.700   1.366   1.725  0.9990 -0.3392 -1.8275
14034SOL     OW43009   2.907   5.827   1.845  0.5027 -0.3259  0.2797
14034SOL    HW143010   2.889   5.779   1.765 -0.6628 -1.2467  1.0663
14034SOL    HW243011   2.855   5.907   1.838 -1.4989 -1.4969  1.1215
14035SOL     OW43012   4.349   3.033   6.206 -0.0426 -0.2580  0.1000
14035SOL    HW143013   4.405   3.090   6.153 -0.1159  0.5648  0.8846
14035SOL    HW243014   4.410   2.974   6.251  0.1794  0.3473  0.6116
14036SOL     OW43015   6.200   7.501   3.166 -0.2874 -0.4420  0.0021
14036SOL    HW143016   6.223   7.579   3.217  1.5727  0.5992 -2.2422
14036SOL    HW243017   6.280   7.448   3.164 -0.9286 -1.4291 -0.1726
14037SOL     OW43018   6.312   5.432   0.535  0.4942 -0.0811 -0.1080
14037SOL    HW143019   6.322   5.348   0.490 -0.1343 -0.7030  0.8672
14037SOL    HW243020   6.270   5.410   0.618 -0.4483  1.2933 -0.1814
14038SOL     OW43021   4.394   2.191   4.489  0.4306  0.2963 -0.5962
14038SOL    HW143022   4.484   2.179   4.461  0.5029  0.4047 -0.4150
14038SOL    HW243023   4.395   2.273   4.538  0.6867 -0.7347  1.2447
14039SOL     OW43024   4.598   4.832   0.270 -0.1640  0.7723 -0.3075
14039SOL    HW143025   4.608   4.868   0.182 -1.7096  1.7236 -0.1294
14039SOL    HW243026   4.503   4.823   0.282  0.0678 -1.9279  0.2546
14040SOL     OW43027   2.395   3.573   3.273 -0.3220 -0.0243  0.2672
14040SOL    HW143028   2.479   3.542   3.239  0.3271 -0.1328  1.8848
14040SOL    HW243029   2.333   3.504   3.248  0.0584  0.0247 -0.8902
14041SOL     OW43030   0.408   4.718   1.156 -0.8728 -0.1426 -0.5075
14041SOL    HW143031   0.477   4.657   1.132 -1.3356 -1.5016  1.4410
14041SOL    HW243032   0.338   4.701   1.092 -0.0507  0.1655 -1.5215
14042SOL     OW43033   7.240   3.243   0.924 -0.2091  0.2319  0.3067
14042SOL    HW143034   7.192   3.300   0.984 -1.1874 -1.6673  1.4207
14042SOL    HW243035   7.328   3.238   0.961 -0.6196 -0.3825  1.2404
14043SOL     OW43036   0.449   4.591   2.511 -0.8153  0.2823 -0.1769
14043SOL    HW143037   0.403   4.549   2.583  0.1645 -1.6854 -0.6210
14043SOL    HW243038   0.397   4.570   2.433 -0.3461 -0.0763 -0.3980
14044SOL     OW43039   6.093   0.647   4.060 -0.2868  0.2036 -0.8214
14044SOL    HW143040   6.041   0.684   4.131 -1.0228 -0.6524 -0.9025
14044SOL    HW243041   6.183   0.671   4.082 -0.5731  0.5326  0.0385
14045SOL     OW43042   1.421   3.332   4.846 -0.3659 -0.1433 -0.3603
14045SOL    HW143043   1.363   3.359   4.918 -0.9384 -2.9485  0.3690
14045SOL    HW243044   1.387   3.378   4.769 -1.9608  0.2409  0.5249
14046SOL     OW43045   2.570   2.461   0.013  0.9633  0.0390 -0.5157
14046SOL    HW143046   2.534   2.423   0.093  2.5703 -1.0922 -0.2834
14046SOL    HW243047   2.568   2.555   0.028 -1.4045  0.0275 -0.3467
14047SOL     OW43048   5.736   6.503   1.328  1.3353  0.0553 -0.2022
14047SOL    HW143049   5.831   6.506   1.341  1.5198  0.1382 -1.4058
14047SOL    HW243050   5.705   6.589   1.354  1.2431 -0.7142  2.4570
14048SOL     OW43051   3.855   0.855   4.239 -0.3204  0.7300  0.4568
14048SOL    HW143052   3.841   0.760   4.244  1.0610  0.5355  1.0622
14048SOL    HW243053   3.767   0.892   4.249 -0.8128 -0.4753  0.8350
14049SOL     OW43054   5.977   4.237   0.462  0.4185  0.4394  0.8954
14049SOL    HW143055   6.053   4.203   0.511 -0.2051 -2.4672  0.0609
14049SOL    HW243056   6.015   4.276   0.384  1.1041 -0.8275  0.5705
14050SOL     OW43057   7.004   4.418   6.731  0.0436 -0.1120 -0.4807
14050SOL    HW143058   7.043   4.374   6.655 -0.8013  0.2145 -1.1272
14050SOL    HW243059   7.076   4.470   6.768  1.2920 -2.5939  0.8054
14051SOL     OW43060   2.642   4.516   1.230 -0.3285  0.1126  0.2651
14051SOL    HW143061   2.595   4.599   1.218  0.5911  0.6613  0.3764
14051SOL    HW243062   2.732   4.542   1.251 -0.5668 -0.8538  2.8242
14052SOL     OW43063   0.313   1.065   1.351 -0.3591 -0.2277 -0.4032
14052SOL    HW143064   0.394   1.055   1.301  0.5050 -1.9047  1.2127
14052SOL    HW243065   0.296   1.159   1.350  0.9190  0.0363 -1.7890
14053SOL     OW43066   6.099   1.650   6.720  0.8746 -0.1280  0.2495
14053SOL    HW143067   6.165   1.583   6.701  1.9061  0.7780  0.6186
14053SOL    HW243068   6.022   1.599   6.747  1.5187 -1.1861  0.1672
14054SOL     OW43069   1.791   2.293   3.418  1.0271 -0.2068  0.0544
14054SOL    HW143070   1.728   2.275   3.348  1.3536 -0.1275 -0.2614
14054SOL    HW243071   1.842   2.367   3.386  1.4175 -0.4041  0.2187
14055SOL     OW43072   0.255   1.089   0.024 -1.2217 -0.5117 -0.1693
14055SOL    HW143073   0.174   1.045  -0.003 -1.3234 -0.5920  0.2574
14055SOL    HW243074   0.291   1.124  -0.057 -1.2479 -1.2011 -0.4858
14056SOL     OW43075   1.302   3.344   5.885 -0.2867 -0.2655  0.4128
14056SOL    HW143076   1.209   3.365   5.887 -0.3913 -0.7536  0.6044
14056SOL    HW243077   1.344   3.422   5.922 -0.5400  0.3691 -0.5990
14057SOL     OW43078   5.265   3.809   7.121  0.0506  0.3292 -0.2479
14057SOL    HW143079   5.330   3.867   7.162 -0.1939  1.2554 -1.1022
14057SOL    HW243080   5.317   3.739   7.082  0.4683  0.6091 -0.2037
14058SOL     OW43081   7.426   2.542   4.776 -0.4593 -0.0228 -0.2614
14058SOL    HW143082   7.362   2.554   4.706 -0.5920  0.2709 -0.0928
14058SOL    HW243083   7.479   2.621   4.775  0.8608 -0.8927 -1.3599
14059SOL     OW43084   6.122   6.878   0.597 -0.3898  0.1640  0.2008
14059SOL    HW143085   6.135   6.914   0.509  1.5926 -2.8912 -0.8992
14059SOL    HW243086   6.211   6.873   0.634 -0.5432 -2.9518  0.4201
14060SOL     OW43087   1.218   6.277   5.051 -0.3930  0.9012  0.1738
14060SOL    HW143088   1.169   6.271   4.968  0.1211 -0.5803 -0.0566
14060SOL    HW243089   1.167   6.223   5.112  1.2386 -1.2373 -0.2484
14061SOL     OW43090   0.804   3.853   6.529 -0.4314 -0.0191  0.4067
14061SOL    HW143091   0.801   3.760   6.551 -1.1433 -0.0977  0.0249
14061SOL    HW243092   0.849   3.894   6.603 -0.8538 -0.5606  0.9722
14062SOL     OW43093   2.753   1.030   6.836  0.1824  0.5250  0.5084
14062SOL    HW143094   2.807   0.987   6.902  1.0740  2.0164  0.7945
14062SOL    HW243095   2.686   1.077   6.887 -0.3723  0.0489  0.2333
14063SOL     OW43096   3.061   5.129   3.839 -0.0004  0.2527  0.8149
14063SOL    HW143097   3.031   5.062   3.899 -0.2997 -1.7889 -1.4544
14063SOL    HW243098   2.984   5.182   3.821 -0.7303 -1.0788 -0.1440
14064SOL     OW43099   5.564   5.131   1.129 -0.5858 -0.1199  0.1244
14064SOL    HW143100   5.650   5.104   1.161 -0.3585 -0.0839 -0.4380
14064SOL    HW243101   5.504   5.064   1.162  0.0298 -1.6583 -1.6435
14065SOL     OW43102   4.199   6.650   7.508 -0.8991  0.0907 -0.0855
14065SOL    HW143103   4.277   6.594   7.514 -1.1336 -0.3660 -1.1041
14065SOL    HW243104   4.146   6.625   7.583 -0.3684 -0.0689  0.2434
14066SOL     OW43105   1.156   6.030   0.921 -0.3932  0.2884  0.1162
14066SOL    HW143106   1.207   6.056   0.845 -0.6054  0.5092  0.0483
14066SOL    HW243107   1.147   5.935   0.912  0.7361  0.1265  0.5856
14067SOL     OW43108   6.135   5.839   3.388  0.4586  0.4632 -0.2896
14067SOL    HW143109   6.111   5.747   3.391  2.5468 -0.1855 -1.4737
14067SOL    HW243110   6.109   5.874   3.473  2.0032 -1.8624  1.2485
14068SOL     OW43111   4.808   0.200   1.366  0.5060  0.0356 -0.0114
14068SOL    HW143112   4.766   0.136   1.424  1.9176 -0.6444  0.3076
14068SOL    HW243113   4.853   0.146   1.300  1.2914  0.7146 -0.0378
14069SOL     OW43114   5.988   6.869   3.004 -0.0108  0.5772  0.1825
14069SOL    HW143115   5.919   6.921   3.045 -0.6460  0.4037 -0.6637
14069SOL    HW243116   5.954   6.845   2.918  0.2642 -1.2454  0.5337
14070SOL     OW43117   1.080   7.020   1.408 -0.2718 -0.0280  0.0188
14070SOL    HW143118   1.057   7.094   1.350  0.6577 -0.1174 -0.4744
14070SOL    HW243119   1.172   7.004   1.391 -0.5761 -1.6465 -0.2582
14071SOL     OW43120   7.606   5.382   4.369  0.0601 -0.6289  0.4142
14071SOL    HW143121   7.532   5.364   4.427  0.6692  0.6671  1.6393
14071SOL    HW243122   7.679   5.333   4.408  0.1941 -0.7526  0.0178
14072SOL     OW43123   3.246   2.071   1.453  0.2552 -0.5004 -0.5333
14072SOL    HW143124   3.310   2.085   1.522  0.2594  3.0011 -1.0877
14072SOL    HW243125   3.298   2.062   1.373  0.1287 -0.6939 -0.5949
14073SOL     OW43126   2.119   7.187   2.296  0.3690 -0.1083 -0.2285
14073SOL    HW143127   2.115   7.188   2.201 -3.1965 -2.7839 -0.2943
14073SOL    HW243128   2.195   7.132   2.316  0.2338 -0.8276 -1.5824
14074SOL     OW43129   1.158   4.291   3.905 -0.3292  0.5677  0.1757
14074SOL    HW143130   1.228   4.335   3.953 -0.3312  1.3308 -0.4809
14074SOL    HW243131   1.181   4.198   3.908  0.0271  0.6755  1.0498
14075SOL     OW43132   7.431   6.688   5.944  0.2750 -0.1737 -0.6928
14075SOL    HW143133   7.450   6.707   6.036  2.4193 -0.5734 -0.9919
14075SOL    HW243134   7.449   6.771   5.900 -2.5551  0.5663 -0.5930
14076SOL     OW43135   0.383   2.473   2.768 -0.4904  0.1602 -0.0828
14076SOL    HW143136   0.470   2.445   2.737  0.0466  0.8490  0.7635
14076SOL    HW243137   0.375   2.563   2.737 -0.3938  0.4986  0.8588
14077SOL     OW43138   1.646   2.386   5.988 -0.1191  0.6807 -0.0463
14077SOL    HW143139   1.671   2.426   5.904 -0.0153  2.9030  0.9799
14077SOL    HW243140   1.719   2.405   6.046 -0.7564  0.2779  0.9075
14078SOL     OW43141   7.743   0.321   2.740 -0.0185 -0.0595 -0.2641
14078SOL    HW143142   7.732   0.227   2.722  1.1777 -0.5267  1.1875
14078SOL    HW243143   7.703   0.333   2.826  1.4951  0.3409  0.4084
14079SOL     OW43144   3.320   6.721   6.359  0.1434 -0.5944 -0.2044
14079SOL    HW143145   3.394   6.670   6.327 -0.4865 -3.1353  2.0342
14079SOL    HW243146   3.256   6.656   6.389 -1.7523  1.5176  0.6869
14080SOL     OW43147   7.491   6.431   7.717  0.3063 -0.2088  0.4578
14080SOL    HW143148   7.406   6.468   7.742  0.6145  1.6020 -0.9789
14080SOL    HW243149   7.555   6.485   7.764  0.7511  0.8600 -1.2942
14081SOL     OW43150   0.891   7.585   0.121 -0.1484  0.3577  0.3397
14081SOL    HW143151   0.879   7.531   0.043 -0.7506 -2.0170  1.9651
14081SOL    HW243152   0.809   7.634   0.128 -1.1494 -1.2750  0.7635
14082SOL     OW43153   7.190   2.344   0.560  0.1233  0.8827  0.1219
14082SOL    HW143154   7.246   2.293   0.619 -0.8886  0.2468  0.5653
14082SOL    HW243155   7.140   2.402   0.619 -0.9108  0.2286 -0.0843
14083SOL     OW43156   6.226   0.679   1.599  0.3432 -0.0936 -0.2707
14083SOL    HW143157   6.275   0.599   1.584 -0.1588 -0.2145 -1.3959
14083SOL    HW243158   6.176   0.692   1.518 -2.4145 -0.6252  1.2235
14084SOL     OW43159   7.072   3.090   3.950 -0.1234  0.5420 -0.5350
14084SOL    HW143160   7.099   3.051   4.033 -0.2324 -0.4784 -0.9564
14084SOL    HW243161   7.137   3.060   3.887 -1.7690 -1.3889 -1.4240
14085SOL     OW43162   3.561   5.742   2.056  0.3028 -0.2651  0.2738
14085SOL    HW143163   3.467   5.742   2.035  0.3845  0.6693 -0.1956
14085SOL    HW243164   3.577   5.831   2.089  0.9345 -0.5678  0.7940
14086SOL     OW43165   5.141   1.517   5.714 -0.0841  0.5146 -0.0866
14086SOL    HW143166   5.153   1.532   5.807  0.0496 -0.4317  0.0604
14086SOL    HW243167   5.122   1.604   5.677 -0.3380  0.8603  0.8423
14087SOL     OW43168   7.536   0.019   3.757 -0.1284 -0.2164  0.1981
14087SOL    HW143169   7.538   0.052   3.846  0.6543 -0.6296  0.3394
14087SOL    HW243170   7.459  -0.038   3.753 -0.9680  0.8745  0.2059
14088SOL     OW43171   1.557   5.708   6.142 -0.4233  0.0508 -0.0910
14088SOL    HW143172   1.519   5.620   6.144 -2.0348  0.6737 -1.2520
14088SOL    HW243173   1.602   5.713   6.058  0.9410 -0.1271  0.5994
14089SOL     OW43174   7.395   0.961   6.717  0.0102 -0.4251 -0.2220
14089SOL    HW143175   7.446   0.973   6.797 -1.5305  1.0234  0.6069
14089SOL    HW243176   7.449   0.904   6.662  2.3063  0.6743  0.7670
14090SOL     OW43177   6.954   5.187   3.971 -0.6590  0.2319 -0.8169
14090SOL    HW143178   6.999   5.259   4.016 -0.6352 -0.6037  0.5558
14090SOL    HW243179   7.007   5.170   3.893  1.5026 -0.7278  0.7473
14091SOL     OW43180   6.066   3.222   3.055  0.2318 -0.0947  0.2376
14091SOL    HW143181   6.079   3.139   3.008  0.3524 -0.9586  1.7446
14091SOL    HW243182   6.010   3.273   2.996 -1.1566 -1.8401 -0.0718
14092SOL     OW43183   1.324   2.054   4.608  0.0526  0.2478  0.2530
14092SOL    HW143184   1.299   2.026   4.696  0.4462  1.7822  0.8882
14092SOL    HW243185   1.264   2.007   4.550 -0.5735 -0.3780  1.3677
14093SOL     OW43186   1.431   2.070   5.836  0.6793  0.5024  0.0997
14093SOL    HW143187   1.508   2.097   5.787  1.1098 -0.0227  0.4770
14093SOL    HW243188   1.367   2.140   5.821  1.1729  0.8678 -0.3318
14094SOL     OW43189   5.302   0.572   1.997 -0.9591  0.3551  0.1113
14094SOL    HW143190   5.390   0.549   2.028 -0.5748  0.9367 -0.5096
14094SOL    HW243191   5.247   0.498   2.023 -0.1058 -0.4469 -0.2922
14095SOL     OW43192   5.663   5.218   3.949  0.6031  0.6029  0.1334
14095SOL    HW143193   5.618   5.150   3.898  0.0405  1.9598 -1.2800
14095SOL    HW243194   5.606   5.235   4.023 -0.7523  1.5454 -1.0722
14096SOL     OW43195   2.732   5.910   2.559 -0.1376 -0.6854 -0.3022
14096SOL    HW143196   2.759   5.830   2.514  1.6728  1.1889 -2.8564
14096SOL    HW243197   2.655   5.884   2.610  0.7639 -4.1540 -0.4620
14097SOL     OW43198   2.071   5.417   4.643 -0.3098  0.4384  0.2100
14097SOL    HW143199   2.081   5.322   4.633 -2.1806  0.3671 -1.4833
14097SOL    HW243200   2.144   5.454   4.594  0.0177 -0.0995  0.2781
14098SOL     OW43201   3.589   3.617   0.122  0.1965  0.1278 -0.0543
14098SOL    HW143202   3.683   3.599   0.126  0.1143 -0.1657  2.6733
14098SOL    HW243203   3.583   3.704   0.084  1.7720  0.9839  1.4670
14099SOL     OW43204   5.814   0.666   0.517 -0.1539 -0.1471 -0.6032
14099SOL    HW143205   5.847   0.739   0.464 -2.3383  0.1420 -1.6461
14099SOL    HW243206   5.760   0.615   0.458 -0.7250 -1.1876  0.7653
14100SOL     OW43207   1.939   1.187   1.506 -0.6696 -0.4131 -0.1863
14100SOL    HW143208   1.911   1.152   1.591 -1.9725 -0.4661 -0.6309
14100SOL    HW243209   1.923   1.116   1.444  0.4845 -0.4518 -0.4626
14101SOL     OW43210   4.268   0.471   6.674  0.7514 -0.0338 -0.3052
14101SOL    HW143211   4.217   0.450   6.752  0.3617  1.0187 -0.2520
14101SOL    HW243212   4.303   0.559   6.692  0.7907  0.1494 -1.2374
14102SOL     OW43213   0.926   0.572   5.563  0.6702  0.4582  0.1328
14102SOL    HW143214   0.833   0.592   5.573  0.3808 -0.3600 -0.7476
14102SOL    HW243215   0.970   0.626   5.629 -0.2047  2.5373 -0.9187
14103SOL     OW43216   6.195   2.257   2.520  0.2360 -0.6609 -0.1181
14103SOL    HW143217   6.168   2.290   2.435 -0.5726  0.8290  0.6828
14103SOL    HW243218   6.123   2.279   2.579  1.2088 -0.7375  1.1520
14104SOL     OW43219   5.304   6.233   4.362 -0.1405 -0.3333  0.2002
14104SOL    HW143220   5.230   6.177   4.383  1.1624 -1.3451  2.5466
14104SOL    HW243221   5.300   6.303   4.427  0.3115  0.2376 -0.3740
14105SOL     OW43222   6.140   2.949   1.641 -0.9584  0.2457 -0.3431
14105SOL    HW143223   6.062   2.903   1.674  0.4853 -2.1889 -0.0725
14105SOL    HW243224   6.149   3.025   1.697 -0.7167 -1.7585  2.5567
14106SOL     OW43225   7.531   4.113   1.182 -0.0329  0.2721 -0.0924
14106SOL    HW143226   7.623   4.094   1.200 -0.0962 -0.6383 -0.6372
14106SOL    HW243227   7.511   4.060   1.105 -0.8942  0.8119 -0.2471
14107SOL     OW43228   4.918   2.540   5.474 -0.0489 -0.4440  0.2111
14107SOL    HW143229   4.914   2.626   5.433 -0.6968  0.3387  1.8160
14107SOL    HW243230   4.890   2.479   5.405  1.5723  0.4423 -1.3222
14108SOL     OW43231   3.564   0.692   0.443 -0.4161 -0.3630  0.5315
14108SOL    HW143232   3.610   0.729   0.367 -1.5154 -0.3992 -0.1641
14108SOL    HW243233   3.624   0.626   0.477  0.0714 -0.3831 -0.3364
14109SOL     OW43234   0.933   4.076   7.658  0.2762 -0.3754  0.2458
14109SOL    HW143235   0.866   4.008   7.666  0.8643 -0.9093  0.7545
14109SOL    HW243236   1.009   4.030   7.622  0.5608  0.0970  0.2334
14110SOL     OW43237   3.838   2.468   3.015  0.1178 -0.2485 -0.3367
14110SOL    HW143238   3.853   2.406   3.086 -0.1137  0.1358  0.0561
14110SOL    HW243239   3.925   2.489   2.982  0.3313  0.5103  0.6583
14111SOL     OW43240   7.205   6.424   4.954  0.2813  0.2399  0.0100
14111SOL    HW143241   7.267   6.364   4.996  1.0960  0.5650 -0.6951
14111SOL    HW243242   7.130   6.426   5.014  0.7577 -0.5061  0.6634
14112SOL     OW43243   5.691   4.536   5.722  0.5934 -0.2542  0.1952
14112SOL    HW143244   5.623   4.603   5.716  0.2171 -0.7470 -1.5030
14112SOL    HW243245   5.682   4.501   5.811 -0.3905  0.6971  0.4932
14113SOL     OW43246   1.443   7.187   6.306  0.0545 -0.1370  0.5826
14113SOL    HW143247   1.410   7.097   6.312  0.4019 -0.4122 -1.1692
14113SOL    HW243248   1.529   7.179   6.267  0.5639  0.8995  1.4323
14114SOL     OW43249   5.181   2.533   3.360  0.4211 -0.3899 -0.1936
14114SOL    HW143250   5.087   2.528   3.344  0.4848 -0.0250 -0.6991
14114SOL    HW243251   5.210   2.607   3.308  0.5964  1.0356  1.8015
14115SOL     OW43252   5.373   3.976   6.181  0.7290 -0.5790 -0.3984
14115SOL    HW143253   5.421   3.894   6.180  0.2590 -0.9770  2.3384
14115SOL    HW243254   5.440   4.043   6.168  1.4183 -1.2877 -0.5876
14116SOL     OW43255   5.425   1.323   3.085  0.1617  0.6705  0.3623
14116SOL    HW143256   5.382   1.368   3.012 -1.2373  0.6058  1.1149
14116SOL    HW243257   5.356   1.269   3.124  0.6589  1.2949  2.2132
14117SOL     OW43258   3.928   7.416   6.981  0.2522  0.5461  0.2122
14117SOL    HW143259   3.857   7.353   6.988  0.5508  0.2583  0.7158
14117SOL    HW243260   3.904   7.471   6.906 -0.0509 -0.1070 -0.1797
14118SOL     OW43261   4.785   3.300   1.929  0.5966 -0.0312  0.6013
14118SOL    HW143262   4.765   3.281   2.020  0.9192  1.0161  0.8938
14118SOL    HW243263   4.708   3.347   1.897 -0.5232 -2.3086 -0.3307
14119SOL     OW43264   5.179   0.048   0.968  0.4529  0.5263  0.2486
14119SOL    HW143265   5.123   0.080   0.898  1.2872  1.3920 -0.0542
14119SOL    HW243266   5.265   0.039   0.927  0.7446  0.1141  0.9274
14120SOL     OW43267   4.496   0.307   1.987  0.3373 -0.5319  0.2420
14120SOL    HW143268   4.540   0.263   2.060 -0.9966 -1.9526  0.2476
14120SOL    HW243269   4.473   0.393   2.021  0.0014 -1.0612  1.4194
14121SOL     OW43270   7.101   2.333   2.554 -0.0820 -0.3975 -0.1173
14121SOL    HW143271   7.016   2.371   2.530 -0.0760 -0.0275  0.4300
14121SOL    HW243272   7.130   2.385   2.628  0.2447 -1.0493  0.2187
14122SOL     OW43273   4.359   7.601   0.105 -0.1686 -0.4751  0.2311
14122SOL    HW143274   4.434   7.545   0.128 -1.7723 -2.5298  0.7585
14122SOL    HW243275   4.323   7.629   0.189  0.3291  1.0230 -0.0260
14123SOL     OW43276   0.793   2.243   2.079 -0.0458 -0.2527 -0.3053
14123SOL    HW143277   0.732   2.305   2.120 -1.2459 -0.5695 -1.5478
14123SOL    HW243278   0.830   2.195   2.152 -3.3723 -1.9717  0.4709
14124SOL     OW43279   3.125   6.810   7.612 -0.3076  0.7635 -0.3983
14124SOL    HW143280   3.210   6.853   7.624  0.4716 -0.4039 -1.4845
14124SOL    HW243281   3.095   6.790   7.701  0.3436  1.5571  0.0116
14125SOL     OW43282   1.008   0.131   2.651 -0.0733 -0.3825 -0.4384
14125SOL    HW143283   1.090   0.169   2.620  0.2585 -0.0051  0.8312
14125SOL    HW243284   1.034   0.052   2.699  0.0078  1.4803  2.9338
14126SOL     OW43285   1.412   3.995   0.842  0.6375 -0.4376  0.7339
14126SOL    HW143286   1.389   4.082   0.874 -1.7862 -0.7204 -0.0558
14126SOL    HW243287   1.482   4.011   0.778  0.9158  0.7937  1.3090
14127SOL     OW43288   4.801   5.114   5.021  0.3772 -0.9068 -0.0165
14127SOL    HW143289   4.845   5.041   4.978  2.0887  0.3803 -0.5677
14127SOL    HW243290   4.869   5.181   5.031 -0.7376  0.0263  1.9203
14128SOL     OW43291   2.603   0.129   3.410  0.1489  0.0240  0.1649
14128SOL    HW143292   2.509   0.140   3.427 -0.0632  0.6497 -1.2622
14128SOL    HW243293   2.646   0.168   3.486 -0.7475  0.5867  0.4015
14129SOL     OW43294   3.365   0.129   6.210  0.2523  0.7027  0.3209
14129SOL    HW143295   3.437   0.084   6.167 -0.3174  0.3568 -0.2809
14129SOL    HW243296   3.398   0.149   6.298  0.6956 -0.4158  0.4179
14130SOL     OW43297   6.477   0.067   1.448 -0.3165  0.3082  0.2063
14130SOL    HW143298   6.552   0.070   1.508  0.6451  0.4246 -0.9806
14130SOL    HW243299   6.509   0.020   1.371 -2.0539 -1.4034  0.4442
14131SOL     OW43300   0.002   0.847   3.585 -0.0245  0.1602 -0.4215
14131SOL    HW143301  -0.052   0.907   3.638 -0.7598  0.3235 -1.3340
14131SOL    HW243302  -0.038   0.761   3.599  0.0594  0.1318 -0.3574
14132SOL     OW43303   1.874   5.822   6.651  1.2716 -0.2440 -0.1294
14132SOL    HW143304   1.963   5.811   6.684  0.8534  0.9188  1.5510
14132SOL    HW243305   1.820   5.824   6.730  0.1553  2.3033 -0.8660
14133SOL     OW43306   0.366   1.968   0.014  0.1303  0.0089  0.3845
14133SOL    HW143307   0.336   1.924   0.094 -0.1950  1.3643  1.0496
14133SOL    HW243308   0.440   1.916  -0.016 -1.4345 -2.1163  0.0014
14134SOL     OW43309   0.167   5.625   2.963 -0.2700  0.2252  0.2582
14134SOL    HW143310   0.114   5.646   3.039 -0.3169 -0.1231  0.3226
14134SOL    HW243311   0.106   5.628   2.889 -0.3409  0.0030  0.3083
14135SOL     OW43312   1.066   7.714   1.051 -0.4057  0.0454 -0.1095
14135SOL    HW143313   1.005   7.700   0.979  0.4505  0.3490 -0.8981
14135SOL    HW243314   1.039   7.797   1.090 -0.2289  0.4034 -0.7356
14136SOL     OW43315   7.721   0.205   1.818  0.4163  0.1176  0.0959
14136SOL    HW143316   7.768   0.184   1.737  0.8853  0.4368  0.2794
14136SOL    HW243317   7.650   0.140   1.822 -0.4458  0.9262 -1.2500
14137SOL     OW43318   0.082   2.445   5.378 -0.4051 -0.2308 -0.3403
14137SOL    HW143319   0.168   2.406   5.366 -0.2159 -0.8752  2.3814
14137SOL    HW243320   0.096   2.517   5.440 -1.6611  0.3876 -0.7303
14138SOL     OW43321   0.357   5.839   1.051  0.1461 -0.3813 -0.7510
14138SOL    HW143322   0.279   5.784   1.059  0.5644 -1.1546 -1.8437
14138SOL    HW243323   0.333   5.920   1.096 -0.8646 -1.0442 -0.0515
14139SOL     OW43324   1.775   7.189   3.547 -0.0646 -0.1488 -0.3025
14139SOL    HW143325   1.802   7.127   3.479  0.1381  1.7952 -2.1097
14139SOL    HW243326   1.679   7.187   3.545 -0.0984 -1.7823  1.0462
14140SOL     OW43327   6.863   2.150   1.660 -0.6794  0.0192  0.0154
14140SOL    HW143328   6.911   2.077   1.621  0.1347  0.6803 -0.2466
14140SOL    HW243329   6.821   2.193   1.586 -1.2621 -0.2492  0.1850
14141SOL     OW43330   4.778   5.087   2.833 -0.0599 -0.0061  0.7333
14141SOL    HW143331   4.698   5.139   2.837  0.1814  0.3808  0.6031
14141SOL    HW243332   4.848   5.152   2.820  0.2175 -0.3785  0.3319
14142SOL     OW43333   5.730   7.566   0.710  0.1593 -0.1863 -0.3926
14142SOL    HW143334   5.644   7.540   0.744 -0.5572 -1.3027 -2.8059
14142SOL    HW243335   5.731   7.662   0.718 -1.1928 -0.1801 -0.0488
14143SOL     OW43336   4.586   4.274   7.151 -0.9853  0.6926 -0.1537
14143SOL    HW143337   4.559   4.337   7.084  0.8712  1.8185  0.0762
14143SOL    HW243338   4.539   4.300   7.230 -0.0014  2.0673  0.0258
14144SOL     OW43339   1.297   3.839   0.210 -0.4604  0.0117 -0.2554
14144SOL    HW143340   1.301   3.925   0.167  1.2076 -0.0332 -0.2584
14144SOL    HW243341   1.254   3.782   0.145 -1.8860  0.8800 -0.1249
14145SOL     OW43342   1.350   5.050   7.084 -0.2266  0.1758 -0.1323
14145SOL    HW143343   1.342   4.956   7.067  0.2639 -0.0356  0.7106
14145SOL    HW243344   1.291   5.066   7.158 -0.7788  0.6622 -0.6666
14146SOL     OW43345   5.341   7.051   6.230  0.3303  0.5537  0.1968
14146SOL    HW143346   5.416   7.092   6.186  0.4767  0.1270  0.0371
14146SOL    HW243347   5.346   6.959   6.203  0.6240  0.2028  1.3820
14147SOL     OW43348   0.589   7.358   4.134  0.3566 -0.0962 -0.6796
14147SOL    HW143349   0.656   7.289   4.136 -1.2385 -1.7224 -0.9531
14147SOL    HW243350   0.534   7.336   4.059 -0.8822  0.7779 -0.0565
14148SOL     OW43351   6.498   0.748   2.511  0.0768 -0.2443 -0.3820
14148SOL    HW143352   6.563   0.679   2.524  0.0008 -0.0459  1.2791
14148SOL    HW243353   6.547   0.829   2.520  0.0265 -0.0589 -1.5940
14149SOL     OW43354   2.649   3.745   6.313 -0.3370  0.7955  0.1151
14149SOL    HW143355   2.637   3.786   6.399 -0.1924  0.4031  0.3262
14149SOL    HW243356   2.658   3.818   6.253  0.8363  1.0936  0.6146
14150SOL     OW43357   1.995   1.550   5.339 -0.5082  0.3382 -0.4111
14150SOL    HW143358   2.069   1.572   5.282 -1.2156 -0.0413 -1.5036
14150SOL    HW243359   2.032   1.551   5.427  1.3367 -1.8302 -1.0508
14151SOL     OW43360   0.771   5.072   2.043 -0.1482  0.3107 -0.1839
14151SOL    HW143361   0.714   4.999   2.017  0.5302 -0.6253  0.8635
14151SOL    HW243362   0.715   5.127   2.098 -0.4058  0.0563 -0.1843
14152SOL     OW43363   0.565   1.378   5.496  0.1101 -0.6236  0.4890
14152SOL    HW143364   0.507   1.318   5.542 -1.4823  1.1610  0.9057
14152SOL    HW243365   0.537   1.465   5.523 -0.0959  0.4933 -2.8308
14153SOL     OW43366   1.157   4.331   2.409 -0.0367  0.6881  0.3087
14153SOL    HW143367   1.172   4.278   2.331  0.7024  1.2502  0.0561
14153SOL    HW243368   1.071   4.304   2.440 -0.1951  0.2134 -0.5100
14154SOL     OW43369   4.482   0.764   2.750  0.4345 -0.0510 -0.3460
14154SOL    HW143370   4.404   0.711   2.758  0.7162 -0.3317  0.7970
14154SOL    HW243371   4.477   0.826   2.824  1.9540 -1.0019  0.6214
14155SOL     OW43372   1.087   5.568   4.742 -0.4238 -0.2125 -0.1646
14155SOL    HW143373   1.009   5.622   4.757 -0.9783 -1.6392  2.8209
14155SOL    HW243374   1.158   5.618   4.782 -0.9449 -1.5282  2.6420
14156SOL     OW43375   1.103   0.782   4.599 -0.2263  0.0523 -0.5029
14156SOL    HW143376   1.067   0.852   4.545  0.1054  1.6441  1.2385
14156SOL    HW243377   1.195   0.805   4.609 -0.6173  0.8355  2.1186
14157SOL     OW43378   0.575   5.735   3.597 -0.2159 -0.7345  0.3967
14157SOL    HW143379   0.607   5.800   3.535  0.5152 -2.0943 -0.7366
14157SOL    HW243380   0.507   5.688   3.549 -0.4358 -1.0735  1.0325
14158SOL     OW43381   0.677   3.981   5.298  0.3489  0.0073  0.6514
14158SOL    HW143382   0.743   3.919   5.268  0.4413  0.4083 -0.0088
14158SOL    HW243383   0.593   3.935   5.286  0.4684 -0.3081  1.0017
14159SOL     OW43384   7.334   0.599   6.256 -0.0169  0.3450  0.5035
14159SOL    HW143385   7.388   0.522   6.239  1.4688  1.6324 -0.9154
14159SOL    HW243386   7.397   0.671   6.265 -1.3708  1.4504  1.5494
14160SOL     OW43387   4.334   5.135   0.727  0.0371 -0.3278  0.5307
14160SOL    HW143388   4.346   5.164   0.817  3.9760  0.1741  0.0127
14160SOL    HW243389   4.356   5.042   0.728  0.7721 -0.1653 -0.0058
14161SOL     OW43390   3.112   3.694   3.546 -0.4417  0.3984 -0.3894
14161SOL    HW143391   3.203   3.721   3.530 -0.6225  0.9882 -0.4563
14161SOL    HW243392   3.063   3.728   3.471 -0.7629  0.3450 -0.2061
14162SOL     OW43393   0.292   7.387   6.178  0.1708 -0.5036  0.1305
14162SOL    HW143394   0.271   7.339   6.259  0.9680 -2.5614 -0.8239
14162SOL    HW243395   0.331   7.322   6.120  0.5152  1.1350 -1.5940
14163SOL     OW43396   5.922   3.719   3.736 -0.6082 -0.0151 -0.2153
14163SOL    HW143397   5.961   3.637   3.705  1.0974  0.1252  1.3636
14163SOL    HW243398   5.851   3.737   3.674  1.5232 -0.5413 -3.0332
14164SOL     OW43399   6.832   0.484   3.481 -0.4918  0.1340 -0.1908
14164SOL    HW143400   6.768   0.413   3.476 -0.1755 -0.0921 -2.1725
14164SOL    HW243401   6.890   0.469   3.406  1.5755  0.6414  1.2178
14165SOL     OW43402   1.794   3.381   6.528 -0.7328  0.0857  0.0621
14165SOL    HW143403   1.699   3.379   6.517 -0.8166  1.2466  0.4029
14165SOL    HW243404   1.827   3.313   6.469 -1.6975  0.4735 -0.9572
14166SOL     OW43405   4.616   0.149   3.862 -0.0673  0.1487  0.1415
14166SOL    HW143406   4.525   0.163   3.887  0.6039 -0.4823  3.3474
14166SOL    HW243407   4.666   0.210   3.917  1.6160 -1.9886  1.1181
14167SOL     OW43408   7.297   2.346   7.588 -0.4558  0.1988 -0.4223
14167SOL    HW143409   7.203   2.364   7.577 -0.4627  0.0859 -0.5502
14167SOL    HW243410   7.327   2.414   7.648 -0.6053  0.2787 -0.4369
14168SOL     OW43411   4.620   6.164   3.888  0.1219 -0.4073 -0.0778
14168SOL    HW143412   4.601   6.206   3.804  0.4614 -0.3964 -0.1506
14168SOL    HW243413   4.680   6.224   3.932  1.4495 -1.2993 -0.6224
14169SOL     OW43414   2.290   3.904   3.252 -0.0099 -0.3970  0.1073
14169SOL    HW143415   2.360   3.842   3.228 -0.5951 -1.0724  0.0994
14169SOL    HW243416   2.216   3.848   3.276 -0.9704  0.2909 -1.0949
14170SOL     OW43417   5.513   2.066   5.883 -0.0047  0.0139 -0.1559
14170SOL    HW143418   5.516   2.023   5.798 -1.8771 -0.0155 -0.2397
14170SOL    HW243419   5.513   2.160   5.863  1.4144  0.0516 -0.0819
14171SOL     OW43420   5.815   4.883   5.896 -0.0119 -0.2716 -0.0132
14171SOL    HW143421   5.721   4.865   5.899 -0.2678  0.7814 -0.8408
14171SOL    HW243422   5.821   4.977   5.878  1.1881 -0.4819 -0.8722
14172SOL     OW43423   0.776   0.260   3.316 -0.5005 -0.1650 -0.2033
14172SOL    HW143424   0.869   0.273   3.296 -0.6722  1.9031  0.1079
14172SOL    HW243425   0.730   0.305   3.246 -1.1764  1.7042  1.3474
14173SOL     OW43426   6.641   0.129   0.458  0.5926  0.2269  0.2623
14173SOL    HW143427   6.559   0.081   0.466 -0.0211  0.7467 -2.0553
14173SOL    HW243428   6.633   0.202   0.520 -0.7894  0.3631 -0.0414
14174SOL     OW43429   7.284   3.464   7.500 -0.0854 -0.5461  0.3721
14174SOL    HW143430   7.240   3.516   7.432 -0.9048  0.4188  1.6106
14174SOL    HW243431   7.357   3.519   7.529 -0.4049 -0.4797  1.0483
14175SOL     OW43432   5.016   0.017   7.570  0.3653 -0.0353 -0.6385
14175SOL    HW143433   5.055   0.057   7.492 -1.0754  0.7673 -0.9826
14175SOL    HW243434   4.964  -0.055   7.536 -1.7220  1.4114 -0.6677
14176SOL     OW43435   2.650   4.521   0.039 -0.2656 -0.2874 -0.0141
14176SOL    HW143436   2.667   4.434   0.076 -0.5723 -0.1331  0.5114
14176SOL    HW243437   2.660   4.580   0.114 -0.2766  0.1039 -0.3220
14177SOL     OW43438   0.245   0.346   0.094 -0.1337  0.2257 -0.2412
14177SOL    HW143439   0.153   0.320   0.086 -0.4787  1.1155  0.7451
14177SOL    HW243440   0.255   0.373   0.185  1.6099 -1.7470  0.2241
14178SOL     OW43441   4.666   2.397   3.026  0.3371 -0.7585 -0.1930
14178SOL    HW143442   4.643   2.400   3.119 -0.0757  2.8333 -0.2838
14178SOL    HW243443   4.760   2.413   3.024  0.7834 -2.9831 -0.4084
14179SOL     OW43444   4.103   5.902   4.880  0.2516 -0.4191  0.2996
14179SOL    HW143445   4.031   5.840   4.868  0.1890 -0.0665 -1.3283
14179SOL    HW243446   4.119   5.939   4.793  1.7490  0.2449  0.8102
14180SOL     OW43447   3.347   7.539   2.138  0.4283  0.2450 -0.1116
14180SOL    HW143448   3.419   7.477   2.146  0.4595 -0.0952 -2.3530
14180SOL    HW243449   3.387   7.617   2.100 -0.0749  0.7367  0.3421
14181SOL     OW43450   5.607   6.061   1.256  0.8851  0.0428 -0.3319
14181SOL    HW143451   5.598   6.032   1.165  2.3939 -0.8694 -0.2218
14181SOL    HW243452   5.601   5.980   1.307 -0.3769  0.6012  0.4279
14182SOL     OW43453   1.912   0.376   2.877  0.3470  0.1416  0.0348
14182SOL    HW143454   1.984   0.440   2.881  0.8010 -0.3360 -0.4252
14182SOL    HW243455   1.953   0.293   2.899 -0.1306 -0.0911  0.0546
14183SOL     OW43456   6.123   7.096   5.454 -0.4463 -0.1512  0.5221
14183SOL    HW143457   6.077   7.026   5.499  0.4144 -2.0420 -1.3509
14183SOL    HW243458   6.130   7.066   5.364 -1.4576  3.1189 -0.7920
14184SOL     OW43459   0.356   0.901   2.602 -0.7909  0.9240 -0.0531
14184SOL    HW143460   0.451   0.913   2.594 -0.0972 -2.5115  1.3063
14184SOL    HW243461   0.335   0.928   2.691 -0.9549  1.0218 -0.1211
14185SOL     OW43462   0.287   4.911   1.769 -0.0278 -0.0657 -0.1622
14185SOL    HW143463   0.294   4.822   1.806  0.2739  1.0202  2.6762
14185SOL    HW243464   0.194   4.922   1.751 -0.4800 -0.1358  1.8933
14186SOL     OW43465   5.299   1.638   1.273  0.6421 -0.4285  0.3688
14186SOL    HW143466   5.343   1.703   1.328 -1.3408  1.5952 -0.2857
14186SOL    HW243467   5.314   1.668   1.183  0.5039 -1.4567 -0.0177
14187SOL     OW43468   1.109   0.608   0.154  0.3068  0.3019  0.4684
14187SOL    HW143469   1.021   0.582   0.128  0.8267  0.0612 -1.1893
14187SOL    HW243470   1.107   0.609   0.250 -1.4373  0.1549  0.4668
14188SOL     OW43471   3.030   7.406   4.544  0.1555 -0.1283  0.5278
14188SOL    HW143472   3.065   7.343   4.607  3.5541 -0.6039 -1.5925
14188SOL    HW243473   3.004   7.481   4.596  0.2109 -1.5277  2.7037
14189SOL     OW43474   4.023   6.762   1.112 -0.1248  0.0382 -0.2013
14189SOL    HW143475   4.063   6.808   1.186  1.9782 -1.4390 -0.3429
14189SOL    HW243476   4.017   6.828   1.043 -0.0433  0.8686  0.5706
14190SOL     OW43477   0.066   7.343   3.576  0.1116  0.7343 -0.3977
14190SOL    HW143478   0.084   7.267   3.521 -1.3154 -0.7676  1.1181
14190SOL    HW243479   0.134   7.406   3.553  1.1242 -0.8482 -1.9481
14191SOL     OW43480   5.292   3.360   2.868 -0.4331  0.2821 -0.1521
14191SOL    HW143481   5.311   3.436   2.814  0.2819 -0.4798 -1.0230
14191SOL    HW243482   5.222   3.314   2.821  1.6860 -1.5599 -1.7112
14192SOL     OW43483   2.685   3.740   1.449 -0.0102  0.4824 -0.7791
14192SOL    HW143484   2.731   3.678   1.506  0.7042  1.1366 -0.6209
14192SOL    HW243485   2.714   3.718   1.361 -0.7732 -0.2431 -0.8629
14193SOL     OW43486   5.530   6.349   1.405 -0.2072  0.3166 -0.0569
14193SOL    HW143487   5.484   6.341   1.321  1.9013  0.2421 -1.2711
14193SOL    HW243488   5.606   6.403   1.385 -0.1128  1.0490  2.0415
14194SOL     OW43489   4.121   2.521   4.423 -0.4886  0.2216 -0.1740
14194SOL    HW143490   4.215   2.533   4.441 -0.2493  0.9248 -1.7077
14194SOL    HW243491   4.117   2.447   4.363 -0.5139  2.3189 -2.9490
14195SOL     OW43492   3.793   3.062   2.609  0.4291 -0.1378 -0.2192
14195SOL    HW143493   3.820   3.066   2.701 -0.2306 -0.8931  0.0197
14195SOL    HW243494   3.844   3.131   2.566  1.8235 -0.7298  0.4250
14196SOL     OW43495   6.559   4.652   5.043 -0.3719  0.3979 -0.5338
14196SOL    HW143496   6.576   4.670   4.951 -2.1315 -1.8123 -1.3947
14196SOL    HW243497   6.471   4.614   5.044  0.4418 -1.7277  1.7352
14197SOL     OW43498   1.499   5.384   1.939  0.6943  0.7830  0.4801
14197SOL    HW143499   1.488   5.323   2.012 -1.7614  0.3427 -0.1823
14197SOL    HW243500   1.528   5.328   1.867 -0.0528  0.6356  0.2838
14198SOL     OW43501   4.015   0.189   7.313 -0.0338 -0.1748  0.4923
14198SOL    HW143502   4.002   0.273   7.269  1.1597 -0.9316 -1.4096
14198SOL    HW243503   3.926   0.156   7.329 -0.5133  0.2415 -1.1750
14199SOL     OW43504   3.145   3.925   4.948  0.4423  0.4000 -0.4003
14199SOL    HW143505   3.077   3.860   4.929  1.7162 -1.8398  2.0835
14199SOL    HW243506   3.217   3.901   4.890 -0.1499  1.5929 -1.6771
14200SOL     OW43507   1.509   0.341   6.071 -0.4603  0.0999 -0.3471
14200SOL    HW143508   1.460   0.380   5.998 -1.4436 -0.6000 -0.0750
14200SOL    HW243509   1.507   0.408   6.139  0.0255  0.5540 -0.7626
14201SOL     OW43510   0.057   5.676   7.260  0.1509 -0.3117  0.4060
14201SOL    HW143511   0.144   5.711   7.280  0.0049  0.4332 -0.2447
14201SOL    HW243512   0.005   5.695   7.339 -0.0517  1.3860 -0.1008
14202SOL     OW43513   5.025   0.066   7.049 -0.0786  0.0313  0.5879
14202SOL    HW143514   5.018  -0.028   7.034 -2.5784  0.1329  0.6983
14202SOL    HW243515   5.053   0.073   7.140 -0.8094 -0.6288  0.8764
14203SOL     OW43516   6.576   4.589   1.241 -0.1769  0.2376  0.1877
14203SOL    HW143517   6.641   4.582   1.311 -1.3509 -2.1129  1.1575
14203SOL    HW243518   6.524   4.509   1.249 -3.9876  2.4929  0.2266
14204SOL     OW43519   0.835   3.159   5.253 -0.0402  0.1856  0.1975
14204SOL    HW143520   0.769   3.114   5.306  0.1185 -0.5615 -0.2317
14204SOL    HW243521   0.786   3.197   5.180 -0.1765  0.7412  0.5703
14205SOL     OW43522   6.028   3.952   7.537  0.3209  0.9619 -0.2689
14205SOL    HW143523   5.995   4.009   7.468  0.1651  1.1977  0.0039
14205SOL    HW243524   5.963   3.881   7.542  1.2054  0.0013 -1.5612
14206SOL     OW43525   2.158   1.113   1.681 -0.4579 -0.2688 -0.5829
14206SOL    HW143526   2.131   1.025   1.656 -0.8741 -0.1786 -0.4506
14206SOL    HW243527   2.184   1.155   1.599 -1.3126 -0.1481 -0.7976
14207SOL     OW43528   1.487   1.564   4.617 -0.5921  0.0758  0.0398
14207SOL    HW143529   1.430   1.567   4.694  1.1172  0.4571  1.3622
14207SOL    HW243530   1.521   1.653   4.609 -0.3183 -0.0979 -0.8246
14208SOL     OW43531   2.028   0.832   5.256 -0.0182 -1.0844 -0.5268
14208SOL    HW143532   1.987   0.918   5.250  1.8229  0.0088  1.3146
14208SOL    HW243533   1.969   0.781   5.311  0.4663  0.1190  1.1893
14209SOL     OW43534   1.033   5.981   5.461  0.1905  0.3177  0.5123
14209SOL    HW143535   1.096   6.024   5.403  0.4315  1.2816  1.4579
14209SOL    HW243536   1.059   6.009   5.549 -2.4301  1.9336  0.8578
14210SOL     OW43537   3.150   4.186   1.423  0.0348  0.3708 -0.4155
14210SOL    HW143538   3.143   4.245   1.498 -3.0158  2.5187 -2.1914
14210SOL    HW243539   3.068   4.136   1.424 -0.5991  1.2595 -2.8659
14211SOL     OW43540   5.241   2.312   0.324  0.5001 -0.2341  0.1879
14211SOL    HW143541   5.325   2.294   0.366  0.0080  0.3925  1.4886
14211SOL    HW243542   5.229   2.407   0.332  0.6073 -0.0122 -1.8300
14212SOL     OW43543   6.886   3.069   3.752  0.1849 -0.8781 -0.5511
14212SOL    HW143544   6.931   3.064   3.667  1.1332  1.8823 -0.3157
14212SOL    HW243545   6.954   3.093   3.814 -0.9636 -0.1493  0.4840
14213SOL     OW43546   2.746   2.208   6.963  0.2704 -0.1260  0.1468
14213SOL    HW143547   2.735   2.150   6.888 -0.8628 -0.3337  0.4674
14213SOL    HW243548   2.758   2.150   7.038 -1.1928  0.0293  0.5190
14214SOL     OW43549   7.359   3.472   6.317  0.5597  0.0478 -0.1602
14214SOL    HW143550   7.393   3.537   6.379  0.8534 -0.5636  0.3272
14214SOL    HW243551   7.270   3.502   6.298  0.3792  0.1126  0.7456
14215SOL     OW43552   4.544   3.449   7.501 -0.1167 -0.2115  0.3795
14215SOL    HW143553   4.598   3.379   7.538 -0.1896 -0.2764  0.3628
14215SOL    HW243554   4.601   3.526   7.502 -0.5954  0.1595  2.0474
14216SOL     OW43555   3.834   0.434   3.712  0.5536 -0.0847 -0.7401
14216SOL    HW143556   3.894   0.397   3.648  1.5319  0.6665 -0.2888
14216SOL    HW243557   3.754   0.382   3.703  1.0673 -0.7358 -1.7506
14217SOL     OW43558   6.099   5.929   3.664  0.2315 -0.0181 -0.0401
14217SOL    HW143559   6.009   5.956   3.679  0.0382 -1.1013  0.8927
14217SOL    HW243560   6.120   5.872   3.738  2.0277  1.0168  0.3167
14218SOL     OW43561   0.406   6.608   6.661  0.0390 -0.3054  0.4109
14218SOL    HW143562   0.421   6.672   6.732  0.8093  2.2512 -1.8870
14218SOL    HW243563   0.347   6.653   6.600  0.6173 -1.8007 -1.3389
14219SOL     OW43564   5.393   0.944   5.592  0.0770 -0.4637  0.6751
14219SOL    HW143565   5.304   0.943   5.627 -0.1395 -0.9236  0.1143
14219SOL    HW243566   5.393   0.879   5.523  0.2843  0.9362 -0.7076
14220SOL     OW43567   5.778   3.208   6.954  0.2111 -0.2238  0.1764
14220SOL    HW143568   5.811   3.119   6.961  1.2527  0.1562  0.1698
14220SOL    HW243569   5.853   3.264   6.972 -0.8998  0.6775  2.4779
14221SOL     OW43570   4.724   4.515   4.177 -0.2093 -0.3509  0.3711
14221SOL    HW143571   4.792   4.530   4.111 -1.1366  1.3026 -0.2639
14221SOL    HW243572   4.758   4.444   4.231  2.4596  1.0538  0.6742
14222SOL     OW43573   0.863   5.830   1.431  0.5329  0.3994 -0.4899
14222SOL    HW143574   0.920   5.904   1.411  0.8308 -0.0793 -1.4442
14222SOL    HW243575   0.910   5.781   1.499  0.8779  0.4540 -0.6865
14223SOL     OW43576   6.319   0.300   2.386 -0.0409  0.1086  0.0641
14223SOL    HW143577   6.326   0.389   2.350  1.2603 -0.4062 -1.0582
14223SOL    HW243578   6.289   0.247   2.312  2.3993 -0.9291 -0.2879
14224SOL     OW43579   2.718   0.475   2.916 -0.0528  0.4056 -0.2916
14224SOL    HW143580   2.794   0.505   2.965  1.1707  0.3963 -2.1014
14224SOL    HW243581   2.673   0.415   2.976  0.3633  1.7366  1.4421
14225SOL     OW43582   2.629   6.320   0.785 -0.1472  0.7003  0.0336
14225SOL    HW143583   2.675   6.240   0.810  1.3553  0.6330 -2.5452
14225SOL    HW243584   2.573   6.340   0.859 -0.8107 -2.8851  0.6770
14226SOL     OW43585   6.440   4.620   3.839  0.2078 -0.2091  0.1328
14226SOL    HW143586   6.482   4.663   3.764 -1.2585  0.3166 -0.4136
14226SOL    HW243587   6.454   4.527   3.825  2.1096 -0.0223  0.5330
14227SOL     OW43588   1.625   6.459   2.335 -0.6308 -0.1143  0.3909
14227SOL    HW143589   1.582   6.454   2.420 -2.9034  1.1870 -0.5834
14227SOL    HW243590   1.680   6.537   2.340 -1.4359  0.4677  0.4284
14228SOL     OW43591   2.910   4.514   5.791 -0.4488  0.0576  0.2321
14228SOL    HW143592   2.855   4.438   5.812  0.1430 -0.1205  1.1965
14228SOL    HW243593   2.856   4.566   5.731 -0.8232 -1.1641 -0.5417
14229SOL     OW43594   3.850   3.461   7.279 -0.0867  0.0800 -0.4773
14229SOL    HW143595   3.861   3.366   7.280  0.4249  0.1383  0.7132
14229SOL    HW243596   3.815   3.482   7.366 -1.0402  0.8906 -1.0407
14230SOL     OW43597   3.911   5.172   3.199  0.0976 -0.2810 -0.5331
14230SOL    HW143598   3.847   5.104   3.218 -0.8661  0.1355 -2.1308
14230SOL    HW243599   3.992   5.124   3.179 -0.0556 -0.8626  0.2037
14231SOL     OW43600   5.223   4.185   2.347  0.1283  0.7283  0.1372
14231SOL    HW143601   5.149   4.171   2.406  0.9846 -0.9407  0.8779
14231SOL    HW243602   5.255   4.273   2.369 -0.4749  0.7152  1.1207
14232SOL     OW43603   6.891   3.733   1.699  0.2113 -0.2211  0.6038
14232SOL    HW143604   6.956   3.774   1.642 -0.0586 -1.1994 -0.4520
14232SOL    HW243605   6.811   3.784   1.685  0.7170  0.9788  1.8978
14233SOL     OW43606   1.856   1.002   2.274  0.1631 -0.4735 -0.0154
14233SOL    HW143607   1.818   1.000   2.362 -0.6867  0.3715 -0.3455
14233SOL    HW243608   1.836   1.090   2.241  0.3386 -0.8286 -1.1143
14234SOL     OW43609   0.507   3.147   4.169 -0.0056 -0.1984  0.2285
14234SOL    HW143610   0.532   3.084   4.102  1.2140  0.8742 -0.3754
14234SOL    HW243611   0.425   3.185   4.139 -0.0360 -0.5286 -0.1002
14235SOL     OW43612   1.192   7.516   0.471  0.3949  0.1351 -0.3213
14235SOL    HW143613   1.146   7.577   0.413 -0.3397 -1.8485 -2.0108
14235SOL    HW243614   1.283   7.519   0.441  0.3416  0.3432 -0.4672
14236SOL     OW43615   6.395   3.474   6.570  0.2845 -0.3518 -0.5697
14236SOL    HW143616   6.415   3.566   6.552  1.2042 -1.1714 -4.5944
14236SOL    HW243617   6.320   3.478   6.631  1.5802  2.9406  1.0861
14237SOL     OW43618   6.819   0.368   6.376 -0.4180  0.3477 -0.2763
14237SOL    HW143619   6.788   0.410   6.296  0.4312  0.5877 -0.4863
14237SOL    HW243620   6.910   0.397   6.385 -0.5696  0.5137  0.9054
14238SOL     OW43621   6.416   0.565   2.277  0.3959 -0.1571 -0.1823
14238SOL    HW143622   6.450   0.634   2.334 -0.5826 -0.6868  1.0900
14238SOL    HW243623   6.362   0.611   2.213  1.4192  0.4369 -0.6362
14239SOL     OW43624   3.210   3.024   4.102 -0.4356 -0.2195  0.4412
14239SOL    HW143625   3.168   2.971   4.170  1.6742 -2.7178 -0.0661
14239SOL    HW243626   3.176   2.989   4.020  0.6869 -0.5075  0.0951
14240SOL     OW43627   4.691   7.426   0.602  0.0916  0.4708 -0.0867
14240SOL    HW143628   4.735   7.406   0.519 -0.9406 -0.5030 -0.4227
14240SOL    HW243629   4.734   7.506   0.633  0.5970  0.7733 -1.4843
14241SOL     OW43630   5.041   2.191   2.628  0.4177  0.2782 -0.5061
14241SOL    HW143631   5.122   2.140   2.620  0.4765  0.2189  0.3957
14241SOL    HW243632   4.971   2.126   2.622  0.4822  0.1320  0.2583
14242SOL     OW43633   2.552   6.366   1.513 -0.2746 -0.0151 -0.2692
14242SOL    HW143634   2.567   6.457   1.537  1.4826 -0.7903  1.8990
14242SOL    HW243635   2.501   6.330   1.585 -1.1350 -0.7383 -1.2022
14243SOL     OW43636   0.963   1.100   3.263  0.3243  0.0061  0.0774
14243SOL    HW143637   0.927   1.105   3.174  0.7702  0.3504 -0.0856
14243SOL    HW243638   0.972   1.006   3.279  1.8915 -0.0516 -0.9261
14244SOL     OW43639   4.832   4.783   5.151  0.1273  0.1848 -0.2184
14244SOL    HW143640   4.849   4.836   5.229 -0.7966  0.0277  0.1019
14244SOL    HW243641   4.752   4.819   5.114  0.4202  0.0954 -0.9666
14245SOL     OW43642   1.728   1.393   3.354  0.0566 -0.4046 -0.2437
14245SOL    HW143643   1.697   1.303   3.370  0.7675 -0.6103  0.0398
14245SOL    HW243644   1.696   1.442   3.429  1.7615 -0.9645  0.9032
14246SOL     OW43645   0.319   6.764   0.328 -0.0037  0.0300  0.4417
14246SOL    HW143646   0.410   6.748   0.355  0.0280 -1.4946 -0.4490
14246SOL    HW243647   0.324   6.839   0.268  0.4960  0.6642  1.2508
14247SOL     OW43648   7.467   2.228   2.172 -0.4767 -0.0255  0.2747
14247SOL    HW143649   7.392   2.227   2.231  0.6156  1.5636  1.7560
14247SOL    HW243650   7.532   2.173   2.216 -0.8776 -1.8501 -1.2619
14248SOL     OW43651   3.331   1.721   6.061  0.5660  0.7523 -0.2385
14248SOL    HW143652   3.410   1.710   6.008  1.2293 -0.5157  0.9487
14248SOL    HW243653   3.274   1.648   6.035  1.7111 -1.1255  2.0695
14249SOL     OW43654   3.538   3.999   0.232 -0.1900 -0.0029 -0.1964
14249SOL    HW143655   3.572   4.088   0.228  0.0263 -0.0086  1.1114
14249SOL    HW243656   3.457   4.007   0.282  0.5928 -0.7316  1.2534
14250SOL     OW43657   5.370   2.938   2.294 -0.6367  0.9633  0.3971
14250SOL    HW143658   5.283   2.899   2.293 -0.0521 -0.3961  0.7243
14250SOL    HW243659   5.405   2.917   2.380 -0.5674  2.9022  0.9020
14251SOL     OW43660   4.105   0.335   5.456  0.6647 -0.8838  0.4727
14251SOL    HW143661   4.100   0.428   5.478  0.2681 -0.5622 -0.9288
14251SOL    HW243662   4.062   0.291   5.530 -0.5573  0.1465  0.4073
14252SOL     OW43663   7.096   7.018   1.278 -0.3956  0.2472 -0.1973
14252SOL    HW143664   7.036   6.949   1.305 -2.4410  1.4488 -1.4090
14252SOL    HW243665   7.183   6.980   1.289 -1.4188 -2.3727 -0.4401
14253SOL     OW43666   0.361   6.380   2.439 -0.1568 -0.2878 -0.4390
14253SOL    HW143667   0.333   6.375   2.347  0.3796 -0.7356 -0.5858
14253SOL    HW243668   0.410   6.462   2.444 -0.1183 -0.3018 -0.5708
14254SOL     OW43669   6.768   1.068   7.247  0.1769  0.3171  0.3407
14254SOL    HW143670   6.715   1.048   7.170  0.4240 -0.9931  0.4859
14254SOL    HW243671   6.842   1.118   7.212 -0.5328  1.1513 -0.0221
14255SOL     OW43672   2.193   6.685   2.780 -0.1202  0.6305 -0.1575
14255SOL    HW143673   2.212   6.656   2.691 -0.8248  1.3698 -0.5715
14255SOL    HW243674   2.198   6.781   2.775 -0.5174  0.6924  0.5035
14256SOL     OW43675   6.644   3.342   5.903 -0.1035  0.7316  0.2966
14256SOL    HW143676   6.553   3.356   5.878  0.2961 -0.0030 -1.7301
14256SOL    HW243677   6.640   3.288   5.981 -1.3991  1.2563  0.6176
14257SOL     OW43678   5.964   0.218   5.258 -0.5246 -0.5893  0.2414
14257SOL    HW143679   6.040   0.165   5.282 -0.8049 -1.3382 -0.5136
14257SOL    HW243680   5.971   0.295   5.315  1.2853 -0.2155 -0.4102
14258SOL     OW43681   7.196   2.999   1.848 -0.4289  0.5116 -0.1127
14258SOL    HW143682   7.184   2.959   1.934 -2.1812  2.1489  0.4896
14258SOL    HW243683   7.257   2.941   1.802  0.6926 -0.3259  2.2731
14259SOL     OW43684   6.524   0.620   0.571 -0.1190 -0.0134  0.1602
14259SOL    HW143685   6.454   0.622   0.506  1.1853  0.1043 -1.2718
14259SOL    HW243686   6.487   0.668   0.646 -2.7375 -2.6038  0.7545
14260SOL     OW43687   2.328   4.045   5.124 -0.2517  0.3750  0.3263
14260SOL    HW143688   2.273   4.118   5.096  0.7900  0.2006 -2.5551
14260SOL    HW243689   2.285   3.967   5.088 -0.4719 -0.2794  1.9371
14261SOL     OW43690   7.645   0.270   3.616 -0.2798 -0.1476 -0.1880
14261SOL    HW143691   7.609   0.182   3.607  0.0085 -0.1688 -1.2904
14261SOL    HW243692   7.695   0.283   3.536 -0.2126  0.9741  0.0268
14262SOL     OW43693   2.054   3.213   6.960  0.0909 -0.0144 -0.1766
14262SOL    HW143694   1.987   3.154   6.993  0.5100 -0.1683  0.4162
14262SOL    HW243695   2.134   3.162   6.962  0.4062  0.4767  0.0761
14263SOL     OW43696   6.382   4.858   6.518  0.6303 -0.0033  0.0646
14263SOL    HW143697   6.396   4.763   6.526  3.2895  0.3665  0.5266
14263SOL    HW243698   6.459   4.897   6.559 -0.9496  2.4142  0.9429
14264SOL     OW43699   2.505   4.684   7.177 -0.4049  0.0582 -0.6000
14264SOL    HW143700   2.471   4.747   7.113  0.2821 -0.5217 -1.5541
14264SOL    HW243701   2.515   4.735   7.258 -2.1237  0.5957 -0.6744
14265SOL     OW43702   1.026   6.460   7.596 -0.0404 -0.2288 -0.0032
14265SOL    HW143703   1.042   6.437   7.504  0.2964 -3.9273  0.8112
14265SOL    HW243704   0.999   6.377   7.636 -3.7313  1.9297  2.5747
14266SOL     OW43705   4.243   6.037   6.360  0.0557 -0.7241 -0.4353
14266SOL    HW143706   4.327   6.038   6.406 -0.5029  0.3322  0.5961
14266SOL    HW243707   4.267   6.032   6.267  1.3276  1.3850 -0.2800
14267SOL     OW43708   5.146   5.119   2.375  0.5263  0.3091 -0.0223
14267SOL    HW143709   5.162   5.138   2.467 -0.2744 -1.0679  0.4312
14267SOL    HW243710   5.211   5.170   2.328  0.3644  1.7497  1.2521
14268SOL     OW43711   1.050   5.037   1.528 -0.6288  0.1536 -0.6391
14268SOL    HW143712   0.971   5.037   1.582 -0.4736 -1.0334 -0.3847
14268SOL    HW243713   1.029   4.980   1.454  0.3799 -1.2215  0.0816
14269SOL     OW43714   2.654   4.219   6.770 -0.0017 -0.0398  0.3186
14269SOL    HW143715   2.590   4.172   6.823 -2.1405 -0.1478 -2.2186
14269SOL    HW243716   2.650   4.309   6.803 -2.1235  0.1454 -0.2977
14270SOL     OW43717   2.610   3.864   4.771  0.4823  0.7756  0.1637
14270SOL    HW143718   2.633   3.822   4.688 -0.7855  0.4428 -0.0428
14270SOL    HW243719   2.537   3.922   4.749 -0.4451  0.0340  1.2010
14271SOL     OW43720   7.057   4.531   2.532  0.0385  0.5159  0.2872
14271SOL    HW143721   7.119   4.600   2.557  0.2806  0.2404  0.4619
14271SOL    HW243722   7.022   4.559   2.448 -0.0871  1.0002  0.5009
14272SOL     OW43723   3.775   3.415   1.534 -0.0756  0.6944  0.5420
14272SOL    HW143724   3.780   3.325   1.502 -0.3275  1.0585 -0.5786
14272SOL    HW243725   3.855   3.456   1.501 -0.2764  1.0466  0.4908
14273SOL     OW43726   4.791   1.495   7.596  0.9835 -0.2996  0.2346
14273SOL    HW143727   4.721   1.495   7.662  0.1297  0.3055 -0.6323
14273SOL    HW243728   4.788   1.583   7.558  2.8239  0.0328  0.7685
14274SOL     OW43729   2.117   5.625   1.512  0.5876 -0.8670  0.1148
14274SOL    HW143730   2.145   5.533   1.508 -0.9285 -1.3172 -1.1097
14274SOL    HW243731   2.142   5.654   1.600 -0.0650 -2.8375  1.0036
14275SOL     OW43732   6.304   5.851   0.748  0.1980  0.2299 -0.2275
14275SOL    HW143733   6.302   5.882   0.839 -2.7181 -0.6904  0.1309
14275SOL    HW243734   6.289   5.930   0.696 -0.5233  0.4444  0.2789
14276SOL     OW43735   1.171   5.121   7.294 -0.2145 -0.8964 -0.1863
14276SOL    HW143736   1.222   5.202   7.292 -0.2122 -0.8724  0.4622
14276SOL    HW243737   1.113   5.131   7.370 -1.1403 -0.9540 -0.8732
14277SOL     OW43738   2.775   4.935   2.742  0.3557  0.2356  0.5407
14277SOL    HW143739   2.680   4.930   2.749  0.2927 -2.2602 -0.7347
14277SOL    HW243740   2.806   4.871   2.807  1.0114 -0.7354 -0.6928
14278SOL     OW43741   1.694   3.581   4.676 -0.0801 -0.1432  0.2661
14278SOL    HW143742   1.727   3.520   4.742  1.7689 -0.0206 -0.4930
14278SOL    HW243743   1.681   3.526   4.598 -0.5707  0.0443  0.2100
14279SOL     OW43744   2.853   3.740   7.191  0.1635 -0.0752  0.5776
14279SOL    HW143745   2.932   3.743   7.137 -0.8218 -2.0981 -1.1155
14279SOL    HW243746   2.812   3.826   7.179  0.7770  0.0726 -0.6626
14280SOL     OW43747   0.072   7.492   6.477  0.4146 -0.4252  0.0789
14280SOL    HW143748   0.135   7.423   6.454  0.5202 -0.4918  0.5719
14280SOL    HW243749   0.053   7.535   6.393  0.3519 -1.0450 -0.2322
14281SOL     OW43750   6.913   3.153   5.261  0.1857  0.0971  0.6671
14281SOL    HW143751   6.932   3.171   5.169 -1.6205  1.6082  0.5150
14281SOL    HW243752   6.818   3.160   5.267  0.2836  0.1671  2.6754
14282SOL     OW43753   0.114   6.628   3.574 -0.1536  0.2229  0.1348
14282SOL    HW143754   0.092   6.703   3.630 -0.0708  0.5388 -0.2548
14282SOL    HW243755   0.042   6.566   3.589  0.3966 -0.1523  1.3925
14283SOL     OW43756   0.026   4.613   4.960 -0.2119  0.6322  0.5261
14283SOL    HW143757   0.057   4.605   5.050 -0.7201 -0.0308  0.6535
14283SOL    HW243758   0.103   4.599   4.905 -0.2808 -1.1807  0.8279
14284SOL     OW43759   5.694   3.176   1.941  0.3920 -0.2614 -0.8727
14284SOL    HW143760   5.640   3.229   1.882 -0.3689 -0.8540 -0.7310
14284SOL    HW243761   5.669   3.085   1.920  1.9235 -0.6000 -1.3692
14285SOL     OW43762   4.961   6.774   6.070 -0.0867 -0.9835  0.3095
14285SOL    HW143763   4.869   6.758   6.049 -0.6291 -0.6410  2.2716
14285SOL    HW243764   5.004   6.690   6.053 -0.5686 -0.9202 -1.4300
14286SOL     OW43765   3.376   3.477   3.451  0.4345 -0.2512 -0.2416
14286SOL    HW143766   3.446   3.533   3.485  0.4348  0.9543 -2.0493
14286SOL    HW243767   3.298   3.505   3.498  0.8677 -0.5187  0.6696
14287SOL     OW43768   2.246   1.415   7.036 -0.2173 -0.4073  0.6418
14287SOL    HW143769   2.184   1.361   7.085 -1.8643 -1.1868 -2.0931
14287SOL    HW243770   2.308   1.352   6.999 -1.3268 -0.3813 -1.4170
14288SOL     OW43771   6.299   6.544   4.469 -0.4770  0.2738  0.0130
14288SOL    HW143772   6.338   6.570   4.386 -0.9558 -1.7571 -0.9007
14288SOL    HW243773   6.214   6.506   4.446 -0.0412 -1.6225  1.2118
14289SOL     OW43774   3.101   4.089   2.087 -0.0751  0.2412 -0.2705
14289SOL    HW143775   3.168   4.096   2.019  0.4139 -1.3362  0.0104
14289SOL    HW243776   3.131   4.019   2.144 -0.6206  1.3433  1.4510
14290SOL     OW43777   4.266   1.448   6.541 -0.0779 -0.2248  0.5802
14290SOL    HW143778   4.241   1.479   6.454  0.6590 -0.0830  0.4074
14290SOL    HW243779   4.267   1.353   6.533  0.3756 -0.2039  0.3081
14291SOL     OW43780   7.638   5.801   4.601  0.7767  0.4066  0.4472
14291SOL    HW143781   7.668   5.749   4.527  1.0370  1.5647 -0.2894
14291SOL    HW243782   7.707   5.791   4.667 -0.0943 -1.7223  1.1101
14292SOL     OW43783   3.978   4.278   4.293 -0.6885  0.1233 -0.2692
14292SOL    HW143784   3.929   4.197   4.277 -1.1363  0.5471 -1.0760
14292SOL    HW243785   3.913   4.338   4.329 -0.7700  0.6815 -1.3186
14293SOL     OW43786   0.769   6.825   5.206  0.1266 -0.2548 -0.4330
14293SOL    HW143787   0.681   6.815   5.243  0.5708 -2.0173  0.2582
14293SOL    HW243788   0.820   6.866   5.276  0.2694 -0.9118 -0.1412
14294SOL     OW43789   7.678   6.500   2.626 -0.1878  0.4484 -0.8184
14294SOL    HW143790   7.652   6.536   2.710  2.1283  2.2032 -0.7551
14294SOL    HW243791   7.741   6.431   2.649  0.7688  1.2136 -1.0798
14295SOL     OW43792   4.772   4.072   4.278  0.7957  0.2129 -0.1225
14295SOL    HW143793   4.705   4.081   4.211 -0.7511 -0.5070  1.2445
14295SOL    HW243794   4.847   4.035   4.233 -0.5320 -1.1909 -1.2866
14296SOL     OW43795   5.159   4.558   2.111  0.1210  0.4571 -0.2630
14296SOL    HW143796   5.143   4.567   2.205  0.4527 -0.7239 -0.0837
14296SOL    HW243797   5.083   4.511   2.077 -0.4882  1.7502 -0.7894
14297SOL     OW43798   0.173   6.323   2.660  0.1578 -0.5316 -0.3038
14297SOL    HW143799   0.232   6.332   2.585  0.1315 -0.1131 -0.2753
14297SOL    HW243800   0.213   6.376   2.729 -0.4996  0.1611 -0.4377
14298SOL     OW43801   1.340   5.620   6.784  0.3071 -0.6809  0.0285
14298SOL    HW143802   1.315   5.650   6.872  2.0520 -3.0367  1.4421
14298SOL    HW243803   1.435   5.614   6.788  0.5953  0.7688 -2.6617
14299SOL     OW43804   3.372   4.718   3.723  0.0713  0.1304 -0.5006
14299SOL    HW143805   3.346   4.657   3.654  1.7469 -0.1714 -0.9007
14299SOL    HW243806   3.350   4.805   3.688 -0.9438 -0.1292 -0.5428
14300SOL     OW43807   2.372   2.624   3.734  0.6303 -0.2177 -0.4755
14300SOL    HW143808   2.295   2.583   3.694 -0.5308 -0.6856  2.0010
14300SOL    HW243809   2.352   2.718   3.735  0.0391 -0.3396  0.1712
14301SOL     OW43810   2.610   5.489   4.827 -0.6824 -0.1057  0.3732
14301SOL    HW143811   2.600   5.438   4.747 -1.2381  0.6896 -0.0820
14301SOL    HW243812   2.659   5.567   4.800 -1.0402  0.2636  0.7561
14302SOL     OW43813   6.684   1.011   6.245  0.3191 -0.8390  0.2139
14302SOL    HW143814   6.678   1.000   6.340  2.0113 -1.5593  0.2651
14302SOL    HW243815   6.765   1.060   6.232 -0.4796  0.2626 -0.8139
14303SOL     OW43816   6.752   7.093   3.582  0.2151  0.5635  0.0033
14303SOL    HW143817   6.804   7.043   3.645  0.6231  0.9717  0.0013
14303SOL    HW243818   6.815   7.153   3.542  0.1154 -0.1757 -1.3221
14304SOL     OW43819   4.038   1.350   0.343  0.2451  0.3290 -0.1522
14304SOL    HW143820   4.082   1.418   0.291  0.9765  2.0166  2.4909
14304SOL    HW243821   3.945   1.365   0.328  0.4211 -0.4493 -2.3741
14305SOL     OW43822   5.001   7.473   5.830  0.1795  0.2093  0.5929
14305SOL    HW143823   5.035   7.562   5.828  0.9073 -0.0733 -0.0028
14305SOL    HW243824   5.055   7.428   5.895  0.2911  0.0185  0.3708
14306SOL     OW43825   2.056   0.444   4.050 -0.4304  0.2748 -0.0083
14306SOL    HW143826   2.132   0.501   4.037 -0.4865 -0.0523 -2.1879
14306SOL    HW243827   2.053   0.391   3.970 -0.6074 -2.5499  1.7574
14307SOL     OW43828   4.679   2.979   5.393 -0.1266  0.0081  0.4330
14307SOL    HW143829   4.717   3.043   5.452 -0.3966  0.2662  0.3311
14307SOL    HW243830   4.596   3.018   5.365  1.2500  1.2621 -2.3740
14308SOL     OW43831   0.394   0.461   5.325  0.1913  0.0498  0.1047
14308SOL    HW143832   0.362   0.476   5.236 -0.1589 -0.6469  0.1052
14308SOL    HW243833   0.470   0.404   5.314  1.7087  1.9697  0.0751
14309SOL     OW43834   7.644   7.241   1.673 -0.1109  0.6297 -0.3434
14309SOL    HW143835   7.604   7.181   1.736 -0.6762 -0.9902 -2.1305
14309SOL    HW243836   7.633   7.328   1.711 -2.9510  0.0034  0.4990
14310SOL     OW43837   5.376   7.039   1.771 -0.1641 -1.0184 -0.0827
14310SOL    HW143838   5.345   7.083   1.692 -1.2495  0.4812  1.1361
14310SOL    HW243839   5.466   7.012   1.749 -0.1786  0.0138 -1.5705
14311SOL     OW43840   5.827   0.885   3.276 -0.2088  0.5361  0.4690
14311SOL    HW143841   5.833   0.963   3.331  0.6749 -0.1166  1.3399
14311SOL    HW243842   5.917   0.854   3.269 -0.5443 -0.3777  0.0762
14312SOL     OW43843   3.538   0.518   0.817 -0.0600  0.0493 -0.4524
14312SOL    HW143844   3.623   0.474   0.813  0.0512  0.3681 -2.0913
14312SOL    HW243845   3.476   0.449   0.837  0.4704 -0.3309 -0.0834
14313SOL     OW43846   5.908   5.583   1.569 -0.4766  0.0413  0.3173
14313SOL    HW143847   5.935   5.657   1.516 -0.8736  0.9843  1.4035
14313SOL    HW243848   5.887   5.514   1.505  0.7035  0.5570 -0.6674
14314SOL     OW43849   2.348   3.996   1.515 -0.1867 -0.5491  0.2033
14314SOL    HW143850   2.256   3.982   1.536 -0.5873  0.3366 -0.8687
14314SOL    HW243851   2.357   4.092   1.509  0.5124 -0.6621 -0.8989
14315SOL     OW43852   2.811   6.887   2.902 -0.1055 -0.4416 -0.3329
14315SOL    HW143853   2.734   6.831   2.902 -1.0435  0.7478  1.6158
14315SOL    HW243854   2.843   6.883   2.992  0.7567  0.8958 -0.5573
14316SOL     OW43855   2.499   3.257   2.300 -0.1971  0.4142 -0.0977
14316SOL    HW143856   2.563   3.255   2.372 -0.1047  0.2002 -0.1854
14316SOL    HW243857   2.551   3.279   2.223 -0.3236  0.8181 -0.0744
14317SOL     OW43858   6.981   5.484   7.004 -0.2230  0.0837  0.2015
14317SOL    HW143859   6.970   5.410   7.063  1.9304 -0.6663 -0.2586
14317SOL    HW243860   6.934   5.459   6.924 -0.7918 -0.0890  0.5820
14318SOL     OW43861   2.515   4.652   2.189 -0.0599  0.2134 -0.6573
14318SOL    HW143862   2.436   4.647   2.136 -0.6775  0.1091  0.2450
14318SOL    HW243863   2.567   4.577   2.162 -0.5671 -0.0902 -0.8044
14319SOL     OW43864   1.649   2.928   4.120 -0.6297  0.2716 -0.4126
14319SOL    HW143865   1.614   2.843   4.097  0.2016 -0.0451 -0.5348
14319SOL    HW243866   1.584   2.991   4.087 -0.7972 -0.2728 -1.1365
14320SOL     OW43867   5.458   2.118   7.104 -0.8659 -0.0031  0.3696
14320SOL    HW143868   5.392   2.157   7.161 -0.2434  0.0336  1.0804
14320SOL    HW243869   5.536   2.112   7.159 -0.3380 -0.2325 -0.3989
14321SOL     OW43870   7.459   6.944   5.845 -0.1870 -0.1378 -0.1112
14321SOL    HW143871   7.436   6.970   5.756  0.0093 -0.2805 -0.2046
14321SOL    HW243872   7.453   7.025   5.896 -0.8142 -0.1589 -0.1473
14322SOL     OW43873   4.092   2.118   4.106  0.6425  0.1452  0.5885
14322SOL    HW143874   4.057   2.172   4.035 -1.7366 -0.7211  1.0245
14322SOL    HW243875   4.187   2.124   4.096  0.4386  2.9742 -0.4229
14323SOL     OW43876   7.050   4.734   3.445  0.3779 -0.0164 -0.4295
14323SOL    HW143877   6.991   4.789   3.496  1.4991  0.7613  0.0408
14323SOL    HW243878   7.138   4.754   3.477  0.9487 -0.9312 -1.3294
14324SOL     OW43879   5.456   3.190   6.931 -0.1928 -0.1932 -0.2485
14324SOL    HW143880   5.440   3.200   6.837  0.4524 -2.3393 -0.6360
14324SOL    HW243881   5.536   3.137   6.936 -0.3675 -0.3461  1.5106
14325SOL     OW43882   2.659   0.206   3.146 -0.1875 -0.0765 -0.2935
14325SOL    HW143883   2.574   0.198   3.104 -0.1232  0.5377 -0.5497
14325SOL    HW243884   2.642   0.187   3.239 -0.4670 -0.6563 -0.4584
14326SOL     OW43885   2.929   6.236   1.668  0.0433  0.3381  0.5711
14326SOL    HW143886   2.938   6.248   1.573  1.6174  0.4878  0.7247
14326SOL    HW243887   2.863   6.167   1.677  2.3783 -2.2393 -0.7707
14327SOL     OW43888   2.655   1.732   1.129  0.2471 -0.1059  0.1607
14327SOL    HW143889   2.598   1.682   1.187 -0.2596  1.3140  0.9414
14327SOL    HW243890   2.732   1.677   1.116 -0.0443 -0.8342  1.4382
14328SOL     OW43891   4.892   1.632   2.408  0.0943 -0.1221 -0.4778
14328SOL    HW143892   4.957   1.565   2.388  0.4723 -0.7662  2.5114
14328SOL    HW243893   4.942   1.706   2.443 -0.5607  0.5796 -0.9756
14329SOL     OW43894   4.662   7.418   6.639 -0.4195 -0.3130 -0.0332
14329SOL    HW143895   4.619   7.459   6.564 -1.3676  0.6944  1.0150
14329SOL    HW243896   4.751   7.453   6.638 -0.2092 -0.8408 -1.0586
14330SOL     OW43897   1.646   4.794   4.810  0.6761 -0.1505  0.1799
14330SOL    HW143898   1.609   4.745   4.737  0.8966  0.0559 -0.0714
14330SOL    HW243899   1.574   4.850   4.841  0.3660 -0.7668  0.5908
14331SOL     OW43900   1.483   3.771   1.341 -0.2890  0.4013  0.8762
14331SOL    HW143901   1.458   3.828   1.268 -0.9799 -1.3876 -0.3510
14331SOL    HW243902   1.442   3.812   1.417  1.1961  2.8063  0.4708
14332SOL     OW43903   4.616   6.389   4.387  0.4474  0.5405  0.5193
14332SOL    HW143904   4.520   6.397   4.394  0.3704 -0.0028  0.1805
14332SOL    HW243905   4.642   6.465   4.336  0.0349  0.0312 -0.4918
14333SOL     OW43906   2.393   3.211   7.316 -0.2350  0.4307  0.1405
14333SOL    HW143907   2.428   3.211   7.227 -2.5324 -0.2150 -0.8498
14333SOL    HW243908   2.367   3.302   7.331  1.0240  0.7405  0.5656
14334SOL     OW43909   1.481   4.987   5.222 -0.6269  0.8150 -0.0813
14334SOL    HW143910   1.518   5.026   5.142 -0.1072  1.0682  0.2769
14334SOL    HW243911   1.494   5.054   5.289  0.9340 -0.2390  0.7139
14335SOL     OW43912   0.511   2.297   6.942 -0.0721  0.8849 -0.0655
14335SOL    HW143913   0.531   2.229   6.878  1.5736  0.5219  0.7638
14335SOL    HW243914   0.458   2.253   7.008  2.1648 -0.0868  1.2146
14336SOL     OW43915   0.481   0.288   1.198 -0.3570 -0.2199  0.5503
14336SOL    HW143916   0.538   0.363   1.186  1.1802 -1.2526  1.0301
14336SOL    HW243917   0.439   0.302   1.283 -0.9962  0.6461  0.1013
14337SOL     OW43918   5.600   6.025   3.887 -0.4099 -0.0897  0.3231
14337SOL    HW143919   5.628   6.063   3.970 -4.2179  0.8994  1.3384
14337SOL    HW243920   5.560   5.941   3.910  1.3557 -1.4049 -1.0300
14338SOL     OW43921   7.182   2.310   2.301 -0.2677  0.3177  0.0134
14338SOL    HW143922   7.156   2.342   2.388 -0.0837  0.7155 -0.0782
14338SOL    HW243923   7.105   2.325   2.246 -0.5128 -0.2565  0.1793
14339SOL     OW43924   5.470   5.880   0.244 -0.3692 -0.2707 -0.8123
14339SOL    HW143925   5.441   5.799   0.286 -0.1132  0.3225  0.5715
14339SOL    HW243926   5.389   5.927   0.225 -0.4684 -0.2689 -0.3932
14340SOL     OW43927   4.942   5.682   6.807  0.1088  0.0027 -0.3761
14340SOL    HW143928   5.011   5.742   6.834 -0.4002 -0.0509  1.1521
14340SOL    HW243929   4.947   5.681   6.712  1.4821  0.8504 -0.3446
14341SOL     OW43930   5.686   2.624   1.791  0.4067  0.2898 -0.1169
14341SOL    HW143931   5.669   2.545   1.842  0.6335 -0.2001 -0.7840
14341SOL    HW243932   5.770   2.608   1.748  0.5740  0.9950 -0.0747
14342SOL     OW43933   0.966   5.246   2.050 -0.2954 -0.6192  0.4101
14342SOL    HW143934   0.977   5.272   1.959 -0.0139 -1.1847  0.2726
14342SOL    HW243935   0.890   5.187   2.049  1.5533 -3.1996 -0.0451
14343SOL     OW43936   1.221   4.083   1.843 -0.1413  0.2940  0.5316
14343SOL    HW143937   1.312   4.097   1.814 -0.0519 -0.2970  0.5172
14343SOL    HW243938   1.178   4.045   1.767 -0.1254 -0.4441  0.8796
14344SOL     OW43939   2.732   2.792   6.902  0.3424 -0.3844 -0.5496
14344SOL    HW143940   2.700   2.703   6.886 -1.1677  0.1884 -0.8837
14344SOL    HW243941   2.662   2.849   6.868  1.3176  0.9291 -0.4262
14345SOL     OW43942   1.142   0.411   6.034  0.0293  0.3263  0.3434
14345SOL    HW143943   1.141   0.321   6.067 -0.2649  0.2756  0.1986
14345SOL    HW243944   1.050   0.431   6.018 -0.0123  1.0230  1.3733
14346SOL     OW43945   3.393   4.777   0.709  0.2658 -0.1264 -0.1162
14346SOL    HW143946   3.448   4.705   0.738  0.3714 -0.2575 -0.6261
14346SOL    HW243947   3.339   4.739   0.640 -0.1114  0.1272  0.0407
14347SOL     OW43948   3.277   2.718   1.647  0.2466  0.5533 -0.0986
14347SOL    HW143949   3.267   2.663   1.570 -2.0557 -0.0286  0.5302
14347SOL    HW243950   3.338   2.670   1.704 -1.4034 -1.2151  0.2637
14348SOL     OW43951   4.538   1.447   1.461 -0.4171  0.6865  0.0936
14348SOL    HW143952   4.606   1.397   1.506 -0.7469 -0.7179 -0.9093
14348SOL    HW243953   4.571   1.537   1.461  1.3469  0.0775 -0.1888
14349SOL     OW43954   0.554   0.727   1.819 -0.0264 -0.2477 -0.2993
14349SOL    HW143955   0.644   0.725   1.787  0.2112  2.2201  0.0411
14349SOL    HW243956   0.504   0.763   1.746 -0.0800  1.9508  0.7701
14350SOL     OW43957   7.682   5.091   7.518  0.6077 -0.8124  1.1172
14350SOL    HW143958   7.619   5.068   7.586 -0.3803 -0.4795  0.3434
14350SOL    HW243959   7.633   5.080   7.436  1.3619  0.0603  0.5340
14351SOL     OW43960   5.611   1.144   5.944 -0.7078  0.0299 -0.3062
14351SOL    HW143961   5.648   1.227   5.913  0.0112  0.7911  2.3578
14351SOL    HW243962   5.516   1.159   5.942 -0.6458  0.3951 -1.1220
14352SOL     OW43963   4.053   1.136   1.701 -0.1531  0.7054  0.3364
14352SOL    HW143964   4.054   1.042   1.719  1.2040  0.5903 -0.2443
14352SOL    HW243965   3.968   1.152   1.661  0.0783 -0.5033 -0.6873
14353SOL     OW43966   6.166   2.219   2.826  0.4165  0.1765  0.1704
14353SOL    HW143967   6.168   2.231   2.921 -0.5534 -0.3318  0.2765
14353SOL    HW243968   6.229   2.150   2.809  0.3595  0.0416  0.4929
14354SOL     OW43969   1.336   0.814   0.469  0.8302 -0.1199  0.1960
14354SOL    HW143970   1.243   0.815   0.487  0.6329 -1.7082 -0.4937
14354SOL    HW243971   1.344   0.852   0.381  0.5286 -1.9844 -0.6887
14355SOL     OW43972   7.094   2.883   1.378 -0.3509  0.1499  0.1516
14355SOL    HW143973   7.055   2.827   1.311 -0.0482 -0.6911  0.6591
14355SOL    HW243974   7.140   2.951   1.330  0.8197 -1.0867 -0.5242
14356SOL     OW43975   3.325   1.092   5.725  0.4743 -0.5466  0.1683
14356SOL    HW143976   3.286   1.108   5.811  0.6185 -0.8219  0.2872
14356SOL    HW243977   3.295   1.005   5.701 -1.3975  0.3865 -1.0730
14357SOL     OW43978   0.899   2.338   3.936  0.1790 -0.2673  0.1966
14357SOL    HW143979   0.957   2.277   3.892 -1.5286 -1.0747 -1.0302
14357SOL    HW243980   0.862   2.288   4.009 -0.7082 -0.5244 -0.4101
14358SOL     OW43981   3.076   7.281   3.196  1.0288 -0.6070 -0.1725
14358SOL    HW143982   3.004   7.238   3.149  0.8892 -0.4945 -0.0613
14358SOL    HW243983   3.058   7.264   3.288 -0.3300  1.6524  0.0616
14359SOL     OW43984   6.032   4.517   2.353  0.1730  0.5056  0.7924
14359SOL    HW143985   5.971   4.535   2.425 -0.8852  0.8421 -0.1676
14359SOL    HW243986   6.115   4.552   2.383 -0.0729 -0.0153  2.1589
14360SOL     OW43987   5.161   3.616   0.234 -0.3952 -0.4888  0.4412
14360SOL    HW143988   5.128   3.684   0.291 -1.2995 -1.7006  1.4211
14360SOL    HW243989   5.112   3.537   0.258  1.2223 -1.7170 -0.0210
14361SOL     OW43990   5.698   5.896   2.818  0.3280  0.4697 -0.2549
14361SOL    HW143991   5.622   5.840   2.804  0.9744 -0.2738 -0.9445
14361SOL    HW243992   5.769   5.835   2.839  0.6404  1.1817  0.8001
14362SOL     OW43993   1.265   0.201   2.547 -0.2780  0.2101 -0.4340
14362SOL    HW143994   1.236   0.213   2.457  1.7000 -0.4291 -1.2065
14362SOL    HW243995   1.321   0.277   2.565 -0.9131  0.5036  0.3863
14363SOL     OW43996   5.991   0.199   6.020 -0.1077  0.1826  0.0969
14363SOL    HW143997   6.039   0.117   6.027 -0.1658  0.0095 -1.2991
14363SOL    HW243998   6.055   0.262   5.987  0.1315  0.9106  1.8416
14364SOL     OW43999   5.886   0.882   5.738 -0.7175 -0.5745  0.3969
14364SOL    HW144000   5.915   0.960   5.785 -1.6665 -0.4676  0.8278
14364SOL    HW244001   5.792   0.897   5.723 -0.5057 -0.7467 -1.2549
14365SOL     OW44002   3.627   3.728   6.936 -0.0367 -0.1108  0.1571
14365SOL    HW144003   3.649   3.698   7.025 -0.6828  0.8400  0.6586
14365SOL    HW244004   3.691   3.796   6.918 -0.2871  0.1180  0.1362
14366SOL     OW44005   2.524   6.702   5.089  0.4206  0.0786 -0.4193
14366SOL    HW144006   2.496   6.612   5.105  1.5474  0.1498  2.7250
14366SOL    HW244007   2.550   6.704   4.997 -0.6706 -2.4819 -0.8559
14367SOL     OW44008   0.535   1.784   6.467  0.4450  0.1080  0.2856
14367SOL    HW144009   0.466   1.842   6.498  1.7603  1.4343  0.8374
14367SOL    HW244010   0.600   1.784   6.537  0.3405 -2.3758  0.4798
14368SOL     OW44011   0.338   6.461   6.155  0.1028  0.6644  0.1606
14368SOL    HW144012   0.398   6.446   6.083 -1.1701 -2.8116 -0.3887
14368SOL    HW244013   0.268   6.514   6.118  0.3373  0.3988 -0.6681
14369SOL     OW44014   3.323   7.591   5.615 -0.5272 -0.0371  0.9183
14369SOL    HW144015   3.409   7.568   5.580 -0.7004  1.3284 -0.5091
14369SOL    HW244016   3.338   7.601   5.709  0.9622  0.5285  0.6490
14370SOL     OW44017   7.376   6.084   4.090 -0.3415 -0.0997  0.0693
14370SOL    HW144018   7.286   6.059   4.069  0.1154 -1.5261 -0.3282
14370SOL    HW244019   7.412   6.118   4.008 -0.2364 -0.4413 -0.0291
14371SOL     OW44020   3.872   1.276   0.856  0.1329  0.1950 -0.1141
14371SOL    HW144021   3.918   1.210   0.803 -0.8058 -1.2392  0.7839
14371SOL    HW244022   3.942   1.334   0.887  0.7513  0.9165 -2.5974
14372SOL     OW44023   7.514   6.062   5.295 -0.0850 -0.3128 -0.1243
14372SOL    HW144024   7.605   6.048   5.268  0.0806  0.3718  0.0501
14372SOL    HW244025   7.496   6.153   5.270 -0.4849 -0.2179  0.4959
14373SOL     OW44026   2.674   6.811   7.625 -0.4968  0.5559  0.0105
14373SOL    HW144027   2.659   6.812   7.531  1.1646  1.4704 -0.2817
14373SOL    HW244028   2.671   6.902   7.652  0.2805  0.4207  0.6084
14374SOL     OW44029   7.056   3.221   7.488 -0.1502  0.0809  0.0082
14374SOL    HW144030   7.011   3.209   7.405 -0.1791 -0.7101  0.1297
14374SOL    HW244031   7.056   3.315   7.503  0.5374  0.2998 -1.2620
14375SOL     OW44032   3.076   7.210   0.167 -0.2723 -0.9010  0.7429
14375SOL    HW144033   3.057   7.208   0.261 -1.1046 -0.8802  0.5816
14375SOL    HW244034   3.023   7.141   0.130 -0.9560 -0.0586  0.1141
14376SOL     OW44035   5.273   0.990   1.196 -0.5102  0.4993  0.3659
14376SOL    HW144036   5.236   0.995   1.284 -0.1697  0.4909  0.5085
14376SOL    HW244037   5.290   1.081   1.171 -0.4489  0.4898  0.3736
14377SOL     OW44038   1.548   7.441   4.130 -0.0809 -0.4196 -0.0960
14377SOL    HW144039   1.588   7.365   4.172 -1.1040 -1.2096 -0.4832
14377SOL    HW244040   1.499   7.484   4.199  0.2815 -0.2659  0.0663
14378SOL     OW44041   3.760   0.532   1.543  0.2748  0.7990  0.8522
14378SOL    HW144042   3.718   0.594   1.484  2.0771  0.4081 -0.9785
14378SOL    HW244043   3.688   0.486   1.586 -1.1056  1.7593 -0.3461
14379SOL     OW44044   5.541   5.276   4.194 -0.2462 -0.1509 -0.1450
14379SOL    HW144045   5.577   5.248   4.278 -1.1068 -0.5084  0.1134
14379SOL    HW244046   5.556   5.371   4.192 -1.5814  0.1228  1.1134
14380SOL     OW44047   6.884   0.825   5.723 -0.3050  0.0796 -0.2093
14380SOL    HW144048   6.949   0.857   5.786 -1.4710 -1.0256  1.6462
14380SOL    HW244049   6.804   0.871   5.745 -0.6836 -0.1424 -1.0828
14381SOL     OW44050   0.091   5.017   1.969  0.0791  0.4147 -0.3321
14381SOL    HW144051   0.034   4.970   1.909  1.1795 -1.0084 -0.3474
14381SOL    HW244052   0.051   5.102   1.980 -0.7805  0.2876 -2.1482
14382SOL     OW44053   0.821   5.964   6.080 -0.1100 -0.2466  0.0316
14382SOL    HW144054   0.780   6.050   6.088 -1.5625 -0.7899 -1.1497
14382SOL    HW244055   0.749   5.902   6.086  0.6885 -1.3085 -0.9476
14383SOL     OW44056   2.602   3.559   5.617  0.0459 -0.3358 -0.2687
14383SOL    HW144057   2.683   3.508   5.616  1.0130  1.1183 -1.7450
14383SOL    HW244058   2.533   3.496   5.596  0.7888 -1.5758  0.9055
14384SOL     OW44059   2.340   5.909   3.474 -0.2204  0.2924 -0.3445
14384SOL    HW144060   2.295   5.979   3.427 -1.2802  0.3217  0.6630
14384SOL    HW244061   2.433   5.934   3.471 -0.1735  0.0747 -2.7092
14385SOL     OW44062   4.138   4.912   3.338 -0.2546 -0.3158 -0.2391
14385SOL    HW144063   4.123   4.968   3.262 -0.7689  0.2792  0.2912
14385SOL    HW244064   4.133   4.823   3.303 -0.0034 -0.0390 -0.9856
14386SOL     OW44065   3.751   4.322   2.309  0.0667  0.0812 -0.4270
14386SOL    HW144066   3.819   4.255   2.311  0.5805  0.5871 -0.5319
14386SOL    HW244067   3.685   4.288   2.248  1.7927  0.9975 -3.0157
14387SOL     OW44068   2.005   6.926   5.610  0.0664 -0.4808  0.1177
14387SOL    HW144069   1.975   6.953   5.697  2.2664 -1.5577  1.2774
14387SOL    HW244070   2.081   6.981   5.593 -0.4354 -0.1705 -1.2396
14388SOL     OW44071   6.272   0.844   5.162  0.0945  0.0439  0.1763
14388SOL    HW144072   6.362   0.849   5.129 -0.1884 -3.1070 -1.4058
14388SOL    HW244073   6.253   0.751   5.166 -2.7236  0.5849  1.6801
14389SOL     OW44074   4.812   5.147   0.026  0.0148  0.5166  0.0282
14389SOL    HW144075   4.891   5.098   0.003 -0.6385 -0.6676  0.2073
14389SOL    HW244076   4.797   5.126   0.118 -0.4734  0.7687  0.0077
14390SOL     OW44077   6.272   3.147   4.343 -0.5353 -0.3735  0.4879
14390SOL    HW144078   6.337   3.110   4.284  0.6142  1.8392  0.2547
14390SOL    HW244079   6.211   3.193   4.286 -0.1508  0.6952  0.9203
14391SOL     OW44080   2.760   6.070   6.264 -0.4153  0.0691  0.0547
14391SOL    HW144081   2.811   6.002   6.222 -1.8406 -0.9806 -0.0185
14391SOL    HW244082   2.755   6.043   6.356  0.3657  0.9409  0.3825
14392SOL     OW44083   4.583   3.470   3.498 -0.5196  0.1066 -0.5909
14392SOL    HW144084   4.553   3.555   3.464 -1.2398 -0.4366 -1.3537
14392SOL    HW244085   4.602   3.418   3.421 -0.4282 -0.5482 -0.1371
14393SOL     OW44086   6.947   6.334   5.079  0.2762  0.0368  0.0617
14393SOL    HW144087   6.881   6.396   5.046 -0.4953 -0.1655  1.1537
14393SOL    HW244088   6.945   6.262   5.016 -0.6352 -0.0161  0.1369
14394SOL     OW44089   5.403   1.051   3.790  0.1327 -1.1978 -0.2312
14394SOL    HW144090   5.447   0.975   3.827  2.1870  0.7119  1.6287
14394SOL    HW244091   5.469   1.092   3.734 -0.7757 -0.5383 -0.8536
14395SOL     OW44092   3.545   6.994   4.007  0.2896 -0.1080  0.4002
14395SOL    HW144093   3.591   7.079   4.007 -1.8358  1.1180 -0.6394
14395SOL    HW244094   3.539   6.971   4.100 -0.8675  1.9630  0.9187
14396SOL     OW44095   7.225   3.311   7.746  0.4332  0.0785  0.2253
14396SOL    HW144096   7.199   3.307   7.654 -0.6410  1.0026  0.4698
14396SOL    HW244097   7.301   3.370   7.747 -0.8947  1.8633  0.1757
14397SOL     OW44098   4.393   6.420   1.289 -0.6101 -0.0331  0.2081
14397SOL    HW144099   4.318   6.472   1.321 -0.4746 -0.0264  0.5171
14397SOL    HW244100   4.455   6.421   1.361 -1.0745 -1.5925  0.6706
14398SOL     OW44101   6.192   6.759   3.656  0.3820  0.3423  0.0363
14398SOL    HW144102   6.127   6.709   3.607  1.0706  1.4418 -2.1107
14398SOL    HW244103   6.269   6.761   3.599  1.5011  1.0370  1.5121
14399SOL     OW44104   0.239   7.270   6.424 -0.3092  0.2328  1.1667
14399SOL    HW144105   0.198   7.205   6.482  0.3134 -1.0462  0.2433
14399SOL    HW244106   0.332   7.247   6.426 -0.2038  0.5353  0.1310
14400SOL     OW44107   1.580   5.621   0.511  0.0849  0.2195  0.3512
14400SOL    HW144108   1.488   5.647   0.498  0.5349  1.5706 -0.3795
14400SOL    HW244109   1.593   5.629   0.605 -0.4860  0.2526  0.4347
14401SOL     OW44110   4.952   0.977   6.955 -0.0503 -0.5378  0.1291
14401SOL    HW144111   4.979   1.003   7.043  1.2123 -1.2734 -0.0184
14401SOL    HW244112   5.000   1.035   6.897  0.8309 -1.4762 -0.1183
14402SOL     OW44113   7.342   4.081   2.742  0.2934  0.0730 -0.0936
14402SOL    HW144114   7.364   4.159   2.792  1.2047  0.4640 -1.0763
14402SOL    HW244115   7.250   4.094   2.716  0.5084  0.9464 -0.4566
14403SOL     OW44116   5.764   1.478   4.382  0.0827  0.0557  0.0011
14403SOL    HW144117   5.813   1.489   4.301  4.0145 -0.8179  2.0412
14403SOL    HW244118   5.763   1.564   4.423 -0.1606  0.0859 -0.0660
14404SOL     OW44119   4.599   5.432   5.088  0.0563 -0.0349 -0.1959
14404SOL    HW144120   4.687   5.469   5.096 -0.1625  0.4309  0.0970
14404SOL    HW244121   4.579   5.398   5.175 -0.0012 -0.2633 -0.2969
14405SOL     OW44122   4.512   7.725   5.335  0.3801 -0.0641  0.1177
14405SOL    HW144123   4.473   7.713   5.248  0.3187  1.5145 -0.0965
14405SOL    HW244124   4.566   7.647   5.348 -0.5720 -0.9047 -0.8150
14406SOL     OW44125   2.971   0.659   7.106 -0.1999 -0.0072  0.4007
14406SOL    HW144126   2.919   0.651   7.026 -1.0717 -0.9867  1.0417
14406SOL    HW244127   3.016   0.574   7.114  0.2732  0.2673  0.6860
14407SOL     OW44128   1.164   5.758   5.606  0.6325  0.6261 -0.2207
14407SOL    HW144129   1.142   5.750   5.513 -1.6305  0.0906  0.3000
14407SOL    HW244130   1.138   5.847   5.630 -0.3136  0.2286  0.2543
14408SOL     OW44131   6.728   2.706   4.209 -0.2229  0.0918 -0.0022
14408SOL    HW144132   6.822   2.720   4.199 -0.0831 -1.2447 -0.8571
14408SOL    HW244133   6.694   2.790   4.239  1.2526  0.5639  0.4176
14409SOL     OW44134   5.646   2.903   1.893  0.2356 -0.7658  0.3602
14409SOL    HW144135   5.632   2.860   1.977  1.6582 -2.2895 -0.1343
14409SOL    HW244136   5.644   2.832   1.829 -0.1894  0.2900 -0.8347
14410SOL     OW44137   3.601   0.077   6.928  0.2329 -0.1663 -0.8065
14410SOL    HW144138   3.675   0.027   6.961  0.3646  0.5875  0.1054
14410SOL    HW244139   3.554   0.104   7.007  1.5405  3.2356 -0.9904
14411SOL     OW44140   1.748   0.014   2.071  0.3849 -0.0184  0.1152
14411SOL    HW144141   1.768  -0.064   2.020  1.5454 -1.0798  2.0927
14411SOL    HW244142   1.789   0.086   2.023 -0.2397 -0.6507 -1.4397
14412SOL     OW44143   1.060   6.283   6.445  0.1491  0.2118  0.0545
14412SOL    HW144144   1.004   6.354   6.413  0.3519 -0.4584 -1.9680
14412SOL    HW244145   1.146   6.302   6.408  0.6412 -0.1479  0.9852
14413SOL     OW44146   1.792   3.267   3.422  0.5226  0.5550  0.0652
14413SOL    HW144147   1.813   3.174   3.410  0.1982  0.6922 -1.7719
14413SOL    HW244148   1.869   3.313   3.388  1.0292  1.0001  1.6907
14414SOL     OW44149   4.855   0.926   0.023 -0.3690  0.4094  0.1489
14414SOL    HW144150   4.781   0.865   0.024 -0.7684  0.7707 -2.0484
14414SOL    HW244151   4.932   0.871   0.015 -0.4387  0.0682  1.6071
14415SOL     OW44152   0.777   1.184   5.793  0.2874 -0.0885 -0.3528
14415SOL    HW144153   0.789   1.271   5.830  1.0162  0.0403 -0.8795
14415SOL    HW244154   0.703   1.148   5.842  0.7582  0.3493  0.7124
14416SOL     OW44155   5.939   1.234   7.726 -0.1910  0.5140  0.0769
14416SOL    HW144156   5.973   1.146   7.708  0.8467  0.8810  0.1468
14416SOL    HW244157   5.847   1.221   7.746 -0.4284 -0.3925 -1.4309
14417SOL     OW44158   5.100   0.620   5.426  1.2376  0.0449 -0.4351
14417SOL    HW144159   5.138   0.684   5.486  0.3400 -0.9843  1.3339
14417SOL    HW244160   5.175   0.579   5.383  2.1084 -0.6354  1.5830
14418SOL     OW44161   7.644   3.240   0.245 -0.7933  0.1098  0.1180
14418SOL    HW144162   7.583   3.313   0.236 -2.6605 -1.4168 -0.3434
14418SOL    HW244163   7.667   3.216   0.156 -2.0908 -1.3206  0.1246
14419SOL     OW44164   1.706   3.450   2.515 -0.5932  0.1136  0.3520
14419SOL    HW144165   1.712   3.543   2.539 -1.5442  0.1698  0.4113
14419SOL    HW244166   1.768   3.406   2.572 -0.0268  0.7295  0.2260
14420SOL     OW44167   6.015   2.279   1.852  0.0527 -0.0397 -0.4044
14420SOL    HW144168   6.103   2.241   1.860 -0.0731 -0.1245  0.7220
14420SOL    HW244169   5.970   2.221   1.791  0.6760 -0.1832 -0.7401
14421SOL     OW44170   6.707   3.812   7.674 -0.2668 -0.5985  0.2140
14421SOL    HW144171   6.640   3.777   7.733 -0.4040 -0.5824  0.0676
14421SOL    HW244172   6.786   3.815   7.728 -0.6859  0.6525  0.7973
14422SOL     OW44173   5.254   2.553   5.400 -0.6729  0.0032  0.3405
14422SOL    HW144174   5.233   2.493   5.471  0.2244 -1.0138 -0.2189
14422SOL    HW244175   5.294   2.497   5.333 -1.1351  0.9975 -0.7956
14423SOL     OW44176   0.608   2.857   4.033 -0.1096  0.0746  0.1516
14423SOL    HW144177   0.667   2.856   4.108 -1.3882  2.0543  1.2632
14423SOL    HW244178   0.529   2.812   4.064  0.3109 -1.5271 -0.9489
14424SOL     OW44179   0.521   5.897   0.252  0.3335 -0.1280 -0.0264
14424SOL    HW144180   0.609   5.861   0.238  1.3893  1.7256  1.3260
14424SOL    HW244181   0.536   5.977   0.304 -2.1185  0.5163 -0.1900
14425SOL     OW44182   3.916   0.311   6.801 -0.9200  0.2889 -0.1078
14425SOL    HW144183   3.995   0.348   6.840  0.5031 -0.9424 -1.6579
14425SOL    HW244184   3.901   0.230   6.849 -2.2702  1.3058  1.2824
14426SOL     OW44185   1.876   3.804   6.799 -0.1199  0.1582  0.1181
14426SOL    HW144186   1.800   3.841   6.843  0.6971  0.0476  1.7233
14426SOL    HW244187   1.879   3.713   6.828 -0.0026 -0.1383 -0.8067
14427SOL     OW44188   7.505   4.727   4.943 -0.0529  0.4034  0.0183
14427SOL    HW144189   7.476   4.763   4.859 -1.2827 -0.0019  0.2485
14427SOL    HW244190   7.595   4.698   4.927 -0.2275  0.4423 -1.1248
14428SOL     OW44191   1.293   6.665   5.340  0.2612 -0.3509  0.4575
14428SOL    HW144192   1.381   6.695   5.315 -0.2569  1.1057  0.2758
14428SOL    HW244193   1.297   6.658   5.436  0.4579  0.1805  0.4970
14429SOL     OW44194   2.633   0.734   2.809  0.1145 -0.0964 -0.4687
14429SOL    HW144195   2.657   0.647   2.840 -1.3277 -0.8268 -1.3374
14429SOL    HW244196   2.638   0.728   2.714 -0.6636  0.5776 -0.5621
14430SOL     OW44197   3.547   5.248   2.359  0.2560  0.0043  0.7011
14430SOL    HW144198   3.566   5.165   2.316  0.4487  1.1401 -1.5718
14430SOL    HW244199   3.454   5.243   2.382 -0.2253 -0.1757 -1.1229
14431SOL     OW44200   7.718   0.480   5.010 -0.5141 -0.6203 -0.1138
14431SOL    HW144201   7.783   0.458   4.943 -1.2820  1.5190 -1.6687
14431SOL    HW244202   7.648   0.416   4.999  0.8002 -2.3270  0.9178
14432SOL     OW44203   5.372   1.643   7.325 -0.0378  0.4083 -0.1805
14432SOL    HW144204   5.355   1.720   7.271  0.8623  1.3636  0.8466
14432SOL    HW244205   5.461   1.616   7.302 -0.9729 -1.4775 -1.8544
14433SOL     OW44206   0.698   5.469   3.459 -0.2837  0.4820 -0.3953
14433SOL    HW144207   0.751   5.523   3.518 -0.0827  0.1616 -0.2804
14433SOL    HW244208   0.734   5.487   3.372  1.0223 -0.8549 -0.1772
14434SOL     OW44209   0.751   6.065   1.244 -0.0742 -0.6191  0.2082
14434SOL    HW144210   0.836   6.070   1.288  0.4467 -0.2047 -0.8030
14434SOL    HW244211   0.773   6.044   1.153 -0.9428  0.9390 -0.3936
14435SOL     OW44212   7.385   2.147   0.201 -0.4130 -0.6973 -0.1235
14435SOL    HW144213   7.325   2.218   0.225 -0.7291 -1.0890  0.2480
14435SOL    HW244214   7.370   2.133   0.108  1.3252  1.3234 -0.8024
14436SOL     OW44215   2.566   3.642   4.231  0.2217  0.4849 -0.0310
14436SOL    HW144216   2.631   3.712   4.232 -1.2635  1.9615 -1.2825
14436SOL    HW244217   2.545   3.630   4.138 -0.5205 -0.7129  0.2628
14437SOL     OW44218   3.471   1.742   0.096  0.3234  0.5529 -0.1550
14437SOL    HW144219   3.399   1.680   0.097 -0.0318  0.9694  0.9170
14437SOL    HW244220   3.535   1.705   0.157  0.5262  0.7658 -0.2378
14438SOL     OW44221   4.734   0.186   7.300  0.1001 -0.4862 -0.2751
14438SOL    HW144222   4.696   0.148   7.379 -0.0145  0.7213  0.2761
14438SOL    HW244223   4.827   0.164   7.305  0.0071 -0.8370 -0.0594
14439SOL     OW44224   1.017   3.732   7.316  0.0152 -0.0892 -0.4937
14439SOL    HW144225   1.030   3.753   7.224  0.6705 -1.0683 -0.6361
14439SOL    HW244226   1.080   3.662   7.334 -2.1997 -2.1490 -0.1457
14440SOL     OW44227   2.911   0.635   4.991  0.0795 -0.4034 -0.4593
14440SOL    HW144228   2.845   0.703   4.974  0.9259  0.0333 -2.2411
14440SOL    HW244229   2.990   0.684   5.016  0.4183 -0.7741 -0.7856
14441SOL     OW44230   1.440   6.280   0.639  0.6657 -0.2884 -0.0796
14441SOL    HW144231   1.499   6.355   0.640  0.9912 -0.5397  0.8141
14441SOL    HW244232   1.484   6.215   0.584  0.4250  0.1361 -0.7796
14442SOL     OW44233   0.280   3.461   7.049  0.7878 -0.9196  0.1083
14442SOL    HW144234   0.292   3.556   7.049 -0.2541 -0.7211  2.2239
14442SOL    HW244235   0.259   3.440   6.958 -0.3228  1.0982 -0.1753
14443SOL     OW44236   1.315   6.074   5.326 -0.3646 -0.2138  0.0424
14443SOL    HW144237   1.246   6.133   5.297 -0.5143 -0.1537  0.5181
14443SOL    HW244238   1.333   6.100   5.416  0.7398  0.2079 -0.2834
14444SOL     OW44239   7.293   6.630   4.012 -0.6661 -0.5079 -0.0412
14444SOL    HW144240   7.366   6.573   4.035 -1.3516 -1.0055  0.9575
14444SOL    HW244241   7.322   6.675   3.932  0.6819 -0.7639  0.2793
14445SOL     OW44242   0.434   6.234   6.873 -0.8284 -0.6890  0.4029
14445SOL    HW144243   0.375   6.182   6.928 -2.3084 -0.7610 -1.1765
14445SOL    HW244244   0.392   6.319   6.866  0.3296 -0.0426  0.9159
14446SOL     OW44245   1.230   1.478   3.176  0.4531 -0.1682  0.5392
14446SOL    HW144246   1.302   1.429   3.137 -0.1414  0.3891 -1.4292
14446SOL    HW244247   1.220   1.442   3.264  1.5556 -1.9151 -0.0023
14447SOL     OW44248   6.474   1.728   6.266  0.1519  0.0699 -0.2032
14447SOL    HW144249   6.420   1.660   6.227  2.4963 -1.4592 -0.9655
14447SOL    HW244250   6.498   1.693   6.352 -2.5073  2.1205  1.5542
14448SOL     OW44251   6.721   3.895   0.643 -0.4140  0.0140 -0.6404
14448SOL    HW144252   6.643   3.927   0.688 -0.5247 -0.4405 -0.5026
14448SOL    HW244253   6.739   3.961   0.576 -1.0233  0.0319 -0.7916
14449SOL     OW44254   5.763   5.754   6.354  0.1947  0.2115  0.1425
14449SOL    HW144255   5.742   5.663   6.377 -0.4655  0.5278  0.7989
14449SOL    HW244256   5.682   5.789   6.318  0.7189  0.2619 -1.0702
14450SOL     OW44257   7.317   5.165   0.321 -0.2677  0.1860  0.1154
14450SOL    HW144258   7.297   5.229   0.390 -0.6639  0.5825 -0.3567
14450SOL    HW244259   7.377   5.211   0.262 -1.9385  0.7916 -1.2028
14451SOL     OW44260   3.144   2.000   7.488  0.2571  0.3949 -0.2780
14451SOL    HW144261   3.190   1.916   7.488  0.3368  0.4000  1.3671
14451SOL    HW244262   3.139   2.025   7.396  2.4433 -0.2017 -0.6232
14452SOL     OW44263   0.386   7.048   6.859 -0.1117 -0.1200  0.0476
14452SOL    HW144264   0.326   7.090   6.921 -0.8497  0.6552 -1.1435
14452SOL    HW244265   0.375   7.098   6.778  1.3358 -0.6712 -0.5149
14453SOL     OW44266   1.326   5.869   1.300 -0.5362 -0.2331 -0.4668
14453SOL    HW144267   1.420   5.861   1.314 -0.0549  2.1275 -1.8585
14453SOL    HW244268   1.287   5.841   1.383  1.4718  0.5495  0.8153
14454SOL     OW44269   6.100   4.765   1.802  0.4892 -0.2770 -0.0810
14454SOL    HW144270   6.104   4.682   1.754 -0.1103 -0.0550 -0.5326
14454SOL    HW244271   6.042   4.820   1.750  3.1413  1.4941 -1.3823
14455SOL     OW44272   3.421   1.290   5.306  0.1323 -0.2430 -0.0467
14455SOL    HW144273   3.389   1.308   5.395  0.1624 -1.3864  0.2027
14455SOL    HW244274   3.349   1.317   5.249 -0.0650  0.0799  0.3427
14456SOL     OW44275   2.572   5.438   2.250 -0.2548  0.0725  0.8003
14456SOL    HW144276   2.630   5.370   2.284  0.7269 -0.9489 -2.5425
14456SOL    HW244277   2.503   5.389   2.205 -0.4777  1.3026 -0.2278
14457SOL     OW44278   6.645   1.952   2.163  0.4924  0.6608  0.2023
14457SOL    HW144279   6.673   2.042   2.177 -1.3767  1.3447 -0.1435
14457SOL    HW244280   6.695   1.923   2.087  2.0645  0.9428  1.0997
14458SOL     OW44281   7.146   6.913   3.217 -0.1127  0.3844  0.1495
14458SOL    HW144282   7.157   7.004   3.188  0.1570  1.0995  2.2694
14458SOL    HW244283   7.161   6.917   3.312 -0.2461 -1.8663  0.3087
14459SOL     OW44284   7.671   4.318   6.347 -0.0255  0.4017  0.2886
14459SOL    HW144285   7.692   4.320   6.254 -1.1989  0.6011  0.0051
14459SOL    HW244286   7.636   4.230   6.361 -1.6736  0.9824  0.0805
14460SOL     OW44287   3.405   1.949   0.583  1.2162 -0.1702 -1.0311
14460SOL    HW144288   3.367   2.006   0.516 -0.6752 -0.1798 -0.0346
14460SOL    HW244289   3.409   2.004   0.661 -2.4517 -1.7308  0.5041
14461SOL     OW44290   1.940   4.620   3.091 -0.3357  0.0543 -0.5405
14461SOL    HW144291   2.021   4.581   3.059 -0.3437 -0.6931  0.3065
14461SOL    HW244292   1.884   4.545   3.111 -0.5717  0.5081  0.5726
14462SOL     OW44293   1.809   4.846   0.804 -0.3227  0.3210  0.6082
14462SOL    HW144294   1.791   4.935   0.773  1.5079 -0.0668 -1.8195
14462SOL    HW244295   1.734   4.795   0.774  0.3624  0.3927 -1.3489
14463SOL     OW44296   0.332   6.742   1.159  0.0030 -0.6869 -0.2678
14463SOL    HW144297   0.318   6.714   1.069 -0.9372  0.1343 -0.3969
14463SOL    HW244298   0.300   6.669   1.212 -2.9956  0.2378 -0.5837
14464SOL     OW44299   5.158   6.509   6.460 -0.0853  0.2366  0.0858
14464SOL    HW144300   5.108   6.584   6.489 -1.2071 -1.1270  1.8893
14464SOL    HW244301   5.112   6.478   6.382 -1.1115 -0.0097  0.7678
14465SOL     OW44302   1.121   4.360   5.407  0.0802 -0.0355  0.6615
14465SOL    HW144303   1.087   4.434   5.357 -0.1968  0.0257  0.9398
14465SOL    HW244304   1.199   4.394   5.450 -0.2528  0.1979  1.0811
14466SOL     OW44305   4.417   5.450   4.702 -0.1610  0.0782 -0.4368
14466SOL    HW144306   4.435   5.533   4.658 -1.3381  0.5381 -0.0914
14466SOL    HW244307   4.375   5.476   4.784 -1.6007 -0.8815 -0.8418
14467SOL     OW44308   6.783   4.330   6.368  0.6328  0.5860  0.2621
14467SOL    HW144309   6.842   4.332   6.293  2.1151 -0.8536  1.3043
14467SOL    HW244310   6.724   4.257   6.351  0.3118  0.8982  0.0358
14468SOL     OW44311   5.283   4.021   4.745  0.2560  0.1595 -0.6227
14468SOL    HW144312   5.336   4.100   4.734 -0.4905  0.8797  0.7661
14468SOL    HW244313   5.193   4.052   4.740 -0.0590 -0.4029  1.0928
14469SOL     OW44314   7.363   0.032   6.245  0.0396 -0.5127  0.3872
14469SOL    HW144315   7.274  -0.003   6.251 -1.0545  2.1795  1.5694
14469SOL    HW244316   7.401   0.016   6.331  0.5905 -1.2717  0.0193
14470SOL     OW44317   1.924   4.263   2.607 -0.3293  0.0174 -0.3293
14470SOL    HW144318   1.846   4.295   2.562  0.2018  1.9886  0.0626
14470SOL    HW244319   1.976   4.222   2.538 -1.7324 -1.4410 -0.5724
14471SOL     OW44320   4.608   0.022   2.307 -0.3274  0.2839  0.4415
14471SOL    HW144321   4.622   0.117   2.309  1.0584  0.1468 -1.1702
14471SOL    HW244322   4.654  -0.010   2.385  1.7909  0.6671 -0.5932
14472SOL     OW44323   1.579   6.506   0.395 -0.0797 -0.2160  0.3629
14472SOL    HW144324   1.628   6.458   0.462 -0.0560 -0.0259  0.4821
14472SOL    HW244325   1.630   6.586   0.380 -0.7617  0.3747  1.0761
14473SOL     OW44326   4.408   5.659   3.082  0.2873 -0.1934 -0.1113
14473SOL    HW144327   4.450   5.704   3.156 -1.0962  1.3279 -0.1928
14473SOL    HW244328   4.329   5.620   3.120 -0.1986  0.2135 -0.6886
14474SOL     OW44329   6.471   3.668   7.140 -0.0206 -0.4222 -0.0488
14474SOL    HW144330   6.523   3.647   7.217  0.0354 -0.1981 -0.0253
14474SOL    HW244331   6.414   3.740   7.167 -0.1559 -0.4894 -0.1516
14475SOL     OW44332   6.761   1.786   1.558 -0.1067 -0.3073 -0.6068
14475SOL    HW144333   6.807   1.776   1.475  3.0020  1.1446  0.7790
14475SOL    HW244334   6.777   1.877   1.583 -1.8044 -0.4220  1.1355
14476SOL     OW44335   5.899   3.530   7.098 -0.1147 -0.2464 -0.2718
14476SOL    HW144336   5.952   3.583   7.157 -0.2218  0.4278 -0.7700
14476SOL    HW244337   5.960   3.502   7.030  0.1245 -1.4395  0.4022
14477SOL     OW44338   4.005   1.814   4.398 -0.7921  0.1081 -0.5611
14477SOL    HW144339   4.091   1.849   4.422 -1.3744  0.6559  0.8786
14477SOL    HW244340   4.008   1.723   4.426  1.0038 -1.5009 -5.0141
14478SOL     OW44341   6.249   1.841   4.640  0.1238  0.5327 -0.6512
14478SOL    HW144342   6.305   1.787   4.585  0.1554  0.4087 -0.4967
14478SOL    HW244343   6.242   1.924   4.593 -0.4825  0.1683 -1.2261
14479SOL     OW44344   3.579   7.088   1.624 -0.1534 -0.6222 -0.0693
14479SOL    HW144345   3.629   7.163   1.593 -2.0528  0.4132 -0.8239
14479SOL    HW244346   3.586   7.024   1.553  1.3562 -1.1492  0.5160
14480SOL     OW44347   3.562   5.243   3.042 -0.0029 -0.3069 -0.4784
14480SOL    HW144348   3.614   5.292   2.979 -0.7913 -1.0943 -1.7964
14480SOL    HW244349   3.598   5.155   3.041 -0.0128 -0.3295  0.2059
14481SOL     OW44350   1.847   6.086   0.348 -0.5058 -0.2953 -0.2915
14481SOL    HW144351   1.880   6.171   0.318 -0.8596 -0.2721 -0.6268
14481SOL    HW244352   1.765   6.075   0.301 -0.7195 -0.5875  0.1496
14482SOL     OW44353   0.542   5.974   6.896  0.2191 -0.6736  0.2807
14482SOL    HW144354   0.560   6.059   6.936 -1.9852 -0.1498  0.3143
14482SOL    HW244355   0.548   5.990   6.802  1.3531 -0.8956  0.3017
14483SOL     OW44356   3.539   3.850   7.731  0.1401 -0.2063  0.3650
14483SOL    HW144357   3.513   3.912   7.799 -0.7165 -0.2961  0.1316
14483SOL    HW244358   3.592   3.901   7.671 -1.1997  0.5316 -0.2444
14484SOL     OW44359   2.679   1.164   4.153 -0.3756  0.1765 -0.6474
14484SOL    HW144360   2.683   1.075   4.117  0.1330 -0.6287  1.2552
14484SOL    HW244361   2.633   1.153   4.237 -2.0139  2.0360 -1.2181
14485SOL     OW44362   3.263   7.152   4.051 -0.6521 -0.1556  0.2946
14485SOL    HW144363   3.318   7.087   4.007 -0.6358  0.2219 -0.2536
14485SOL    HW244364   3.210   7.190   3.981  0.9073  2.0141  0.1697
14486SOL     OW44365   4.495   1.616   6.443 -0.2056  0.2888  0.3350
14486SOL    HW144366   4.502   1.565   6.523 -1.0981 -2.6512 -1.3249
14486SOL    HW244367   4.401   1.637   6.436 -0.0820  0.8136  0.2199
14487SOL     OW44368   3.536   2.585   4.965 -0.5148 -0.3239 -0.2120
14487SOL    HW144369   3.551   2.496   4.994 -0.1001  0.0433  0.7357
14487SOL    HW244370   3.450   2.582   4.922 -1.5516 -0.7659  1.7465
14488SOL     OW44371   3.972   3.276   2.064 -0.0639 -0.1173  0.0579
14488SOL    HW144372   4.023   3.199   2.040  1.1543  0.3589  0.9802
14488SOL    HW244373   3.886   3.261   2.025  0.9667 -0.6037 -2.2506
14489SOL     OW44374   3.913   3.257   4.844  0.3872 -0.1721  0.1021
14489SOL    HW144375   3.863   3.338   4.855  0.7966 -0.0515  1.1728
14489SOL    HW244376   3.971   3.275   4.770  0.9908  0.7870  0.7899
14490SOL     OW44377   5.542   6.941   5.396 -0.5971 -0.0421 -0.5481
14490SOL    HW144378   5.637   6.939   5.409 -0.7542 -0.4853  0.6867
14490SOL    HW244379   5.506   6.913   5.480 -1.8115 -0.5626 -1.2204
14491SOL     OW44380   6.211   0.318   4.197  0.2875 -0.0202 -0.5313
14491SOL    HW144381   6.168   0.358   4.122  0.5764 -1.1307 -1.3218
14491SOL    HW244382   6.267   0.250   4.159  0.4499 -0.5978  0.6829
14492SOL     OW44383   3.128   5.610   4.643  0.0979  0.4814  0.1454
14492SOL    HW144384   3.139   5.543   4.711 -0.0280  2.2273  1.9751
14492SOL    HW244385   3.215   5.621   4.606  0.1641 -0.5159 -0.0332
14493SOL     OW44386   2.926   4.151   6.657  0.0198  0.0413 -0.7213
14493SOL    HW144387   2.845   4.197   6.678  1.1227  2.4772 -1.4401
14493SOL    HW244388   2.942   4.094   6.732 -0.4516  2.2885  1.1796
14494SOL     OW44389   2.461   7.706   3.714  0.3409 -0.2286  0.1301
14494SOL    HW144390   2.466   7.628   3.769 -0.6843 -0.1540  0.3474
14494SOL    HW244391   2.474   7.674   3.625 -0.2887 -0.6830  0.1977
14495SOL     OW44392   5.925   7.551   6.358 -0.2565 -1.0228  0.7152
14495SOL    HW144393   5.974   7.578   6.280  1.7118 -0.9331  1.9153
14495SOL    HW244394   5.854   7.615   6.364  1.0494  0.5546  0.3628
14496SOL     OW44395   4.535   0.835   5.319  0.0644 -0.4247  0.0509
14496SOL    HW144396   4.504   0.791   5.239  0.2433  0.0496 -0.2830
14496SOL    HW244397   4.625   0.860   5.300 -0.0419  0.1172  0.2216
14497SOL     OW44398   2.865   3.663   4.067  0.4753 -0.0581  0.3331
14497SOL    HW144399   2.873   3.759   4.066 -0.6029  0.0440 -0.5228
14497SOL    HW244400   2.923   3.633   3.998  0.4783  0.0112  0.3051
14498SOL     OW44401   3.062   2.968   2.578  0.0067 -0.1715 -0.3213
14498SOL    HW144402   3.065   2.884   2.622  1.7163  0.2608  0.5123
14498SOL    HW244403   3.144   2.972   2.529 -0.4747  0.6189 -1.0871
14499SOL     OW44404   4.240   1.621   7.571 -0.1493 -0.8529  0.4576
14499SOL    HW144405   4.196   1.555   7.518  0.5319 -0.4901 -0.5835
14499SOL    HW244406   4.261   1.692   7.510 -0.3827  0.0958  1.4412
14500SOL     OW44407   5.360   2.840   2.899  0.0719  0.3351 -0.0404
14500SOL    HW144408   5.331   2.769   2.842 -0.9256 -0.9476  1.9656
14500SOL    HW244409   5.308   2.916   2.871  0.0242 -0.0989 -1.1869
14501SOL     OW44410   0.044   5.099   2.948  0.1804  0.1101 -0.0351
14501SOL    HW144411  -0.040   5.077   2.908 -0.5736 -1.2918  2.1470
14501SOL    HW244412   0.066   5.023   3.002  1.6256  1.4644  1.3948
14502SOL     OW44413   6.404   2.867   2.453  0.2923 -0.0227 -0.0443
14502SOL    HW144414   6.417   2.961   2.465  2.0495 -0.2967  0.4717
14502SOL    HW244415   6.310   2.855   2.459  0.2152  1.3350  2.6863
14503SOL     OW44416   0.897   4.085   4.193  0.3150  0.8933  0.8309
14503SOL    HW144417   0.866   4.157   4.139  1.8100  0.4032 -0.7764
14503SOL    HW244418   0.913   4.013   4.131  1.7818  0.1966  1.9329
14504SOL     OW44419   4.110   7.289   3.021 -0.0123 -0.3459 -0.5821
14504SOL    HW144420   4.153   7.372   3.001  1.1266 -0.8663 -0.3679
14504SOL    HW244421   4.042   7.313   3.084  1.4325  0.2270  0.8466
14505SOL     OW44422   7.093   7.516   7.531  0.1158 -0.0096  0.6316
14505SOL    HW144423   7.174   7.547   7.570 -0.8978  2.8983  0.6612
14505SOL    HW244424   7.027   7.580   7.558 -1.2559  0.5599 -3.3853
14506SOL     OW44425   6.525   3.672   3.516  0.2617  0.3188  0.4162
14506SOL    HW144426   6.459   3.736   3.491  1.5759  1.2200 -0.9664
14506SOL    HW244427   6.603   3.698   3.466  1.6525 -0.7030  1.9638
14507SOL     OW44428   7.648   6.952   2.845 -0.3570 -0.3277  0.1725
14507SOL    HW144429   7.730   6.925   2.804 -0.6192 -0.3807 -0.3298
14507SOL    HW244430   7.583   6.890   2.812 -0.9691  0.8866 -1.0121
14508SOL     OW44431   2.368   5.830   1.592 -0.8547 -0.4926 -0.1523
14508SOL    HW144432   2.364   5.920   1.561 -0.2140 -0.1862  0.6261
14508SOL    HW244433   2.412   5.782   1.522  0.9193  0.2599  0.4038
14509SOL     OW44434   1.824   5.163   1.253  0.7647  0.5605  0.2828
14509SOL    HW144435   1.803   5.098   1.185 -0.1502  1.1884 -0.0524
14509SOL    HW244436   1.847   5.110   1.330  2.7481 -0.1816 -0.7496
14510SOL     OW44437   2.521   1.988   1.204 -0.3887 -0.5886  0.3051
14510SOL    HW144438   2.582   2.022   1.270 -0.9806 -1.6475  1.4444
14510SOL    HW244439   2.566   1.913   1.167 -1.4708 -2.2250  2.1249
14511SOL     OW44440   1.787   6.900   1.403  1.0173 -0.3113  0.2523
14511SOL    HW144441   1.860   6.932   1.457  0.9396 -0.9025  0.7075
14511SOL    HW244442   1.791   6.805   1.411 -0.7474 -0.3176  1.5294
14512SOL     OW44443   4.721   6.788   3.990 -0.2495 -0.2411  0.4234
14512SOL    HW144444   4.759   6.770   3.905  0.8250  4.3346 -0.3644
14512SOL    HW244445   4.784   6.754   4.053  2.2435  1.7408 -0.8209
14513SOL     OW44446   5.139   4.811   3.411 -0.0658  0.5258 -0.5526
14513SOL    HW144447   5.191   4.890   3.394  1.2569 -0.5109 -1.5700
14513SOL    HW244448   5.178   4.773   3.490 -0.4958  0.7037 -0.2485
14514SOL     OW44449   3.338   6.315   4.813 -0.4145  0.2550  0.1762
14514SOL    HW144450   3.329   6.244   4.877  0.7545 -0.2905 -0.2258
14514SOL    HW244451   3.333   6.270   4.728 -0.2271  0.7404 -0.0900
14515SOL     OW44452   7.695   2.797   2.019 -0.0633 -0.2958 -0.0053
14515SOL    HW144453   7.713   2.715   2.067 -1.2688  0.3796  1.6993
14515SOL    HW244454   7.600   2.798   2.009 -0.2726  1.6815  1.5730
14516SOL     OW44455   5.924   5.876   5.986 -0.6481  0.0810  0.1431
14516SOL    HW144456   5.832   5.897   5.971 -0.1776  2.4932  0.2881
14516SOL    HW244457   5.962   5.872   5.898 -0.6131  0.5159  0.1372
14517SOL     OW44458   7.010   7.214   4.282  0.3545 -0.0471  0.2274
14517SOL    HW144459   7.095   7.189   4.317  0.1065 -0.0134  0.8541
14517SOL    HW244460   6.948   7.155   4.324  0.1436 -0.6100 -0.8234
14518SOL     OW44461   6.169   3.563   1.727 -0.2105  0.3693  0.2527
14518SOL    HW144462   6.240   3.561   1.663 -0.4825  1.0771 -0.0828
14518SOL    HW244463   6.142   3.655   1.730  1.0362  0.7482  2.7451
14519SOL     OW44464   1.225   4.078   3.269  0.3069 -0.2293  0.2859
14519SOL    HW144465   1.193   4.151   3.321  1.1805 -0.6825  1.4997
14519SOL    HW244466   1.158   4.065   3.201  0.4945  2.1453 -0.4246
14520SOL     OW44467   4.644   7.055   5.765  0.4996 -0.3300 -0.6294
14520SOL    HW144468   4.654   6.991   5.695  0.2572 -2.1321  0.9026
14520SOL    HW244469   4.698   7.021   5.836  0.3751  1.1963  0.2375
14521SOL     OW44470   5.146   5.158   7.134  0.1007  1.0685  0.1467
14521SOL    HW144471   5.206   5.154   7.208  1.0003 -1.3440 -0.6173
14521SOL    HW244472   5.188   5.106   7.065 -1.1640  2.3968 -1.7294
14522SOL     OW44473   0.198   5.365   7.445 -0.2470 -0.9107  0.2575
14522SOL    HW144474   0.134   5.332   7.381  0.1146 -0.4966 -0.3344
14522SOL    HW244475   0.189   5.307   7.520 -2.4147  0.0593  0.8407
14523SOL     OW44476   4.478   5.904   5.878 -0.5003  0.2855  0.7320
14523SOL    HW144477   4.483   5.986   5.830  0.0337  0.0064  0.3079
14523SOL    HW244478   4.441   5.841   5.815  0.9956 -0.2885  0.3889
14524SOL     OW44479   6.867   7.721   0.411  0.1570 -0.0730  0.3327
14524SOL    HW144480   6.911   7.702   0.494  2.2185  0.3334 -0.6121
14524SOL    HW244481   6.795   7.779   0.436  1.4448  1.0162  1.7216
14525SOL     OW44482   7.556   5.094   1.538 -0.2211  0.0974 -0.1683
14525SOL    HW144483   7.464   5.119   1.536 -0.5846 -1.1252 -2.4398
14525SOL    HW244484   7.559   5.009   1.493  2.1134  0.5137 -0.9520
14526SOL     OW44485   0.728   1.688   7.487  0.1149 -0.3962 -0.0620
14526SOL    HW144486   0.728   1.774   7.446  1.7525  1.1097  2.7874
14526SOL    HW244487   0.811   1.648   7.461 -0.2312 -0.7591 -0.6371
14527SOL     OW44488   2.139   6.760   6.177  0.3756  0.0214 -0.4822
14527SOL    HW144489   2.116   6.819   6.249  0.3041 -0.5058 -0.0689
14527SOL    HW244490   2.167   6.818   6.106  0.7238  0.5333  0.0711
14528SOL     OW44491   0.883   6.604   1.520 -0.2581 -0.0760 -0.0022
14528SOL    HW144492   0.789   6.587   1.526 -0.4553  1.2138  1.2123
14528SOL    HW244493   0.920   6.523   1.486 -2.0318  0.1073 -2.6669
14529SOL     OW44494   4.158   4.943   3.919 -0.3022  0.3984  0.6841
14529SOL    HW144495   4.245   4.903   3.927 -0.3500  0.1478 -0.0105
14529SOL    HW244496   4.098   4.868   3.911 -0.6309  0.5601  1.5940
14530SOL     OW44497   3.896   0.684   7.735 -0.1265  0.0678  0.6271
14530SOL    HW144498   3.834   0.676   7.663  0.2581 -0.0652  0.3055
14530SOL    HW244499   3.955   0.755   7.708 -0.4347  0.5362  1.1553
14531SOL     OW44500   1.730   6.759   4.703  0.5558  0.1954 -0.6255
14531SOL    HW144501   1.715   6.667   4.726 -0.1308 -0.0997 -2.1278
14531SOL    HW244502   1.671   6.775   4.629  1.6766  1.4497 -1.2856
14532SOL     OW44503   6.086   0.996   0.454 -0.7214 -0.0884  0.0389
14532SOL    HW144504   6.012   1.056   0.458 -1.4992 -1.1028  1.9116
14532SOL    HW244505   6.087   0.964   0.364 -1.1254  1.6472 -0.6231
14533SOL     OW44506   5.847   1.141   0.473  0.3750  0.1409  0.4769
14533SOL    HW144507   5.870   1.195   0.548 -0.7528  0.7840  0.3781
14533SOL    HW244508   5.804   1.202   0.412  0.9399 -0.4451 -0.5294
14534SOL     OW44509   5.248   4.467   4.376 -0.6708  0.3741 -0.0845
14534SOL    HW144510   5.174   4.430   4.424  0.0146  0.5601  1.1531
14534SOL    HW244511   5.320   4.465   4.438  0.7617 -1.0701 -1.6586
14535SOL     OW44512   0.822   2.912   6.691  0.4587 -0.4213 -0.1871
14535SOL    HW144513   0.902   2.918   6.639  0.6767  0.9798  0.2597
14535SOL    HW244514   0.809   2.818   6.705  0.8925 -0.7780 -1.9693
14536SOL     OW44515   7.292   1.159   5.647  0.4901  0.5830  0.3672
14536SOL    HW144516   7.292   1.208   5.730 -0.3893 -0.0950  0.7922
14536SOL    HW244517   7.382   1.131   5.635  0.6842  0.9461  0.9417
14537SOL     OW44518   5.286   6.999   7.637  0.2288  0.0815  0.0184
14537SOL    HW144519   5.360   7.042   7.594 -0.7708  1.5821 -0.2948
14537SOL    HW244520   5.244   6.949   7.566 -0.9412  1.9026 -0.6647
14538SOL     OW44521   0.768   5.316   6.936 -0.4328  0.3365  0.0761
14538SOL    HW144522   0.780   5.381   7.005 -2.0036  1.5632 -0.7419
14538SOL    HW244523   0.815   5.351   6.861  0.9333 -0.7996  0.3577
14539SOL     OW44524   4.573   5.048   0.465  0.2995 -0.5319 -0.2817
14539SOL    HW144525   4.606   4.986   0.400  0.1224 -0.0950 -0.7987
14539SOL    HW244526   4.534   4.994   0.533  1.3629 -1.0372 -0.0510
14540SOL     OW44527   5.824   5.591   5.260  0.2099  0.1341  0.0185
14540SOL    HW144528   5.837   5.685   5.272 -1.0331  0.3388 -0.1726
14540SOL    HW244529   5.748   5.584   5.203 -0.3390 -1.0016  0.8644
14541SOL     OW44530   6.842   4.351   2.785  0.3966 -0.1577 -0.1053
14541SOL    HW144531   6.807   4.271   2.747  1.7528 -1.8580  1.9222
14541SOL    HW244532   6.809   4.421   2.730 -0.5412 -2.1295 -2.2227
14542SOL     OW44533   7.406   7.395   1.996 -0.0494  0.1698  0.1006
14542SOL    HW144534   7.482   7.381   1.939 -0.4725 -0.6855 -0.2651
14542SOL    HW244535   7.403   7.489   2.009  0.8336  0.2512 -0.2198
14543SOL     OW44536   7.512   2.403   6.098 -0.3498  0.5992 -0.0031
14543SOL    HW144537   7.460   2.381   6.175  1.1845  0.1797  0.9608
14543SOL    HW244538   7.510   2.325   6.044 -0.9548  0.6925 -0.1232
14544SOL     OW44539   3.867   2.752   2.624  0.0388  0.3062 -0.0639
14544SOL    HW144540   3.814   2.762   2.703 -2.2238 -0.3401 -1.4283
14544SOL    HW244541   3.804   2.744   2.553  1.9863 -0.3424 -1.8264
14545SOL     OW44542   0.439   4.640   4.068  0.5675 -0.2904  0.3049
14545SOL    HW144543   0.455   4.720   4.118 -0.6441  0.1189  0.0672
14545SOL    HW244544   0.437   4.669   3.977 -1.1521 -0.3641  0.3040
14546SOL     OW44545   2.477   6.453   0.996  0.0293 -0.7365  0.0335
14546SOL    HW144546   2.419   6.378   1.009 -1.8891  0.6561 -0.2318
14546SOL    HW244547   2.428   6.528   1.029  2.1878  0.3470  0.9725
14547SOL     OW44548   3.912   3.429   5.486  0.0345 -0.1543 -0.1708
14547SOL    HW144549   3.992   3.381   5.463  0.6544  0.0618  1.4003
14547SOL    HW244550   3.922   3.514   5.444  0.3496 -0.3326 -0.4668
14548SOL     OW44551   1.177   0.710   6.126 -0.1923 -0.3983 -0.5271
14548SOL    HW144552   1.089   0.733   6.095 -0.4330 -2.3908 -1.4750
14548SOL    HW244553   1.198   0.629   6.080  1.9899 -0.1908  0.0050
14549SOL     OW44554   3.155   4.966   7.659 -0.5443  0.5453 -0.2525
14549SOL    HW144555   3.243   4.973   7.621 -0.2106  1.8530  0.6858
14549SOL    HW244556   3.104   5.031   7.612 -1.1501 -0.5310 -1.1118
14550SOL     OW44557   1.216   1.990   7.575  1.0036 -0.2004  0.6604
14550SOL    HW144558   1.127   1.960   7.557  0.9789 -0.1896  0.7654
14550SOL    HW244559   1.259   1.987   7.490  1.2214 -1.2552  0.7970
14551SOL     OW44560   0.951   7.421   0.949 -0.3023  0.2458  0.5598
14551SOL    HW144561   1.008   7.452   0.879  0.8189 -1.4258  0.6753
14551SOL    HW244562   0.960   7.326   0.948 -0.9805  0.1110  2.3760
14552SOL     OW44563   5.715   2.258   7.463 -0.0087 -0.5469  0.2588
14552SOL    HW144564   5.677   2.258   7.550 -1.9262 -0.7546 -0.5384
14552SOL    HW244565   5.652   2.305   7.408  0.5581 -1.4592 -1.2586
14553SOL     OW44566   7.154   7.279   0.553 -0.6483  0.4019 -0.0069
14553SOL    HW144567   7.171   7.372   0.568 -1.6062  0.3960  1.3308
14553SOL    HW244568   7.240   7.237   0.563 -0.5738  0.8845  1.8952
14554SOL     OW44569   7.620   1.568   7.363 -0.3560  0.0444 -0.4071
14554SOL    HW144570   7.560   1.542   7.433  0.3295 -1.7790 -0.4275
14554SOL    HW244571   7.637   1.661   7.378 -1.3141  0.0255  0.9991
14555SOL     OW44572   3.155   7.372   6.777 -0.2574 -0.8828  0.0847
14555SOL    HW144573   3.193   7.444   6.726 -0.6133  0.4395  1.5956
14555SOL    HW244574   3.229   7.313   6.794  0.0712 -0.8153 -1.0542
14556SOL     OW44575   1.238   2.949   4.053 -0.1527 -1.1258  0.1112
14556SOL    HW144576   1.321   2.996   4.039  0.1599 -1.3423  1.1546
14556SOL    HW244577   1.211   2.974   4.141  1.1576 -4.5585  1.6595
14557SOL     OW44578   4.245   1.441   3.122  0.1707 -0.1193  0.2105
14557SOL    HW144579   4.213   1.487   3.044  1.8836  1.0536  0.1401
14557SOL    HW244580   4.170   1.392   3.153 -1.4770  1.8836 -0.3606
14558SOL     OW44581   6.385   5.746   2.326  0.4180  0.0159 -0.0312
14558SOL    HW144582   6.293   5.721   2.319  0.5958 -1.6768  2.5002
14558SOL    HW244583   6.383   5.837   2.358 -0.4543 -0.5892  1.7696
14559SOL     OW44584   2.791   2.889   7.483  0.2931  1.2563  0.1239
14559SOL    HW144585   2.798   2.906   7.577 -0.1577  0.6778  0.2692
14559SOL    HW244586   2.878   2.908   7.448  1.4363 -1.5202  1.1494
14560SOL     OW44587   4.635   2.956   7.489 -0.3280  0.3221  0.1195
14560SOL    HW144588   4.639   2.889   7.421  0.6319 -0.1494  0.6146
14560SOL    HW244589   4.727   2.981   7.504 -0.5745  0.8844  0.7788
14561SOL     OW44590   3.266   4.128   7.701 -0.5869 -0.5568 -0.0574
14561SOL    HW144591   3.217   4.080   7.768  1.0873 -1.4547  0.5885
14561SOL    HW244592   3.207   4.133   7.626 -1.2853 -2.5004  0.3249
14562SOL     OW44593   0.737   0.768   4.636  0.5120 -0.0277 -0.1454
14562SOL    HW144594   0.682   0.727   4.570 -0.3869  0.9936 -0.0624
14562SOL    HW244595   0.826   0.764   4.598 -0.2405  2.6095 -2.6007
14563SOL     OW44596   5.745   6.947   1.153 -0.0145  0.5542 -0.2528
14563SOL    HW144597   5.799   6.890   1.099  0.5607 -0.2978  1.1464
14563SOL    HW244598   5.748   7.033   1.110 -1.6685 -0.6191 -2.9229
14564SOL     OW44599   4.720   2.744   7.302  0.3533  0.0994  0.1999
14564SOL    HW144600   4.795   2.757   7.244 -0.7728  1.1108 -1.1179
14564SOL    HW244601   4.644   2.742   7.243 -0.7306 -0.0801  1.5433
14565SOL     OW44602   3.409   1.630   1.638  0.5674  0.1554  0.4832
14565SOL    HW144603   3.489   1.641   1.587  0.0554  0.5532 -0.2348
14565SOL    HW244604   3.356   1.706   1.618 -0.4081 -0.5761  0.1976
14566SOL     OW44605   4.005   2.609   0.355 -0.1816  0.0971 -0.3663
14566SOL    HW144606   3.932   2.590   0.295 -2.0038  0.8933  1.5167
14566SOL    HW244607   4.078   2.558   0.319 -1.5766 -0.5834 -2.4368
14567SOL     OW44608   4.523   4.247   1.690 -0.0551  0.2717 -0.4032
14567SOL    HW144609   4.576   4.203   1.756  0.0368  0.4641 -0.3487
14567SOL    HW244610   4.449   4.284   1.739 -0.2664 -0.0367 -0.4854
14568SOL     OW44611   6.601   0.240   3.598 -0.0443 -0.4054 -0.2129
14568SOL    HW144612   6.618   0.151   3.629  1.8434 -1.0873 -2.9186
14568SOL    HW244613   6.581   0.230   3.505 -2.1077  1.8428 -0.1366
14569SOL     OW44614   2.404   4.952   7.339  0.3376  0.2734 -0.7888
14569SOL    HW144615   2.371   4.996   7.417  0.7894  0.7423 -0.8530
14569SOL    HW244616   2.343   4.880   7.323  0.8548 -0.5146  0.6325
14570SOL     OW44617   3.213   4.101   0.963  0.3440 -0.0597  0.1886
14570SOL    HW144618   3.283   4.037   0.978  1.1136  0.5760 -0.5386
14570SOL    HW244619   3.211   4.154   1.043  0.0566 -0.6657  0.5842
14571SOL     OW44620   1.324   0.727   2.741  0.2640 -0.0682 -0.6028
14571SOL    HW144621   1.244   0.727   2.688  0.9818  1.5524 -1.7453
14571SOL    HW244622   1.304   0.784   2.815 -0.0331 -0.6617 -0.2149
14572SOL     OW44623   1.952   1.201   3.514 -0.0594 -0.7851  0.4718
14572SOL    HW144624   2.026   1.259   3.529 -0.1391 -0.2817 -0.8661
14572SOL    HW244625   1.899   1.206   3.593  0.2574  0.5054  0.6095
14573SOL     OW44626   3.392   1.137   2.935  0.0314  0.0969  0.2699
14573SOL    HW144627   3.475   1.163   2.895  0.7690 -0.0301  1.6310
14573SOL    HW244628   3.417   1.069   2.998 -1.2309 -0.5464  0.0946
14574SOL     OW44629   3.230   5.780   6.986  0.0911  0.6321 -0.5616
14574SOL    HW144630   3.308   5.792   6.933 -0.3250  1.7439 -0.9608
14574SOL    HW244631   3.231   5.854   7.047 -0.5270  0.5366 -0.4292
14575SOL     OW44632   3.546   7.064   7.039  0.1495  0.6507 -0.2520
14575SOL    HW144633   3.529   6.997   6.972  0.5414 -1.2189  1.4330
14575SOL    HW244634   3.465   7.068   7.090 -0.5499  2.8585 -1.3884
14576SOL     OW44635   4.130   4.749   1.374  0.5489  0.3453  0.7056
14576SOL    HW144636   4.209   4.696   1.384  0.4190 -0.1552 -0.7710
14576SOL    HW244637   4.076   4.701   1.311 -0.4387  1.2495  0.8377
14577SOL     OW44638   2.405   6.966   0.786  0.0181  0.0334 -0.0887
14577SOL    HW144639   2.390   7.009   0.871 -0.3780  0.9461 -0.6023
14577SOL    HW244640   2.334   6.999   0.730  0.8057  0.1678 -1.0305
14578SOL     OW44641   0.116   2.437   1.343 -0.2641  0.2478 -1.1373
14578SOL    HW144642   0.075   2.404   1.424  0.0323 -1.0223 -1.4868
14578SOL    HW244643   0.098   2.531   1.344 -1.7670 -0.0173 -0.4514
14579SOL     OW44644   2.734   2.832   5.372 -0.7434  0.0743  0.0869
14579SOL    HW144645   2.756   2.739   5.373 -1.5042 -0.1216 -0.4526
14579SOL    HW244646   2.639   2.835   5.379 -0.6166  0.8949  2.2553
14580SOL     OW44647   4.549   4.932   3.342  0.4471  0.0804  0.2281
14580SOL    HW144648   4.634   4.935   3.386  1.4809 -0.7230 -1.6361
14580SOL    HW244649   4.552   4.854   3.288 -2.0910 -0.8003  1.2243
14581SOL     OW44650   1.017   4.131   6.881 -0.0821  0.3013 -0.6335
14581SOL    HW144651   1.085   4.183   6.925 -0.8821  1.8563 -1.1477
14581SOL    HW244652   0.936   4.157   6.925 -0.3448 -1.7255  0.1536
14582SOL     OW44653   4.364   0.739   7.704 -0.6701 -0.4001  0.1000
14582SOL    HW144654   4.288   0.692   7.670 -1.5296  1.0575 -0.0914
14582SOL    HW244655   4.328   0.819   7.741  0.5971 -0.4951  1.6651
14583SOL     OW44656   2.081   5.956   3.889  0.1912 -0.1075  0.3605
14583SOL    HW144657   1.990   5.926   3.883 -0.1798  1.0803 -0.5344
14583SOL    HW244658   2.127   5.905   3.823  0.2574 -0.9821  1.0773
14584SOL     OW44659   5.567   3.552   7.656  0.7284 -0.0406 -0.3761
14584SOL    HW144660   5.571   3.497   7.577  2.6921  0.4009 -0.6227
14584SOL    HW244661   5.560   3.489   7.728  2.3799 -0.6384 -0.6951
14585SOL     OW44662   3.321   7.291   4.308  0.3445  0.1043 -0.6217
14585SOL    HW144663   3.409   7.274   4.275 -0.3792 -3.2088 -1.1339
14585SOL    HW244664   3.263   7.256   4.241 -1.3177  0.0885  0.7560
14586SOL     OW44665   3.893   4.346   1.098 -0.2757  0.3164 -0.2741
14586SOL    HW144666   3.968   4.340   1.039 -0.0861 -0.0630 -0.0037
14586SOL    HW244667   3.932   4.351   1.185 -0.5671 -0.4384 -0.0930
14587SOL     OW44668   7.175   1.612   4.824 -0.3210  0.0486  0.2261
14587SOL    HW144669   7.160   1.545   4.757 -0.2688  0.8281 -0.5857
14587SOL    HW244670   7.131   1.690   4.790 -1.6266  0.0637  1.8267
14588SOL     OW44671   6.928   1.295   5.884  0.0431  0.4850  0.4378
14588SOL    HW144672   6.920   1.345   5.802 -0.0740 -0.8525 -0.4002
14588SOL    HW244673   6.921   1.204   5.857  1.6306 -0.0776  1.7303
14589SOL     OW44674   6.842   2.015   6.600 -0.4263 -0.9908 -0.5855
14589SOL    HW144675   6.917   2.027   6.658  0.0284  0.1005 -1.3638
14589SOL    HW244676   6.871   2.051   6.516 -1.4381 -1.5790 -1.1994
14590SOL     OW44677   2.104   3.183   7.303 -0.5946  0.1791  0.2742
14590SOL    HW144678   2.118   3.261   7.249 -0.8492  0.3719  0.4837
14590SOL    HW244679   2.188   3.137   7.301 -0.4048  0.5229  0.2500
14591SOL     OW44680   2.092   5.276   6.600 -0.2789 -0.3257 -0.1201
14591SOL    HW144681   2.152   5.244   6.533 -1.0872 -1.3827 -0.3702
14591SOL    HW244682   2.028   5.205   6.610 -1.3658  0.6844  0.2697
14592SOL     OW44683   4.919   7.603   1.797 -0.1979 -0.0423  0.4721
14592SOL    HW144684   5.003   7.649   1.791 -0.6345  0.8959  1.3046
14592SOL    HW244685   4.878   7.618   1.712  0.1984  0.0377  0.2895
14593SOL     OW44686   2.765   3.233   3.360  0.3675 -0.1257  0.3048
14593SOL    HW144687   2.802   3.152   3.324 -1.4828 -0.7292 -0.3682
14593SOL    HW244688   2.753   3.214   3.453  2.3124  0.3347  0.6900
14594SOL     OW44689   2.948   1.289   5.868 -0.1234 -0.1822  0.1079
14594SOL    HW144690   2.877   1.336   5.823 -1.6269 -2.7367 -0.3386
14594SOL    HW244691   3.003   1.359   5.904 -1.4110  1.9223 -1.7434
14595SOL     OW44692   1.660   1.936   7.144  0.1267 -0.2102 -0.2930
14595SOL    HW144693   1.717   1.919   7.069  0.1771 -0.0580 -0.2891
14595SOL    HW244694   1.618   2.020   7.124 -1.0314 -0.9037 -0.8751
14596SOL     OW44695   1.482   6.964   6.540 -0.7695 -0.1181 -0.5329
14596SOL    HW144696   1.390   6.954   6.566 -0.3578 -2.5537  0.2409
14596SOL    HW244697   1.491   6.909   6.463 -0.3104  1.4843 -1.6616
14597SOL     OW44698   1.467   3.793   7.402 -0.3254  0.1251 -0.0654
14597SOL    HW144699   1.481   3.767   7.493  1.1094  0.8448 -0.0535
14597SOL    HW244700   1.453   3.888   7.406 -0.7766  0.0855 -0.5503
14598SOL     OW44701   2.774   7.209   2.366 -0.3014  0.1113 -0.4219
14598SOL    HW144702   2.762   7.146   2.295 -2.5219 -1.6644  1.3986
14598SOL    HW244703   2.866   7.199   2.391  0.3789  0.3836 -2.5993
14599SOL     OW44704   4.474   4.981   7.481 -0.1070 -0.1441 -0.1808
14599SOL    HW144705   4.501   4.944   7.397  0.2854  1.3207 -0.7349
14599SOL    HW244706   4.379   4.989   7.475  0.0101  0.7969 -0.8516
14600SOL     OW44707   5.253   2.035   5.159  0.1439 -0.6170  0.3833
14600SOL    HW144708   5.302   2.046   5.240 -0.9159 -0.8024  1.0667
14600SOL    HW244709   5.307   1.978   5.105  0.8811 -0.4458  0.9364
14601SOL     OW44710   3.452   4.372   5.883 -0.1205 -0.4642  0.3302
14601SOL    HW144711   3.438   4.330   5.798  1.2460  1.0362 -0.7016
14601SOL    HW244712   3.545   4.358   5.902 -0.0960  0.3927  0.9034
14602SOL     OW44713   2.953   2.534   3.269  0.8183 -0.5267 -0.4879
14602SOL    HW144714   2.971   2.486   3.189 -0.0028 -0.4199 -0.7558
14602SOL    HW244715   2.863   2.509   3.292  0.4980  0.5703 -0.4374
14603SOL     OW44716   4.221   5.761   0.221  0.1775 -0.1470  0.2914
14603SOL    HW144717   4.163   5.835   0.203 -1.3258 -0.9063  1.6915
14603SOL    HW244718   4.162   5.693   0.255  1.8422 -1.1390  1.2857
14604SOL     OW44719   0.918   2.602   4.430 -0.1143  0.0298  0.0601
14604SOL    HW144720   0.962   2.624   4.512  2.2285  3.0033 -1.8156
14604SOL    HW244721   0.982   2.551   4.380 -1.5777 -1.9094  0.0010
14605SOL     OW44722   2.007   6.643   1.877  0.2458 -0.0235 -0.0934
14605SOL    HW144723   2.087   6.656   1.827  0.3955  0.9310  0.3579
14605SOL    HW244724   1.981   6.732   1.903  1.0199 -0.5317  2.8119
14606SOL     OW44725   5.127   2.297   3.481 -0.3706  0.5515 -0.3338
14606SOL    HW144726   5.035   2.323   3.487 -0.2278  1.0652 -0.2990
14606SOL    HW244727   5.169   2.370   3.436  0.1395  0.6206  0.2467
14607SOL     OW44728   1.684   6.114   2.341 -0.1365  0.4016 -0.0793
14607SOL    HW144729   1.773   6.077   2.340 -0.4245 -0.2935 -0.5107
14607SOL    HW244730   1.686   6.182   2.273 -0.4423 -0.8749 -1.4265
14608SOL     OW44731   6.742   6.085   2.670  0.1230  0.5728  0.1166
14608SOL    HW144732   6.761   6.176   2.695 -0.9117  0.9697 -0.4303
14608SOL    HW244733   6.654   6.090   2.632  0.3741 -0.5290 -0.6462
14609SOL     OW44734   4.252   3.039   4.205  0.0418 -0.0397 -1.0659
14609SOL    HW144735   4.168   3.032   4.160  0.6881  0.3432 -2.4036
14609SOL    HW244736   4.266   2.953   4.244 -0.2732 -0.5967 -2.1448
14610SOL     OW44737   1.481   2.712   4.084  0.4016 -0.5318  0.1667
14610SOL    HW144738   1.389   2.730   4.065  0.2150 -1.5175  0.0630
14610SOL    HW244739   1.479   2.630   4.134  1.2301 -0.6560  0.0027
14611SOL     OW44740   4.262   2.769   4.301 -0.5288  0.4103  0.6079
14611SOL    HW144741   4.188   2.738   4.249 -1.0346  4.2308 -1.2866
14611SOL    HW244742   4.338   2.727   4.262 -1.4374 -2.1011  1.3636
14612SOL     OW44743   6.302   2.282   6.513 -0.1212  0.1591  0.1248
14612SOL    HW144744   6.312   2.376   6.503  0.3909  0.1549  0.5308
14612SOL    HW244745   6.290   2.249   6.424 -0.6570  0.6423  0.0139
14613SOL     OW44746   5.247   0.735   5.142  0.5544 -0.4592 -0.2685
14613SOL    HW144747   5.309   0.763   5.074  1.7520 -1.5405  0.3276
14613SOL    HW244748   5.221   0.646   5.116 -0.1868 -0.2936 -0.1171
14614SOL     OW44749   3.612   1.482   2.066  0.1650 -0.2626 -0.3143
14614SOL    HW144750   3.659   1.399   2.076  0.4197 -0.0990 -0.1085
14614SOL    HW244751   3.541   1.463   2.006  0.3243 -0.5897 -0.4015
14615SOL     OW44752   0.338   2.245   0.003  0.2990  0.5969  0.8134
14615SOL    HW144753   0.365   2.153   0.002  0.1349  0.4461  3.2985
14615SOL    HW244754   0.249   2.244  -0.033 -0.0735 -0.3965  1.6831
14616SOL     OW44755   3.380   7.412   6.591 -0.3812 -0.2245 -0.2447
14616SOL    HW144756   3.414   7.323   6.584  0.2630 -0.2260  2.1508
14616SOL    HW244757   3.414   7.456   6.513  2.9679 -0.9392  0.6685
14617SOL     OW44758   7.090   2.652   2.288  0.3713 -0.5471  0.2993
14617SOL    HW144759   7.063   2.646   2.380 -0.5948  0.3452  0.0982
14617SOL    HW244760   7.185   2.650   2.291  0.3653 -0.1560  1.3671
14618SOL     OW44761   6.597   5.516   4.624 -0.0776 -0.7939  0.3528
14618SOL    HW144762   6.657   5.470   4.565  1.1435  0.3969  0.6260
14618SOL    HW244763   6.551   5.578   4.567  0.4475 -0.2765  0.4846
14619SOL     OW44764   3.969   0.138   1.898 -0.3975  0.2503 -0.6212
14619SOL    HW144765   3.979   0.083   1.976 -1.1392  0.9436 -0.0356
14619SOL    HW244766   4.059   0.163   1.875 -0.1534 -0.1959 -0.1695
14620SOL     OW44767   0.703   0.663   2.136  0.6383 -0.4609  0.5571
14620SOL    HW144768   0.622   0.700   2.103  0.7479 -0.1584  0.6236
14620SOL    HW244769   0.705   0.574   2.101  1.3775  0.2409 -1.3394
14621SOL     OW44770   4.641   7.122   3.830  0.6561  0.6077  0.0887
14621SOL    HW144771   4.549   7.124   3.856  0.8663 -0.5190  1.0107
14621SOL    HW244772   4.646   7.053   3.764  1.0548 -0.2921  1.0329
14622SOL     OW44773   3.517   3.720   2.554  0.2902 -0.5862 -0.7691
14622SOL    HW144774   3.537   3.647   2.496  2.2343  0.3053 -1.2919
14622SOL    HW244775   3.593   3.728   2.611 -0.6719 -0.0856  0.4997
14623SOL     OW44776   4.334   6.766   1.355  0.0617 -0.3841  0.6797
14623SOL    HW144777   4.422   6.750   1.322  0.2505 -0.8905  1.4095
14623SOL    HW244778   4.301   6.838   1.301  1.0120 -0.0243  0.5623
14624SOL     OW44779   7.355   2.721   2.633  0.0161 -0.7494 -0.2633
14624SOL    HW144780   7.328   2.812   2.619 -0.9734 -1.0314 -0.2664
14624SOL    HW244781   7.412   2.724   2.710  0.2362 -0.0906 -0.4426
14625SOL     OW44782   5.097   2.882   6.794 -0.3215 -0.1643 -0.2709
14625SOL    HW144783   5.103   2.794   6.829  0.8688 -0.5096 -1.2996
14625SOL    HW244784   5.155   2.883   6.718  1.8772  2.2503  1.2419
14626SOL     OW44785   2.511   1.951   2.916  0.7467  0.0616 -0.1830
14626SOL    HW144786   2.547   1.900   2.988 -0.2910 -2.3815 -1.2971
14626SOL    HW244787   2.585   1.963   2.856  0.8442 -0.7678 -0.2395
14627SOL     OW44788   2.144   4.071   3.942  0.0140  0.7440  0.0700
14627SOL    HW144789   2.139   4.166   3.930 -0.2327  0.6088 -0.9936
14627SOL    HW244790   2.101   4.035   3.864 -1.8738 -0.2191  1.4689
14628SOL     OW44791   6.723   4.028   5.429 -0.1831 -0.6269 -0.0715
14628SOL    HW144792   6.725   4.116   5.393  0.5759 -0.9518 -0.8460
14628SOL    HW244793   6.701   4.040   5.521 -1.6181  0.2541 -0.4980
14629SOL     OW44794   6.589   5.425   4.883 -0.1872 -0.8478  0.5400
14629SOL    HW144795   6.593   5.435   4.788  1.2279 -1.4181  0.5285
14629SOL    HW244796   6.593   5.331   4.898 -0.3047 -0.7570  1.1829
14630SOL     OW44797   7.392   6.956   7.025  0.1598  0.3719  0.0526
14630SOL    HW144798   7.462   6.961   7.089  1.3380  1.0433 -1.2337
14630SOL    HW244799   7.436   6.933   6.943 -1.5750 -2.9545 -0.1152
14631SOL     OW44800   1.389   7.228   5.900  0.1904 -0.3322 -0.8037
14631SOL    HW144801   1.362   7.234   5.991  0.1801 -1.7484 -0.6853
14631SOL    HW244802   1.467   7.284   5.894  0.0947 -0.1027  0.0298
14632SOL     OW44803   1.696   1.962   2.843 -0.6529 -0.3046  0.4711
14632SOL    HW144804   1.642   1.920   2.909 -1.1693 -0.6617 -0.1623
14632SOL    HW244805   1.682   2.056   2.857  0.6608 -0.3001  2.0162
14633SOL     OW44806   2.584   7.220   2.597 -0.1052 -0.0760  0.1360
14633SOL    HW144807   2.643   7.265   2.658  0.1084 -1.5495  1.0621
14633SOL    HW244808   2.633   7.216   2.515  0.2890  0.4632  0.3413
14634SOL     OW44809   3.901   3.171   0.055 -0.3613  0.2927 -0.3101
14634SOL    HW144810   3.908   3.210   0.142 -0.6572  0.6243 -0.4313
14634SOL    HW244811   3.834   3.103   0.064 -1.5168  1.3550 -0.6303
14635SOL     OW44812   4.953   4.290   7.389 -0.1237 -0.3209  0.8255
14635SOL    HW144813   5.020   4.354   7.367 -0.7148  0.2534  0.6841
14635SOL    HW244814   4.992   4.206   7.365  0.5782 -0.0057  0.8279
14636SOL     OW44815   0.404   7.620   4.371  0.6257  0.0884 -0.2865
14636SOL    HW144816   0.333   7.641   4.432  0.4639  1.4979 -0.9158
14636SOL    HW244817   0.439   7.706   4.344  0.9869 -0.5087 -1.8246
14637SOL     OW44818   1.597   4.598   7.025  0.0619  0.0480 -0.1332
14637SOL    HW144819   1.647   4.521   7.001 -0.4484 -0.2436 -0.2707
14637SOL    HW244820   1.563   4.578   7.112  1.3285  0.8154  0.5643
14638SOL     OW44821   4.001   5.206   6.102 -0.4694 -0.0069  0.0641
14638SOL    HW144822   3.996   5.186   6.195 -2.3056 -1.2114 -0.2561
14638SOL    HW244823   3.919   5.252   6.082 -0.8690 -1.2080 -1.2519
14639SOL     OW44824   4.920   2.738   7.113 -0.6291 -0.2667  0.0917
14639SOL    HW144825   4.905   2.727   7.019  1.4183  3.2525 -0.8083
14639SOL    HW244826   4.987   2.673   7.134 -0.5921 -0.6299 -1.0436
14640SOL     OW44827   6.125   3.779   2.377  0.3819  0.7494 -0.4212
14640SOL    HW144828   6.134   3.684   2.389  1.2993  0.7550 -0.9641
14640SOL    HW244829   6.097   3.789   2.286 -0.6931  0.9697 -0.0827
14641SOL     OW44830   5.098   7.495   0.664 -0.1523  0.0530  0.5992
14641SOL    HW144831   5.023   7.552   0.680 -0.5335 -0.6259  1.2607
14641SOL    HW244832   5.061   7.414   0.628  0.4753  0.6126 -1.4873
14642SOL     OW44833   1.292   3.701   4.354 -0.1060  0.3565 -0.4514
14642SOL    HW144834   1.207   3.667   4.327 -2.1818  4.3911  0.3600
14642SOL    HW244835   1.291   3.696   4.449  1.8494 -1.9868 -0.4330
14643SOL     OW44836   0.516   1.433   6.433  0.0007  0.7490 -0.6035
14643SOL    HW144837   0.481   1.463   6.516  0.6064  0.4769 -0.2413
14643SOL    HW244838   0.523   1.512   6.379 -0.5605  0.8982 -0.4658
14644SOL     OW44839   0.786   2.766   5.112 -0.0300  0.6714 -0.2873
14644SOL    HW144840   0.800   2.712   5.190 -1.8842 -0.9509 -1.0047
14644SOL    HW244841   0.867   2.816   5.103  1.3916 -1.2454  1.0160
14645SOL     OW44842   4.026   4.281   5.393  0.0836  0.6023  0.2700
14645SOL    HW144843   4.025   4.198   5.440 -0.1885  0.1233 -0.5782
14645SOL    HW244844   3.934   4.298   5.372  0.2436  0.6405 -0.4020
14646SOL     OW44845   0.643   5.461   5.700 -0.6001  0.2624 -0.0198
14646SOL    HW144846   0.735   5.443   5.684 -0.8419 -0.0265 -1.1684
14646SOL    HW244847   0.640   5.490   5.791  0.4789 -0.7016  0.3535
14647SOL     OW44848   3.430   5.878   6.601 -0.1143 -0.3296  0.7944
14647SOL    HW144849   3.408   5.967   6.574  0.4585  0.8406  3.7836
14647SOL    HW244850   3.353   5.826   6.577 -1.1485  1.2929  0.4528
14648SOL     OW44851   1.904   3.907   0.120 -0.5285  0.1646 -0.0408
14648SOL    HW144852   1.958   3.982   0.094 -1.5366  1.1109  0.5673
14648SOL    HW244853   1.863   3.878   0.038 -0.6062  0.6495 -0.1758
14649SOL     OW44854   0.290   5.424   4.185 -0.1533 -0.0106 -0.0862
14649SOL    HW144855   0.272   5.367   4.111  1.8127 -0.7352 -0.0872
14649SOL    HW244856   0.308   5.509   4.147  0.3155 -0.2527 -0.4187
14650SOL     OW44857   6.284   6.359   2.436 -0.1579 -0.2069  0.6513
14650SOL    HW144858   6.371   6.397   2.452  0.4870 -0.8559 -1.1146
14650SOL    HW244859   6.299   6.264   2.437 -0.3769 -0.3178 -1.8049
14651SOL     OW44860   3.903   1.128   3.495  0.0496 -0.1493 -0.0343
14651SOL    HW144861   3.969   1.198   3.500 -1.2903  1.1022  0.9587
14651SOL    HW244862   3.941   1.056   3.545 -0.1936  1.3530  2.4673
14652SOL     OW44863   6.491   4.296   0.748  0.3053  0.3664 -0.1020
14652SOL    HW144864   6.556   4.331   0.688 -1.1187  1.5087 -1.0369
14652SOL    HW244865   6.417   4.356   0.741 -0.2736  0.0012  2.1025
14653SOL     OW44866   3.817   5.372   6.007  0.0287  0.2968 -0.3350
14653SOL    HW144867   3.801   5.434   6.078  1.2537  1.7160 -1.2198
14653SOL    HW244868   3.840   5.428   5.932  4.0278 -1.1804 -0.4690
14654SOL     OW44869   2.305   5.228   2.710 -0.2076  0.0581  0.8585
14654SOL    HW144870   2.220   5.185   2.697  0.2143 -0.8633  1.1184
14654SOL    HW244871   2.359   5.197   2.637 -0.1160  0.7356  0.6256
14655SOL     OW44872   0.808   0.202   7.718 -0.3188 -0.4470 -0.2519
14655SOL    HW144873   0.792   0.125   7.773 -2.0805 -0.0968 -0.2112
14655SOL    HW244874   0.775   0.275   7.769  1.2679  0.3748 -0.3252
14656SOL     OW44875   1.618   3.755   7.063 -0.6777 -0.3758  0.3323
14656SOL    HW144876   1.613   3.786   7.153 -2.0489 -0.7252  0.3987
14656SOL    HW244877   1.615   3.835   7.010  0.3749 -0.1546  0.5741
14657SOL     OW44878   5.989   0.299   6.368  0.5901 -0.4697 -0.6367
14657SOL    HW144879   5.988   0.392   6.348  0.3872 -0.5197 -0.8659
14657SOL    HW244880   5.919   0.287   6.432  1.2169 -0.3155  0.0896
14658SOL     OW44881   6.620   3.440   4.120 -0.1946  0.1847 -0.1625
14658SOL    HW144882   6.574   3.523   4.116 -0.1650  0.3730  1.9461
14658SOL    HW244883   6.682   3.442   4.047 -0.4424  1.8467 -0.3550
14659SOL     OW44884   2.263   4.781   7.688  0.3132  0.3580  0.1756
14659SOL    HW144885   2.249   4.846   7.619  1.4241 -1.2794 -1.7264
14659SOL    HW244886   2.187   4.788   7.745 -0.6689  1.7733 -1.2539
14660SOL     OW44887   1.906   0.503   1.001  0.3240  0.5861  0.2031
14660SOL    HW144888   1.983   0.560   0.992  0.2862  0.4498 -1.2451
14660SOL    HW244889   1.940   0.415   0.984 -0.0528  0.4630  0.0932
14661SOL     OW44890   6.202   2.543   7.561  0.6499 -0.7488 -0.0739
14661SOL    HW144891   6.267   2.502   7.618 -1.6077 -1.8198  1.9166
14661SOL    HW244892   6.227   2.635   7.558  2.7138 -1.2633 -0.1210
14662SOL     OW44893   5.626   0.534   3.608 -0.3185  0.4833  0.5088
14662SOL    HW144894   5.691   0.520   3.539  0.6914 -0.0067  1.5312
14662SOL    HW244895   5.630   0.628   3.625  0.6621  0.3555  1.0595
14663SOL     OW44896   2.101   0.710   0.939  0.3868  0.1520 -0.2057
14663SOL    HW144897   2.195   0.693   0.941  0.4481 -0.1669 -2.8712
14663SOL    HW244898   2.093   0.805   0.939  0.6826  0.1784  0.0730
14664SOL     OW44899   7.087   2.237   6.270 -0.4610 -0.0760 -0.1045
14664SOL    HW144900   7.157   2.225   6.206  0.7673  0.6683  1.0496
14664SOL    HW244901   7.019   2.286   6.222  0.1239 -0.1349 -1.0215
14665SOL     OW44902   3.854   6.319   3.846  0.3442 -0.0290 -0.6289
14665SOL    HW144903   3.780   6.359   3.800 -0.4390  0.5576  1.0808
14665SOL    HW244904   3.825   6.230   3.866  0.1458  0.1525 -0.0925
14666SOL     OW44905   1.736   5.038   5.058  0.2134  0.1425 -0.2950
14666SOL    HW144906   1.774   5.110   5.008  1.0307  0.1295  0.2792
14666SOL    HW244907   1.763   5.054   5.149  0.5071 -0.9297 -0.1715
14667SOL     OW44908   4.518   4.177   2.835  0.4057 -0.0798  0.0099
14667SOL    HW144909   4.581   4.129   2.889 -0.7886 -0.4095  1.1614
14667SOL    HW244910   4.511   4.263   2.875 -0.3620 -0.2679  0.3058
14668SOL     OW44911   3.509   7.402   1.868  0.5999  0.4573  0.4439
14668SOL    HW144912   3.481   7.408   1.777  1.8532  0.3828  0.0299
14668SOL    HW244913   3.481   7.484   1.908 -1.4072 -0.1857  0.4386
14669SOL     OW44914   1.422   3.850   6.656 -0.0785 -0.1911 -0.1291
14669SOL    HW144915   1.482   3.787   6.618 -0.5603 -0.3060 -0.7122
14669SOL    HW244916   1.446   3.934   6.617  0.2935 -0.0735  0.3351
14670SOL     OW44917   6.417   0.640   2.910  0.4099 -0.2446 -0.4483
14670SOL    HW144918   6.419   0.731   2.938 -0.0378 -0.7487  1.4201
14670SOL    HW244919   6.505   0.608   2.929 -0.2494 -0.9346  1.8969
14671SOL     OW44920   6.883   3.471   5.288 -0.1170 -0.4984 -0.2184
14671SOL    HW144921   6.824   3.397   5.280 -0.6955 -0.0534 -0.1258
14671SOL    HW244922   6.971   3.433   5.280 -0.4413 -0.8678 -2.9007
14672SOL     OW44923   4.977   4.563   6.632 -0.4102 -0.4136  0.9546
14672SOL    HW144924   5.029   4.488   6.660 -3.0999 -3.3270 -1.0723
14672SOL    HW244925   4.963   4.549   6.538  0.5072  3.7802 -0.0181
14673SOL     OW44926   1.312   3.476   4.574  0.7779  0.0184 -0.2412
14673SOL    HW144927   1.278   3.513   4.656  0.5985 -1.0125  0.1680
14673SOL    HW244928   1.234   3.446   4.527  0.9410 -0.1348 -0.4149
14674SOL     OW44929   1.791   6.683   2.294  0.3845 -0.2759  0.3648
14674SOL    HW144930   1.857   6.653   2.231  1.6108  0.8044  1.1109
14674SOL    HW244931   1.777   6.775   2.273 -2.8748 -0.9933 -1.4760
14675SOL     OW44932   1.068   7.409   5.237 -0.1664  0.0864  0.0310
14675SOL    HW144933   0.992   7.438   5.187 -1.7344 -1.1448  1.5698
14675SOL    HW244934   1.077   7.316   5.215  0.4310  0.0348  0.4639
14676SOL     OW44935   2.403   4.979   1.231 -0.3681 -0.5475 -0.0739
14676SOL    HW144936   2.364   5.007   1.148  0.0120 -0.0902 -0.1051
14676SOL    HW244937   2.344   5.012   1.298 -2.0219 -3.0093 -0.1897
14677SOL     OW44938   4.135   5.801   6.874 -0.3140 -0.2291  0.3200
14677SOL    HW144939   4.141   5.869   6.941 -1.7306  0.7807 -0.5265
14677SOL    HW244940   4.226   5.781   6.852  0.1385  1.0131  0.9623
14678SOL     OW44941   3.785   4.123   5.649 -0.2897 -0.2237 -0.3994
14678SOL    HW144942   3.741   4.202   5.617 -1.2355 -0.5492  0.0503
14678SOL    HW244943   3.776   4.060   5.577  1.7184  0.4842 -1.3399
14679SOL     OW44944   2.370   5.567   6.620 -0.5720  0.1216 -0.8146
14679SOL    HW144945   2.277   5.543   6.620 -0.5105 -0.1184 -1.2266
14679SOL    HW244946   2.371   5.657   6.653 -0.5918 -1.1862  3.2411
14680SOL     OW44947   2.371   2.971   4.444 -0.1890  0.0618  0.0009
14680SOL    HW144948   2.290   2.968   4.494  0.6409  1.8613  1.5976
14680SOL    HW244949   2.343   2.972   4.353 -1.9334  0.1528  0.5010
14681SOL     OW44950   5.957   2.474   7.690  0.1235 -0.3150  0.2364
14681SOL    HW144951   6.035   2.479   7.635 -0.7049  0.4489 -0.9186
14681SOL    HW244952   5.988   2.499   7.778  1.1815 -0.0786 -0.1888
14682SOL     OW44953   6.829   5.937   3.128 -0.3740 -0.0637  0.3266
14682SOL    HW144954   6.859   5.846   3.131 -0.1490  0.0134  2.5181
14682SOL    HW244955   6.827   5.959   3.035  1.0116 -1.8290 -0.1832
14683SOL     OW44956   0.209   1.892   2.487 -0.7740 -0.1630 -0.0994
14683SOL    HW144957   0.298   1.857   2.496 -1.0550 -0.4977  1.8680
14683SOL    HW244958   0.214   1.980   2.525 -1.0708  0.2055 -0.8976
14684SOL     OW44959   6.488   7.117   2.165 -0.3756 -0.0413 -0.7044
14684SOL    HW144960   6.397   7.117   2.195 -0.4192  1.8705 -0.7315
14684SOL    HW244961   6.507   7.024   2.148 -2.1178 -0.5477 -0.1551
14685SOL     OW44962   2.177   5.079   3.729 -0.2500 -0.1646 -0.3044
14685SOL    HW144963   2.164   5.092   3.823 -0.4411  2.1200 -0.5773
14685SOL    HW244964   2.093   5.103   3.690 -1.2229 -4.0584 -0.9549
14686SOL     OW44965   0.239   0.030   2.588  0.9859 -0.1393  0.2501
14686SOL    HW144966   0.156   0.067   2.617  0.9702  0.1548 -0.1644
14686SOL    HW244967   0.227   0.013   2.494  1.6019  0.4999  0.0441
14687SOL     OW44968   5.397   5.818   1.994 -0.1838 -0.4295 -0.5910
14687SOL    HW144969   5.425   5.877   2.063  0.7669 -0.1504 -1.1902
14687SOL    HW244970   5.302   5.814   2.002 -0.1007 -0.3378  0.6614
14688SOL     OW44971   0.861   2.208   6.221  0.3032 -0.5239 -0.6009
14688SOL    HW144972   0.812   2.284   6.190  0.9056 -0.6814 -1.9856
14688SOL    HW244973   0.797   2.156   6.269 -0.2844  0.4918 -0.2465
14689SOL     OW44974   1.689   3.854   5.717  0.0035  0.6984  1.0090
14689SOL    HW144975   1.665   3.943   5.745 -1.4407  0.3625  0.8674
14689SOL    HW244976   1.643   3.840   5.635  0.6108 -0.0172  0.7743
14690SOL     OW44977   4.271   1.719   5.155 -0.0918 -0.4940 -0.3664
14690SOL    HW144978   4.320   1.752   5.080  0.9088 -1.3258 -0.1051
14690SOL    HW244979   4.180   1.727   5.129  0.1113  1.7168 -0.6135
14691SOL     OW44980   2.117   0.916   2.512  0.1589 -0.5166 -0.0971
14691SOL    HW144981   2.076   0.978   2.572 -0.1445 -2.4027  1.7693
14691SOL    HW244982   2.204   0.953   2.494  0.7626 -0.4826  2.5673
14692SOL     OW44983   2.473   4.931   1.763  0.3770  0.1376  0.0470
14692SOL    HW144984   2.536   4.868   1.796 -1.1451 -0.8766  1.1347
14692SOL    HW244985   2.460   4.992   1.835 -1.3576 -0.8453  0.6223
14693SOL     OW44986   1.544   7.316   5.503 -0.0859 -0.1470  0.0822
14693SOL    HW144987   1.462   7.317   5.454 -0.7866 -0.3613  1.2041
14693SOL    HW244988   1.584   7.231   5.484  1.6037  1.1656 -3.1174
14694SOL     OW44989   4.955   6.914   4.408 -0.0391  0.0261 -0.3274
14694SOL    HW144990   5.008   6.858   4.351  0.4057 -0.3951  0.4723
14694SOL    HW244991   5.015   6.941   4.477 -0.4402  0.9392 -0.3323
14695SOL     OW44992   7.239   5.121   2.754  0.3577 -0.0650 -0.0827
14695SOL    HW144993   7.213   5.068   2.678  1.7866 -0.0181 -0.6336
14695SOL    HW244994   7.229   5.062   2.828 -0.3594 -0.3382 -0.3770
14696SOL     OW44995   0.857   5.959   7.747 -0.6379 -0.4438  0.3775
14696SOL    HW144996   0.902   5.889   7.794  0.0584  0.2277  0.7316
14696SOL    HW244997   0.779   5.918   7.710  0.3378 -1.6830 -0.3846
14697SOL     OW44998   1.992   7.398   0.480  0.4298  0.1441 -0.5056
14697SOL    HW144999   1.952   7.316   0.452  1.4472 -0.3051 -0.7146
14697SOL    HW245000   1.941   7.426   0.556 -1.4358  0.5859 -1.8614
14698SOL     OW45001   2.107   5.079   4.246 -0.9417  0.0257  0.2565
14698SOL    HW145002   2.040   5.015   4.273 -1.3181  0.4117  0.2418
14698SOL    HW245003   2.126   5.128   4.326 -2.2554  1.3540 -0.2251
14699SOL     OW45004   2.646   0.342   0.707 -0.0745 -0.2219 -0.7588
14699SOL    HW145005   2.696   0.376   0.633 -1.3572 -0.1053 -1.6038
14699SOL    HW245006   2.563   0.391   0.704 -0.0146  0.0316  0.9708
14700SOL     OW45007   4.643   5.634   6.606  0.1044 -0.5222 -0.0583
14700SOL    HW145008   4.596   5.577   6.667  3.0236 -2.3231  0.6447
14700SOL    HW245009   4.685   5.700   6.662  1.1621 -0.9760 -0.3011
14701SOL     OW45010   0.442   6.983   5.880  0.4014  0.2158 -0.1701
14701SOL    HW145011   0.406   6.928   5.811 -1.1963  1.1345 -0.1041
14701SOL    HW245012   0.505   7.039   5.834 -2.1074  2.2527 -1.3928
14702SOL     OW45013   6.760   4.413   4.644 -0.5883  0.5374 -0.0303
14702SOL    HW145014   6.817   4.429   4.718  0.9208  0.0727 -1.0499
14702SOL    HW245015   6.712   4.334   4.667 -0.6553  0.7875  0.7246
14703SOL     OW45016   7.246   2.225   6.036 -0.2887 -0.0489  0.6139
14703SOL    HW145017   7.225   2.133   6.020 -2.3570  0.5900 -0.8725
14703SOL    HW245018   7.338   2.234   6.008 -0.9865 -1.0494 -2.3866
14704SOL     OW45019   4.524   2.508   7.228  0.3551  0.3735  0.1285
14704SOL    HW145020   4.507   2.600   7.209 -3.1191 -0.1653 -0.0512
14704SOL    HW245021   4.439   2.473   7.253  1.1537 -3.2023 -1.5208
14705SOL     OW45022   1.347   2.773   6.353  0.3312 -0.4807 -0.0922
14705SOL    HW145023   1.396   2.850   6.324 -2.5763  1.2764 -0.7062
14705SOL    HW245024   1.405   2.699   6.333  1.4419  1.1709 -3.8237
14706SOL     OW45025   0.061   2.618   6.387 -0.2427  0.3658  0.0071
14706SOL    HW145026   0.066   2.561   6.464  0.2268 -1.4513 -1.3354
14706SOL    HW245027   0.141   2.672   6.392 -1.1373  1.6554  1.7730
14707SOL     OW45028   1.852   3.360   4.831 -0.1420  0.1467  0.1455
14707SOL    HW145029   1.923   3.340   4.769 -0.4821  0.4664 -0.3583
14707SOL    HW245030   1.897   3.380   4.913  0.2816 -1.1185  0.2543
14708SOL     OW45031   6.860   0.532   5.744 -0.2669 -0.0125  0.4281
14708SOL    HW145032   6.835   0.624   5.733  0.4572  0.1615  0.1909
14708SOL    HW245033   6.951   0.528   5.716  0.1892 -0.4990  1.8556
14709SOL     OW45034   1.125   2.607   5.462  0.5389 -0.2002 -0.1125
14709SOL    HW145035   1.158   2.517   5.459  0.2610 -0.2818 -1.0964
14709SOL    HW245036   1.149   2.644   5.376  2.6807  1.4089  1.0652
14710SOL     OW45037   4.281   6.920   2.101  0.6537 -0.0006  0.4065
14710SOL    HW145038   4.360   6.867   2.110 -0.1413 -1.4805 -0.8993
14710SOL    HW245039   4.290   6.963   2.015  1.7666  2.9154  1.8464
14711SOL     OW45040   3.997   5.962   0.178  0.3337  0.3827  0.1751
14711SOL    HW145041   4.031   6.044   0.141 -0.2293  0.0886 -1.0483
14711SOL    HW245042   3.924   5.990   0.234  1.6505  0.8943  1.7092
14712SOL     OW45043   4.245   2.542   5.378  0.1156 -0.1040 -0.2808
14712SOL    HW145044   4.255   2.518   5.470  0.2507  0.2800 -0.1934
14712SOL    HW245045   4.151   2.541   5.362  0.0909 -0.1333 -0.1308
14713SOL     OW45046   0.514   2.874   1.051 -0.1596  0.2605 -0.1270
14713SOL    HW145047   0.586   2.925   1.088  0.8990 -0.9815 -0.4055
14713SOL    HW245048   0.555   2.794   1.019 -1.3741  0.2831 -1.9324
14714SOL     OW45049   0.018   5.542   1.509 -0.6054  0.3373 -0.5662
14714SOL    HW145050  -0.055   5.605   1.503 -1.7980 -1.0454 -1.3976
14714SOL    HW245051  -0.025   5.457   1.504  1.0492 -0.5311 -0.3770
14715SOL     OW45052   1.760   1.615   6.191  0.4971 -0.3253  0.0528
14715SOL    HW145053   1.825   1.571   6.246 -0.0867  0.5264  1.4756
14715SOL    HW245054   1.676   1.576   6.217  0.0236  1.2336  1.0017
14716SOL     OW45055   0.159   5.531   2.515  0.4016  0.2388  0.1810
14716SOL    HW145056   0.109   5.452   2.496 -1.4721  1.2859  0.4006
14716SOL    HW245057   0.109   5.574   2.585  1.3749  1.6011  0.0781
14717SOL     OW45058   2.821   4.036   6.335 -0.1553  0.2950 -0.2055
14717SOL    HW145059   2.863   3.961   6.292 -1.8281 -2.1587  2.0579
14717SOL    HW245060   2.744   4.054   6.281 -0.3653 -0.4309 -0.1630
14718SOL     OW45061   2.382   0.418   6.633  0.0750  0.3461 -0.1970
14718SOL    HW145062   2.397   0.338   6.685  2.4416  1.8541  1.6475
14718SOL    HW245063   2.303   0.457   6.672  1.6722  1.3283  2.3375
14719SOL     OW45064   4.622   2.325   0.071  0.4281 -0.2028  0.1688
14719SOL    HW145065   4.611   2.387   0.143  0.8900  0.9501 -0.7180
14719SOL    HW245066   4.702   2.353   0.027  1.8395 -2.6990  0.9433
14720SOL     OW45067   1.691   3.309   6.904 -0.3447 -0.0715  0.1291
14720SOL    HW145068   1.711   3.221   6.873 -0.5144 -0.2247  0.4496
14720SOL    HW245069   1.618   3.297   6.965 -0.8983  0.3885 -0.4364
14721SOL     OW45070   6.988   0.167   1.158  0.0463  0.2935  0.7405
14721SOL    HW145071   6.936   0.191   1.082  0.4551  1.1856  0.7341
14721SOL    HW245072   7.000   0.072   1.150 -0.7418  0.2330  0.2240
14722SOL     OW45073   6.473   4.778   0.282  0.1514 -0.1733 -0.2558
14722SOL    HW145074   6.413   4.770   0.356 -1.6374 -2.3987 -1.8175
14722SOL    HW245075   6.538   4.843   0.310 -2.2338  1.4172  2.0134
14723SOL     OW45076   2.459   0.127   5.316 -0.2057  0.6751 -0.3658
14723SOL    HW145077   2.533   0.067   5.312 -0.0490  0.6349  1.7954
14723SOL    HW245078   2.382   0.073   5.298 -0.0043 -0.0812  0.8895
14724SOL     OW45079   5.287   1.397   7.210 -0.2884 -0.1767 -0.6382
14724SOL    HW145080   5.297   1.469   7.272 -0.3248  0.7209 -1.6367
14724SOL    HW245081   5.375   1.381   7.176 -0.2601 -0.6913 -0.3313
14725SOL     OW45082   1.002   7.000   2.023 -0.4046 -0.3835 -0.1724
14725SOL    HW145083   1.074   7.021   1.963 -1.7837 -0.0714 -1.8155
14725SOL    HW245084   1.000   7.072   2.086 -0.1093  0.3004 -0.9329
14726SOL     OW45085   5.601   0.921   4.871 -0.0820 -0.6901  0.3397
14726SOL    HW145086   5.625   0.989   4.808 -0.2905 -2.1506 -1.4125
14726SOL    HW245087   5.684   0.879   4.894  0.2282  0.9283  2.4674
14727SOL     OW45088   6.693   1.283   0.990  0.1281  0.0671 -0.1963
14727SOL    HW145089   6.640   1.247   0.919 -2.3569  2.1070  0.4556
14727SOL    HW245090   6.749   1.348   0.947 -1.4657  1.3981 -0.3434
14728SOL     OW45091   4.270   2.007   2.676 -0.4000  0.3717 -0.4021
14728SOL    HW145092   4.317   2.023   2.758  0.8117  0.0785 -1.0169
14728SOL    HW245093   4.267   2.093   2.634  1.4994  0.0452 -1.3181
14729SOL     OW45094   3.623   1.823   3.496  0.1655  0.0877 -0.2414
14729SOL    HW145095   3.639   1.893   3.559 -1.2894  1.6431 -1.5020
14729SOL    HW245096   3.529   1.807   3.500 -0.0547  0.5354 -2.2515
14730SOL     OW45097   4.351   2.426   1.886 -0.4352 -0.2579  0.0163
14730SOL    HW145098   4.294   2.357   1.852  0.4089 -2.2092  2.2876
14730SOL    HW245099   4.425   2.379   1.924  0.3463  1.9487  1.3772
14731SOL     OW45100   1.114   1.022   6.478  0.0486  0.1310 -0.2274
14731SOL    HW145101   1.163   1.096   6.444  0.6386  1.4795  3.1552
14731SOL    HW245102   1.056   1.059   6.544 -2.1583 -2.0558 -0.7621
14732SOL     OW45103   6.800   1.855   4.769  0.0363  0.5272  0.1653
14732SOL    HW145104   6.790   1.950   4.758 -1.9369  0.6111  2.1667
14732SOL    HW245105   6.729   1.817   4.718  1.2519  0.0147 -1.2344
14733SOL     OW45106   2.511   1.432   1.495 -0.4477 -0.6204 -0.5500
14733SOL    HW145107   2.591   1.466   1.455  0.0538 -2.6151 -1.3826
14733SOL    HW245108   2.503   1.480   1.577  1.9938 -0.8106 -0.1088
14734SOL     OW45109   1.995   6.939   6.368  0.3310 -0.0516 -0.0196
14734SOL    HW145110   2.018   7.029   6.342 -0.9881 -0.1768 -1.7828
14734SOL    HW245111   1.970   6.947   6.460 -0.8864  1.6432 -0.4420
14735SOL     OW45112   6.280   6.162   7.311  0.5553 -0.2650 -0.1887
14735SOL    HW145113   6.345   6.210   7.362 -1.5041  1.5558  0.8779
14735SOL    HW245114   6.210   6.142   7.373  0.2096 -2.5652 -1.1817
14736SOL     OW45115   3.236   1.076   5.409 -0.4840  0.1741 -0.5466
14736SOL    HW145116   3.269   1.130   5.337  1.5497 -1.5996 -1.0394
14736SOL    HW245117   3.185   1.137   5.463 -0.0600  2.0877 -2.1856
14737SOL     OW45118   2.210   5.144   7.194  0.5829 -0.0686 -0.7779
14737SOL    HW145119   2.268   5.094   7.251  0.3526  1.8104  1.2401
14737SOL    HW245120   2.266   5.171   7.121  1.3690 -1.0343 -0.5501
14738SOL     OW45121   2.403   6.074   3.130 -0.4042 -0.0730 -0.1390
14738SOL    HW145122   2.451   6.156   3.141  0.0014 -0.2523 -0.5089
14738SOL    HW245123   2.468   6.006   3.148 -0.1494 -0.3459 -1.8689
14739SOL     OW45124   7.680   5.199   7.042 -0.0121 -0.2372  0.7207
14739SOL    HW145125   7.608   5.149   7.003  0.0988 -1.6711  2.2524
14739SOL    HW245126   7.753   5.137   7.046  1.2398  1.1090 -0.5267
14740SOL     OW45127   6.026   2.390   4.214 -0.0569 -0.1958  0.0534
14740SOL    HW145128   6.113   2.430   4.223  0.5340 -0.9631 -1.7776
14740SOL    HW245129   6.044   2.301   4.185 -1.4580 -0.4572 -0.0369
14741SOL     OW45130   0.059   6.357   2.080 -0.4253  0.0473 -0.4587
14741SOL    HW145131   0.021   6.424   2.137  0.2450  0.6231 -0.6730
14741SOL    HW245132  -0.003   6.284   2.084 -0.3764  0.0555  1.0508
14742SOL     OW45133   3.346   2.764   6.756  0.3844 -0.3167 -0.6187
14742SOL    HW145134   3.325   2.763   6.850  1.1615 -4.0130 -0.3387
14742SOL    HW245135   3.262   2.756   6.712 -0.0207  1.7711 -0.3556
14743SOL     OW45136   3.758   6.598   5.370  0.2504  0.5151 -0.0400
14743SOL    HW145137   3.772   6.685   5.409  0.2182  0.6226 -0.2628
14743SOL    HW245138   3.691   6.614   5.303  1.4873  0.6538 -1.2798
14744SOL     OW45139   6.877   5.602   0.466 -0.3353  0.2104  0.2102
14744SOL    HW145140   6.832   5.536   0.518  0.0141  1.1699  1.8011
14744SOL    HW245141   6.854   5.686   0.507  1.7365  0.8378  0.2300
14745SOL     OW45142   6.990   4.334   6.202 -0.2193  0.3028 -0.1526
14745SOL    HW145143   7.051   4.272   6.162 -0.3159 -0.0509  0.2404
14745SOL    HW245144   7.037   4.418   6.201  0.0492  0.1510 -0.3748
14746SOL     OW45145   1.618   7.101   3.971  0.4719  0.2007 -0.0560
14746SOL    HW145146   1.534   7.131   4.006 -0.5005 -0.6546 -1.5548
14746SOL    HW245147   1.665   7.065   4.047 -0.4406  0.8149  0.8188
14747SOL     OW45148   4.708   6.386   4.024  0.0122 -0.0334 -0.0974
14747SOL    HW145149   4.764   6.407   4.098  0.7390 -0.9185 -0.3782
14747SOL    HW245150   4.649   6.461   4.017 -0.4268 -0.1553  1.6964
14748SOL     OW45151   1.918   2.951   4.362 -0.2707 -0.3892 -0.3273
14748SOL    HW145152   1.850   2.894   4.397  0.1738  0.1075  1.4343
14748SOL    HW245153   1.874   3.034   4.345 -0.0051  0.1779  1.5372
14749SOL     OW45154   2.682   6.809   7.365 -0.2803 -0.5090 -0.1581
14749SOL    HW145155   2.648   6.845   7.283 -0.7313 -0.6596 -0.0384
14749SOL    HW245156   2.764   6.767   7.340  0.0281  0.2023 -0.3782
14750SOL     OW45157   5.239   0.962   7.271  0.6615 -0.0726 -0.0714
14750SOL    HW145158   5.292   0.924   7.340  0.7174  0.1706  0.0218
14750SOL    HW245159   5.197   1.038   7.312 -0.9127 -1.0815  0.2805
14751SOL     OW45160   1.026   5.852   0.186 -0.7972  0.3170  0.3807
14751SOL    HW145161   1.111   5.888   0.212 -0.3574 -0.9400  0.7876
14751SOL    HW245162   0.963   5.899   0.240 -0.3461  1.0931  0.2515
14752SOL     OW45163   0.068   4.061   1.997  0.5683 -0.3565  0.2201
14752SOL    HW145164   0.035   4.002   1.929 -2.0508  0.7291  0.4225
14752SOL    HW245165   0.084   4.005   2.072 -1.8395 -0.9002  0.4030
14753SOL     OW45166   4.165   5.164   7.694 -0.5077 -0.1699 -1.2331
14753SOL    HW145167   4.150   5.153   7.600  1.1144  0.0923 -1.5541
14753SOL    HW245168   4.226   5.237   7.701 -2.0260  1.0339  0.1693
14754SOL     OW45169   5.260   2.422   0.042  0.0361 -0.3344  0.1915
14754SOL    HW145170   5.239   2.350   0.101  0.2784 -0.2073  0.4357
14754SOL    HW245171   5.324   2.474   0.090 -1.5473  1.1177  0.7982
14755SOL     OW45172   3.102   3.025   2.971  0.0593 -0.5054 -0.2922
14755SOL    HW145173   3.100   3.086   3.045 -2.3023  0.1946 -0.8295
14755SOL    HW245174   3.150   3.071   2.903  0.0318 -0.0808 -0.0274
14756SOL     OW45175   0.819   0.820   0.585  0.2318 -0.4883 -0.2397
14756SOL    HW145176   0.814   0.787   0.675 -0.4231 -2.4617 -0.9394
14756SOL    HW245177   0.737   0.868   0.573  1.6782  2.5939  1.1488
14757SOL     OW45178   5.250   5.090   5.870  0.2847 -0.2611 -0.2491
14757SOL    HW145179   5.271   5.178   5.900  0.4899 -0.7088  0.9687
14757SOL    HW245180   5.330   5.039   5.884  0.1813 -0.6472 -0.9663
14758SOL     OW45181   7.225   5.191   3.384  0.2142  0.0115  0.2476
14758SOL    HW145182   7.262   5.248   3.316  0.3124  1.9180  1.8164
14758SOL    HW245183   7.287   5.119   3.391  1.3199  0.8871 -0.2162
14759SOL     OW45184   4.135   1.998   0.148 -0.2119  0.7302 -0.0373
14759SOL    HW145185   4.183   1.927   0.190  0.0467  1.2955  0.6423
14759SOL    HW245186   4.076   1.954   0.086  0.4236 -0.0263 -0.1188
14760SOL     OW45187   2.151   7.054   0.695  0.2725 -0.4489  0.0082
14760SOL    HW145188   2.136   6.991   0.766  0.3711  0.2260  0.6367
14760SOL    HW245189   2.065   7.092   0.678  0.4112  0.0585  0.4124
14761SOL     OW45190   1.256   3.011   3.575 -0.0294 -0.4047 -0.1726
14761SOL    HW145191   1.174   3.021   3.527 -0.2772 -0.7405  0.1830
14761SOL    HW245192   1.230   2.989   3.664  0.3708  1.7384  0.5478
14762SOL     OW45193   0.264   2.754   4.402 -0.0027 -0.1314  0.0330
14762SOL    HW145194   0.312   2.810   4.463  3.2809 -2.1374 -0.4888
14762SOL    HW245195   0.193   2.716   4.455 -1.0992  2.8174  0.8790
14763SOL     OW45196   7.479   1.725   5.516 -0.0685 -0.0173 -0.3042
14763SOL    HW145197   7.388   1.699   5.508 -0.4423  1.4281 -1.1386
14763SOL    HW245198   7.499   1.715   5.610 -1.1314 -0.1463 -0.0818
14764SOL     OW45199   0.268   2.250   5.294  0.3970  0.1722 -0.1176
14764SOL    HW145200   0.269   2.284   5.205  0.8024  0.4195 -0.0247
14764SOL    HW245201   0.343   2.190   5.299  1.3326  1.3373  0.4837
14765SOL     OW45202   3.534   1.380   3.519  0.3080 -0.1760  0.4023
14765SOL    HW145203   3.612   1.376   3.464 -0.2809 -0.1858 -0.4559
14765SOL    HW245204   3.469   1.424   3.465 -0.4849 -0.7648  0.8574
14766SOL     OW45205   0.372   7.735   7.050  0.0095 -0.8326 -0.2078
14766SOL    HW145206   0.278   7.715   7.046 -0.0098 -1.5277  1.9944
14766SOL    HW245207   0.376   7.825   7.083  0.1120 -0.7592 -0.4219
14767SOL     OW45208   4.942   4.504   1.061  0.0355  0.1267  0.3081
14767SOL    HW145209   4.850   4.516   1.039  0.0459  0.3732  0.3967
14767SOL    HW245210   4.950   4.538   1.150  0.5983  1.8860 -0.3733
14768SOL     OW45211   1.321   0.808   6.962 -0.1326  0.3315  0.1612
14768SOL    HW145212   1.258   0.878   6.944 -1.5932 -0.8975  0.3327
14768SOL    HW245213   1.375   0.804   6.883 -0.7154  0.9490 -0.2843
14769SOL     OW45214   7.442   6.019   6.864 -0.1044  0.0168  0.3354
14769SOL    HW145215   7.500   5.980   6.799 -0.5580 -0.6492  0.3182
14769SOL    HW245216   7.409   5.945   6.914  0.3858  0.5419  1.4596
14770SOL     OW45217   5.836   4.788   2.311 -0.0834 -0.4001  0.5552
14770SOL    HW145218   5.796   4.701   2.309 -0.6960 -0.1075 -1.0563
14770SOL    HW245219   5.902   4.785   2.242 -0.7374  0.6833 -0.1460
14771SOL     OW45220   3.240   0.897   6.811 -0.2923 -0.5471 -0.6475
14771SOL    HW145221   3.190   0.817   6.791  2.3318 -2.0877 -1.5106
14771SOL    HW245222   3.316   0.892   6.753  0.2613  2.3226 -0.2644
14772SOL     OW45223   6.227   6.835   4.967  0.4695 -0.2180  0.1075
14772SOL    HW145224   6.274   6.770   4.916  0.3111  0.8504 -1.4809
14772SOL    HW245225   6.242   6.917   4.920 -0.9170  0.5624  0.9660
14773SOL     OW45226   2.503   6.468   6.504  0.2308  0.2008 -0.0968
14773SOL    HW145227   2.496   6.540   6.440 -0.9064 -0.6203 -0.9337
14773SOL    HW245228   2.451   6.496   6.578 -0.4077  0.1623 -0.5199
14774SOL     OW45229   7.174   3.255   1.752  0.3333  0.5712  0.1244
14774SOL    HW145230   7.247   3.249   1.690 -0.9983  0.9269 -1.5664
14774SOL    HW245231   7.172   3.170   1.795  0.1823 -0.3711 -1.6653
14775SOL     OW45232   7.648   0.872   2.287 -0.1024 -0.5432 -0.2701
14775SOL    HW145233   7.626   0.780   2.271 -0.9923 -0.3045 -0.4291
14775SOL    HW245234   7.679   0.904   2.202  0.0168 -0.6362 -0.2629
14776SOL     OW45235   7.651   3.672   1.950 -0.2586 -0.4865 -0.0345
14776SOL    HW145236   7.652   3.750   1.895 -0.2092 -0.4071  0.0771
14776SOL    HW245237   7.562   3.637   1.940  0.2371 -1.3849 -1.4174
14777SOL     OW45238   6.161   4.827   2.884  0.3727  0.0057  0.7551
14777SOL    HW145239   6.151   4.734   2.904  0.5020 -1.4742 -4.5471
14777SOL    HW245240   6.256   4.839   2.874  0.2147 -0.3424 -1.8590
14778SOL     OW45241   2.511   6.589   2.758 -0.0014  0.5092 -0.5555
14778SOL    HW145242   2.509   6.616   2.666  0.1139 -1.3545 -1.1599
14778SOL    HW245243   2.604   6.593   2.781 -0.1525  2.1140 -0.1200
14779SOL     OW45244   1.681   6.991   0.919 -0.9203  0.0780  0.0139
14779SOL    HW145245   1.747   6.946   0.971 -1.2002  1.4407  1.6331
14779SOL    HW245246   1.598   6.951   0.945 -0.9202 -0.3684 -0.6460
14780SOL     OW45247   4.171   4.160   5.977  0.0410 -0.1371 -0.5451
14780SOL    HW145248   4.134   4.129   5.894 -1.4268  0.4215 -0.1256
14780SOL    HW245249   4.103   4.214   6.015  0.5561 -0.6598  1.2035
14781SOL     OW45250   2.105   1.489   2.347 -0.0363 -0.1861 -0.3530
14781SOL    HW145251   2.049   1.563   2.372  0.9500  0.0259  1.3693
14781SOL    HW245252   2.067   1.414   2.391 -0.0569 -0.4060 -0.7389
14782SOL     OW45253   4.674   4.157   5.282 -0.1025 -0.2225 -0.2277
14782SOL    HW145254   4.621   4.200   5.215  0.2114 -1.3637 -1.2473
14782SOL    HW245255   4.610   4.121   5.344 -0.3695  2.6988  1.3923
14783SOL     OW45256   3.950   5.710   3.003 -0.0856  0.0018 -0.0622
14783SOL    HW145257   3.882   5.648   2.976  0.2468 -0.4828  0.1981
14783SOL    HW245258   3.903   5.777   3.052 -0.3571 -0.4207  0.2664
14784SOL     OW45259   3.385   5.600   5.421 -0.2100  0.2259  0.3355
14784SOL    HW145260   3.477   5.578   5.408 -1.0651 -2.8768 -1.5806
14784SOL    HW245261   3.363   5.656   5.346 -0.2294 -0.3921 -0.1297
14785SOL     OW45262   7.029   6.223   3.642  0.1489 -0.1085  0.0442
14785SOL    HW145263   7.063   6.268   3.719  1.4255 -0.0639 -0.5243
14785SOL    HW245264   6.936   6.209   3.661 -0.0239  1.7246  0.7123
14786SOL     OW45265   5.176   5.069   1.886  0.5756 -0.0808 -0.1980
14786SOL    HW145266   5.246   5.007   1.863  0.8788 -0.0855  0.6962
14786SOL    HW245267   5.220   5.154   1.890  0.3495  0.0525 -0.4825
14787SOL     OW45268   1.772   3.819   5.233 -0.5770 -0.2217 -0.1510
14787SOL    HW145269   1.809   3.879   5.298  0.1347 -1.1859  0.3604
14787SOL    HW245270   1.756   3.874   5.156 -2.0491  1.0899  1.0173
14788SOL     OW45271   6.254   7.008   5.863 -0.4334  0.4639  0.3309
14788SOL    HW145272   6.212   6.964   5.937 -1.5950 -0.1931 -0.6726
14788SOL    HW245273   6.343   6.973   5.862 -0.8816 -0.7149  0.4715
14789SOL     OW45274   4.111   4.488   6.799  0.1535 -0.4914  0.0756
14789SOL    HW145275   4.132   4.580   6.815 -1.6545  0.2599 -1.4953
14789SOL    HW245276   4.193   4.450   6.767  1.0792  0.4060  1.2898
14790SOL     OW45277   6.880   0.263   0.951 -0.0687 -0.1172  0.1052
14790SOL    HW145278   6.786   0.277   0.936 -0.0248 -0.7816 -0.8121
14790SOL    HW245279   6.918   0.350   0.939 -0.2826 -0.2452 -1.8813
14791SOL     OW45280   4.744   1.854   4.732 -0.4779 -0.0573  0.4028
14791SOL    HW145281   4.795   1.773   4.735 -1.3501 -0.6007  0.7705
14791SOL    HW245282   4.762   1.897   4.816  1.5435  1.1333 -0.5607
14792SOL     OW45283   2.364   6.691   5.512  0.3307 -0.6313 -0.1575
14792SOL    HW145284   2.379   6.725   5.600 -0.1436  1.0355 -0.6981
14792SOL    HW245285   2.333   6.601   5.527  0.4721 -0.4589  1.3510
14793SOL     OW45286   0.663   0.638   5.600  0.4562 -0.4614 -0.5828
14793SOL    HW145287   0.666   0.670   5.510 -1.3495  2.4145  0.2632
14793SOL    HW245288   0.577   0.597   5.608  0.2666  0.0301  0.0152
14794SOL     OW45289   1.273   7.573   5.934 -0.7114  0.3058  0.2725
14794SOL    HW145290   1.250   7.506   5.999  0.9391 -1.7449 -1.1113
14794SOL    HW245291   1.361   7.601   5.959 -1.1141  1.4751  0.4200
14795SOL     OW45292   2.546   2.629   6.761 -0.4417  0.6791 -0.2303
14795SOL    HW145293   2.529   2.679   6.681 -0.3900  0.0932 -0.6117
14795SOL    HW245294   2.461   2.594   6.786  0.0410 -2.1539 -2.0734
14796SOL     OW45295   5.575   6.632   7.319  0.6062 -0.0970 -0.3582
14796SOL    HW145296   5.584   6.728   7.322  1.5605 -0.1505 -0.8225
14796SOL    HW245297   5.487   6.617   7.287  1.0897  0.6693 -2.1693
14797SOL     OW45298   4.582   2.457   3.268 -0.1684  0.2499 -0.2178
14797SOL    HW145299   4.612   2.375   3.309 -1.6451 -0.7533 -1.0646
14797SOL    HW245300   4.528   2.498   3.336  0.7328  0.6428  0.2803
14798SOL     OW45301   7.145   2.739   3.716 -0.0733  0.4543 -0.9787
14798SOL    HW145302   7.064   2.736   3.767 -0.2183  1.1912 -1.1445
14798SOL    HW245303   7.116   2.735   3.625  0.0733  0.6941 -1.0373
14799SOL     OW45304   2.933   7.615   3.524 -0.5825 -0.2718 -0.6161
14799SOL    HW145305   2.866   7.617   3.456  0.9617  1.6381 -2.2214
14799SOL    HW245306   2.922   7.531   3.567 -3.5621 -0.2804 -1.2143
14800SOL     OW45307   5.163   1.709   6.916 -0.0125  0.2993  0.3034
14800SOL    HW145308   5.217   1.678   6.843 -0.4054  0.9717 -0.2848
14800SOL    HW245309   5.079   1.731   6.877 -0.9111 -1.1983  1.2971
14801SOL     OW45310   6.192   3.186   1.785  0.0924  0.1200  0.4315
14801SOL    HW145311   6.098   3.203   1.778  0.5604  2.8433 -0.6219
14801SOL    HW245312   6.214   3.209   1.876 -0.3161 -0.9599  0.8097
14802SOL     OW45313   0.196   4.813   3.527  0.3685 -0.6058  0.2528
14802SOL    HW145314   0.217   4.883   3.588  1.1000 -0.9076  0.3586
14802SOL    HW245315   0.230   4.844   3.442 -1.0275  0.0032 -0.1151
14803SOL     OW45316   0.399   2.720   0.756 -0.2086  0.7294 -0.5700
14803SOL    HW145317   0.408   2.773   0.677  0.7191  1.3060 -0.0989
14803SOL    HW245318   0.306   2.721   0.776 -0.7072 -0.7215 -2.5171
14804SOL     OW45319   4.917   1.336   5.390  0.5008 -0.2938 -0.3648
14804SOL    HW145320   5.003   1.365   5.360  0.8214 -0.3564  0.4531
14804SOL    HW245321   4.932   1.247   5.422  0.4930  0.2273  1.2206
14805SOL     OW45322   4.530   4.934   4.349 -0.2529 -0.0671  0.3247
14805SOL    HW145323   4.520   5.027   4.330 -0.4274 -0.3413 -1.0506
14805SOL    HW245324   4.536   4.929   4.444 -2.7908  1.1173  0.6243
14806SOL     OW45325   6.765   2.820   7.578  0.2537  0.2458  0.4321
14806SOL    HW145326   6.828   2.762   7.619 -1.2699 -2.2631 -0.5399
14806SOL    HW245327   6.777   2.807   7.484 -1.4213 -0.0747  0.2189
14807SOL     OW45328   4.829   3.316   6.473 -0.4001  0.4248 -0.1082
14807SOL    HW145329   4.776   3.360   6.540  1.8330 -0.8746  2.7182
14807SOL    HW245330   4.902   3.376   6.457  0.2755 -0.2485  0.3733
14808SOL     OW45331   1.065   0.650   0.957 -0.3997 -0.2890 -0.3264
14808SOL    HW145332   1.132   0.718   0.949 -0.6736  0.1281  0.6691
14808SOL    HW245333   1.048   0.645   1.052 -0.2999 -1.8288 -0.3648
14809SOL     OW45334   6.525   5.158   1.071 -0.7589 -0.0196  0.2934
14809SOL    HW145335   6.521   5.066   1.097 -0.9029  0.2388  1.2095
14809SOL    HW245336   6.450   5.169   1.013  0.8688 -1.1827 -2.2480
14810SOL     OW45337   1.626   3.251   2.776 -0.6395  0.3347  0.3391
14810SOL    HW145338   1.644   3.161   2.748 -1.5670  0.5892 -1.1691
14810SOL    HW245339   1.573   3.241   2.855 -1.1693 -0.4604 -0.1011
14811SOL     OW45340   3.355   5.306   3.857  0.3696 -0.0201 -0.4443
14811SOL    HW145341   3.396   5.257   3.786 -1.6656 -0.4856 -1.3779
14811SOL    HW245342   3.261   5.302   3.838 -0.0747  1.8336  1.0108
14812SOL     OW45343   7.284   3.614   0.458  0.1526 -0.0356 -0.0140
14812SOL    HW145344   7.289   3.542   0.520  1.8594  2.3630  2.9284
14812SOL    HW245345   7.217   3.673   0.495  1.2104  1.4609 -0.3766
14813SOL     OW45346   2.700   1.998   4.527  0.2185  0.6752  0.0955
14813SOL    HW145347   2.732   1.986   4.438  0.4591 -0.5029  0.3232
14813SOL    HW245348   2.779   2.014   4.579  0.1505  0.6835  0.1967
14814SOL     OW45349   6.862   7.461   0.251 -0.2475 -0.7323 -0.6462
14814SOL    HW145350   6.897   7.390   0.197  0.8709  0.4631 -1.5635
14814SOL    HW245351   6.837   7.529   0.189  4.2854  2.1470  0.2134
14815SOL     OW45352   4.253   7.152   2.256 -0.6487  0.5272  0.0298
14815SOL    HW145353   4.292   7.091   2.193  0.0957  0.5973  0.4072
14815SOL    HW245354   4.236   7.098   2.333  0.6293  0.9073  0.6079
14816SOL     OW45355   5.353   6.665   3.903  0.6302 -0.3982  1.4770
14816SOL    HW145356   5.393   6.580   3.922  1.6060  0.3773  3.0500
14816SOL    HW245357   5.377   6.721   3.977  0.8050  1.5402  0.0371
14817SOL     OW45358   2.128   6.809   0.310 -0.3048  0.1634  0.1742
14817SOL    HW145359   2.120   6.782   0.218 -0.6931  1.0880 -0.0716
14817SOL    HW245360   2.105   6.902   0.310 -0.5519  0.1158  1.2502
14818SOL     OW45361   7.727   0.392   2.036  0.0123  0.0388  0.2318
14818SOL    HW145362   7.699   0.354   1.953 -0.0582  0.3378  0.1173
14818SOL    HW245363   7.774   0.321   2.080  0.7497  0.1112 -0.4098
14819SOL     OW45364   7.579   0.205   7.454  0.0845 -0.0891 -0.2315
14819SOL    HW145365   7.511   0.150   7.415  0.5583  0.1195 -1.3846
14819SOL    HW245366   7.602   0.268   7.386  2.2707 -0.8940 -0.3261
14820SOL     OW45367   0.138   5.421   5.919 -0.4783 -0.2508  0.9814
14820SOL    HW145368   0.077   5.356   5.955  0.3901 -1.5234  0.2187
14820SOL    HW245369   0.095   5.453   5.839  0.6107 -2.5655 -0.6370
14821SOL     OW45370   3.270   6.348   1.937 -0.2291  0.2057  0.2136
14821SOL    HW145371   3.268   6.440   1.963 -1.1784  0.1240  0.4500
14821SOL    HW245372   3.361   6.332   1.914  0.2197  0.8436  1.4632
14822SOL     OW45373   0.033   1.168   1.703  0.3016 -0.2356  0.0197
14822SOL    HW145374   0.019   1.099   1.637 -2.5283  1.8160 -1.7829
14822SOL    HW245375   0.096   1.227   1.663 -1.2313  0.8796 -0.8705
14823SOL     OW45376   1.666   2.876   4.378 -0.4253 -0.4446 -0.7616
14823SOL    HW145377   1.680   2.906   4.288 -1.7349 -1.7930 -1.4689
14823SOL    HW245378   1.584   2.917   4.405  0.5942  0.9743  0.3380
14824SOL     OW45379   0.936   0.800   6.008 -0.0549  0.3183  0.2509
14824SOL    HW145380   0.841   0.809   6.000 -0.0055  0.3620 -0.4167
14824SOL    HW245381   0.962   0.755   5.928  0.4535  0.0311  0.5741
14825SOL     OW45382   0.938   2.979   4.637 -0.2367 -0.4730 -0.4347
14825SOL    HW145383   0.864   2.934   4.596  0.3463 -2.2465  0.3464
14825SOL    HW245384   0.940   3.065   4.595 -2.1175 -0.7430 -1.1825
14826SOL     OW45385   7.390   1.529   3.477  0.3733  0.1109  0.3372
14826SOL    HW145386   7.474   1.553   3.438  0.6752  0.2975  1.0888
14826SOL    HW245387   7.356   1.610   3.513 -0.9790  0.4214 -1.4775
14827SOL     OW45388   0.771   6.069   4.174  0.5134 -0.1802  0.2580
14827SOL    HW145389   0.706   6.117   4.226 -0.3366 -1.6198  0.5750
14827SOL    HW245390   0.739   6.076   4.084  1.1136  0.9522  0.1227
14828SOL     OW45391   3.805   5.414   1.483  0.1586 -0.2510  0.0238
14828SOL    HW145392   3.808   5.445   1.392  2.5004  0.1332  0.1688
14828SOL    HW245393   3.894   5.430   1.516  0.1000 -2.7316  1.5884
14829SOL     OW45394   3.146   2.434   5.013 -0.5865 -0.1807 -0.3671
14829SOL    HW145395   3.135   2.339   5.017 -0.1212 -0.2979 -1.4595
14829SOL    HW245396   3.183   2.458   5.097  1.9364 -1.3494 -1.0345
14830SOL     OW45397   3.697   3.064   0.711  0.1642 -0.1176 -0.0207
14830SOL    HW145398   3.699   3.043   0.618 -0.1773 -0.1041 -0.0334
14830SOL    HW245399   3.723   3.156   0.715 -1.5678  0.4125 -0.2809
14831SOL     OW45400   7.325   4.803   4.506  0.4860  0.2356 -0.2261
14831SOL    HW145401   7.391   4.769   4.566  1.8507  0.5177 -1.5014
14831SOL    HW245402   7.333   4.748   4.428  0.7404  1.6254 -1.2185
14832SOL     OW45403   3.070   4.840   0.149  0.0421 -0.5073 -0.5320
14832SOL    HW145404   2.986   4.796   0.163 -0.4780  0.5535 -0.2153
14832SOL    HW245405   3.075   4.852   0.055 -0.2339 -0.4386 -0.5397
14833SOL     OW45406   2.501   7.388   5.377  0.1907 -0.5293 -0.1803
14833SOL    HW145407   2.468   7.313   5.426 -1.3817  1.3533  1.8427
14833SOL    HW245408   2.453   7.387   5.294  1.0279 -2.3429 -0.6808
14834SOL     OW45409   2.667   4.447   5.589  0.7080 -0.5352  0.3699
14834SOL    HW145410   2.717   4.376   5.548  0.7658 -0.0754 -0.3874
14834SOL    HW245411   2.660   4.513   5.520 -1.9215 -1.0322  0.0622
14835SOL     OW45412   1.467   2.876   3.697  0.0650 -0.0386  0.7133
14835SOL    HW145413   1.422   2.920   3.626  0.6734  1.2457  1.0924
14835SOL    HW245414   1.560   2.898   3.684  0.5383 -2.0631  0.3246
14836SOL     OW45415   2.304   1.720   4.124  0.2532 -0.0870  0.1487
14836SOL    HW145416   2.292   1.689   4.213 -2.4923 -1.1871 -0.5000
14836SOL    HW245417   2.333   1.643   4.075  1.2174  0.3748 -0.0242
14837SOL     OW45418   7.368   6.944   2.315  0.2600  0.7945  0.2485
14837SOL    HW145419   7.378   6.856   2.277 -2.8792 -0.0051  1.0107
14837SOL    HW245420   7.371   6.929   2.409  1.2477  1.7873  0.3946
14838SOL     OW45421   6.310   1.981   7.280  0.4330  0.2937 -0.3845
14838SOL    HW145422   6.403   1.963   7.298  0.1013  0.4889  1.7837
14838SOL    HW245423   6.272   1.995   7.366 -1.9744 -1.3932 -1.0817
14839SOL     OW45424   4.374   6.086   3.763  0.1914  0.3260 -0.3610
14839SOL    HW145425   4.392   6.070   3.856 -0.7053 -2.5821 -0.5898
14839SOL    HW245426   4.386   6.001   3.721 -0.1245  1.4132 -2.8118
14840SOL     OW45427   6.235   1.162   0.850  0.5808 -0.2683  0.0523
14840SOL    HW145428   6.227   1.097   0.781  1.2623 -1.1865  0.8219
14840SOL    HW245429   6.220   1.114   0.931 -1.6547  1.0605  0.5139
14841SOL     OW45430   1.844   2.913   2.958 -0.2008 -0.4039 -0.2492
14841SOL    HW145431   1.932   2.876   2.948 -0.4221 -1.0954  0.3334
14841SOL    HW245432   1.798   2.887   2.878  0.0543 -0.2320 -0.4522
14842SOL     OW45433   3.154   4.784   6.311 -0.0783 -0.3999 -0.0503
14842SOL    HW145434   3.083   4.848   6.301  0.6738  0.3223 -0.8376
14842SOL    HW245435   3.136   4.743   6.396  0.1931  1.8369  1.1740
14843SOL     OW45436   4.240   6.796   7.076  0.0990  0.3101 -0.0764
14843SOL    HW145437   4.198   6.809   6.991 -0.6101  0.9800  0.3606
14843SOL    HW245438   4.329   6.828   7.064  0.1665 -0.0936 -0.7103
14844SOL     OW45439   3.791   5.572   3.582  0.3528  0.4809 -0.0147
14844SOL    HW145440   3.781   5.477   3.574  1.3680  0.4066 -0.5024
14844SOL    HW245441   3.722   5.608   3.527 -0.4730  0.0373  0.7097
14845SOL     OW45442   6.909   1.891   5.680 -0.7140  0.6618 -0.3461
14845SOL    HW145443   6.874   1.826   5.741 -0.1694  0.4904 -0.2105
14845SOL    HW245444   6.875   1.865   5.595  0.1342 -0.2699 -0.4137
14846SOL     OW45445   0.559   7.235   6.654  0.4817  0.2729  0.4057
14846SOL    HW145446   0.612   7.257   6.731 -0.4301  1.8061  0.6375
14846SOL    HW245447   0.622   7.229   6.582  1.0655  1.3174  0.8152
14847SOL     OW45448   6.150   3.845   2.830 -0.3852 -0.9751  0.5930
14847SOL    HW145449   6.086   3.879   2.767  1.0460  0.6930 -0.0514
14847SOL    HW245450   6.121   3.878   2.915  0.3065  1.0115  0.1290
14848SOL     OW45451   0.670   1.867   4.888 -0.0694 -0.4074  0.0712
14848SOL    HW145452   0.610   1.941   4.899  2.3040  1.8934 -1.3660
14848SOL    HW245453   0.674   1.827   4.975 -1.0058  1.5274  1.0717
14849SOL     OW45454   1.832   7.541   2.415 -0.0108 -0.1036  0.3028
14849SOL    HW145455   1.903   7.591   2.375  0.2203  0.9830  1.9700
14849SOL    HW245456   1.872   7.458   2.440  0.5028  0.2317  0.6070
14850SOL     OW45457   2.575   2.720   0.002  0.1620 -0.5311 -0.6560
14850SOL    HW145458   2.544   2.784  -0.062  0.0504  1.4799  1.3055
14850SOL    HW245459   2.667   2.744   0.017 -0.0380 -0.4466  0.5094
14851SOL     OW45460   0.795   2.200   4.643  0.1711  0.2509 -0.5495
14851SOL    HW145461   0.700   2.184   4.645 -0.5916  3.7712 -1.5308
14851SOL    HW245462   0.814   2.218   4.551  1.5145  0.9266 -0.1543
14852SOL     OW45463   6.417   4.333   2.596 -0.2472 -0.6801  0.1076
14852SOL    HW145464   6.440   4.328   2.689 -1.3701  0.5468  0.4857
14852SOL    HW245465   6.501   4.339   2.551  0.3455 -1.9795  0.9791
14853SOL     OW45466   1.584   6.435   6.681  0.2014  0.0159 -0.3149
14853SOL    HW145467   1.606   6.346   6.707 -1.0589 -0.2857 -0.2452
14853SOL    HW245468   1.561   6.429   6.588 -0.0400  0.2362 -0.2712
14854SOL     OW45469   6.104   2.606   5.165 -0.2249  0.4298 -0.1248
14854SOL    HW145470   6.135   2.540   5.227 -1.6600  1.5327  1.8820
14854SOL    HW245471   6.175   2.614   5.101  0.6971 -1.8131  0.5200
14855SOL     OW45472   1.668   1.939   6.345  0.2429  0.0258  0.0210
14855SOL    HW145473   1.589   1.885   6.339 -1.4188  2.3549 -0.4526
14855SOL    HW245474   1.706   1.916   6.430 -0.2526 -1.9718 -0.2330
14856SOL     OW45475   6.296   7.581   3.574  0.4619  0.0119  0.2691
14856SOL    HW145476   6.203   7.589   3.594  0.5549 -0.7047  1.0346
14856SOL    HW245477   6.314   7.654   3.514 -0.7055 -0.1595 -0.3186
14857SOL     OW45478   7.483   7.606   6.783 -0.2763  0.4695  0.3452
14857SOL    HW145479   7.511   7.621   6.873  0.3412  1.0447  0.0631
14857SOL    HW245480   7.391   7.579   6.790 -0.4771  1.3089  1.0889
14858SOL     OW45481   2.792   5.444   6.636 -0.4949 -0.1314  0.2548
14858SOL    HW145482   2.781   5.538   6.619 -2.9454 -0.1882  1.1295
14858SOL    HW245483   2.787   5.404   6.549  0.2891  0.5245 -0.1023
14859SOL     OW45484   0.134   2.707   0.741 -0.0631 -0.3409  0.4692
14859SOL    HW145485   0.060   2.731   0.797 -0.7114  0.6517 -0.7608
14859SOL    HW245486   0.095   2.653   0.672  0.4644 -0.3196  0.1528
14860SOL     OW45487   3.376   6.762   6.062  0.2295  0.5620  0.0518
14860SOL    HW145488   3.309   6.789   6.125 -0.0749  0.1774 -0.1014
14860SOL    HW245489   3.458   6.762   6.112 -0.1177 -0.4803  0.6607
14861SOL     OW45490   7.095   1.372   6.679  0.1915 -0.1924 -0.7155
14861SOL    HW145491   7.074   1.280   6.699 -0.5986 -0.0169 -0.6865
14861SOL    HW245492   7.124   1.371   6.588 -2.2406 -0.1531 -1.5538
14862SOL     OW45493   5.843   3.128   3.479 -0.2406 -0.2113 -0.1511
14862SOL    HW145494   5.935   3.153   3.481 -0.5924  1.1594  1.1909
14862SOL    HW245495   5.844   3.032   3.474  1.2097 -0.1619 -2.2723
14863SOL     OW45496   6.204   5.725   2.911 -0.7290 -0.1916 -0.5451
14863SOL    HW145497   6.202   5.795   2.977  1.9070 -0.2862 -0.2777
14863SOL    HW245498   6.224   5.769   2.829 -0.1570 -0.5031 -0.5769
14864SOL     OW45499   3.788   6.766   6.580 -0.1099 -0.1869  0.2796
14864SOL    HW145500   3.774   6.697   6.515 -1.3908  0.8833 -0.6184
14864SOL    HW245501   3.719   6.752   6.645 -2.1021  1.7317 -1.2582
14865SOL     OW45502   3.443   4.545   5.656 -0.0629 -0.5049 -0.5398
14865SOL    HW145503   3.387   4.553   5.579 -0.1224 -2.7415 -0.7984
14865SOL    HW245504   3.387   4.574   5.729 -1.7002 -2.7862 -0.7711
14866SOL     OW45505   4.482   5.444   1.614 -0.2738 -0.3254  0.3846
14866SOL    HW145506   4.532   5.453   1.533 -0.4117 -0.7776  0.2477
14866SOL    HW245507   4.425   5.522   1.616  0.5613  0.2900  0.6409
14867SOL     OW45508   2.558   2.950   6.391  0.0157 -0.0562  0.0917
14867SOL    HW145509   2.632   2.931   6.334  0.5613  0.0660  0.7493
14867SOL    HW245510   2.562   3.045   6.405 -1.3940  0.2793 -1.3929
14868SOL     OW45511   3.404   1.607   4.860  0.3261  0.1870 -0.1509
14868SOL    HW145512   3.460   1.681   4.839  0.9338 -0.4212 -0.7551
14868SOL    HW245513   3.420   1.544   4.789 -2.0457  0.4794 -1.0430
14869SOL     OW45514   0.753   6.670   2.080 -0.6559 -0.3102  0.1257
14869SOL    HW145515   0.832   6.616   2.077 -0.8422 -0.6174  0.7519
14869SOL    HW245516   0.762   6.728   2.004  0.3469 -0.0891  0.3987
14870SOL     OW45517   0.271   6.744   4.722 -0.5424  0.1472  0.3405
14870SOL    HW145518   0.237   6.823   4.764 -0.5169 -0.9759  2.6087
14870SOL    HW245519   0.365   6.760   4.714 -0.7854  1.0852 -1.0108
14871SOL     OW45520   5.247   6.901   1.979  0.1790 -0.2128 -0.5816
14871SOL    HW145521   5.296   6.973   1.940  0.6866  1.9261  3.4758
14871SOL    HW245522   5.167   6.941   2.013 -1.3010 -2.3455 -1.3340
14872SOL     OW45523   3.076   2.079   2.670 -0.3539  0.6529  0.4120
14872SOL    HW145524   3.075   2.093   2.765  0.0627  2.2793  0.2056
14872SOL    HW245525   2.985   2.093   2.643 -0.5477 -0.1905  0.6097
14873SOL     OW45526   6.452   4.375   6.624 -0.5233  0.7434  0.6555
14873SOL    HW145527   6.376   4.370   6.682 -2.4537 -0.2212 -1.7557
14873SOL    HW245528   6.519   4.323   6.668 -1.9232 -0.0457  1.9778
14874SOL     OW45529   0.727   1.484   0.756 -0.0784  0.2657  0.5322
14874SOL    HW145530   0.668   1.485   0.681 -0.7146 -0.3812  1.0021
14874SOL    HW245531   0.799   1.427   0.730 -1.8180 -2.5739  1.4657
14875SOL     OW45532   7.726   3.794   4.836  0.4977 -0.3001 -0.3376
14875SOL    HW145533   7.789   3.736   4.793 -0.0159 -1.4745  0.4567
14875SOL    HW245534   7.704   3.750   4.918 -1.1244  0.2507 -0.4483
14876SOL     OW45535   2.287   1.589   1.021  0.3674  0.5077 -0.0194
14876SOL    HW145536   2.204   1.631   1.004  1.2663  2.1924 -0.4562
14876SOL    HW245537   2.351   1.640   0.971  1.6848 -0.6640  0.3875
14877SOL     OW45538   7.333   6.729   3.117  0.4603 -0.0325 -0.3277
14877SOL    HW145539   7.289   6.650   3.084 -0.5423 -0.0875  1.0806
14877SOL    HW245540   7.264   6.781   3.158  1.4498  0.5775  0.6348
14878SOL     OW45541   5.765   4.495   3.063  0.3718  0.3438 -0.3555
14878SOL    HW145542   5.845   4.442   3.059  0.4271  0.3211  0.7034
14878SOL    HW245543   5.789   4.577   3.020  1.1998  0.6129  0.5832
14879SOL     OW45544   4.248   2.621   7.483 -0.8462 -0.5208 -0.0876
14879SOL    HW145545   4.216   2.555   7.421  0.6225  0.9806 -2.6521
14879SOL    HW245546   4.341   2.600   7.494 -0.8132 -0.0311  0.6678
14880SOL     OW45547   4.062   2.628   4.113  0.0739 -0.1469 -0.3344
14880SOL    HW145548   3.975   2.593   4.135 -0.2905 -0.5210 -2.1864
14880SOL    HW245549   4.117   2.551   4.101  0.7486  0.0944  1.0473
14881SOL     OW45550   4.836   1.696   3.036  0.5866 -0.5790  0.0137
14881SOL    HW145551   4.800   1.733   2.955  1.1988  0.0604  0.0210
14881SOL    HW245552   4.886   1.768   3.074 -1.6792 -0.0192  2.2328
14882SOL     OW45553   1.694   6.497   7.192  0.2101 -0.1130 -0.1987
14882SOL    HW145554   1.655   6.581   7.215  0.6149  0.0599 -0.1355
14882SOL    HW245555   1.712   6.455   7.277  0.2130 -0.1698 -0.2274
14883SOL     OW45556   6.099   5.820   1.026 -0.3801 -0.2339 -1.0456
14883SOL    HW145557   6.029   5.885   1.027 -0.2977 -0.0452  2.1361
14883SOL    HW245558   6.171   5.863   0.981 -0.7209  1.4823 -0.0409
14884SOL     OW45559   6.563   7.016   6.158  0.1931  0.0539  0.4833
14884SOL    HW145560   6.620   7.066   6.217  0.3353 -0.0319  0.4194
14884SOL    HW245561   6.522   6.951   6.214  0.4772 -0.1529  0.4524
14885SOL     OW45562   6.126   0.141   3.772 -0.6871 -0.0846 -1.2236
14885SOL    HW145563   6.209   0.189   3.774 -0.5988 -0.2255 -1.6011
14885SOL    HW245564   6.060   0.209   3.759 -0.8011  0.2493  0.7836
14886SOL     OW45565   3.565   3.593   1.207 -0.2462 -0.7073  0.0417
14886SOL    HW145566   3.654   3.622   1.192  0.0762 -2.0538 -0.8993
14886SOL    HW245567   3.513   3.642   1.143  0.3207 -2.2415 -1.6892
14887SOL     OW45568   0.333   6.301   5.734 -0.0851 -0.3555 -0.3220
14887SOL    HW145569   0.288   6.386   5.735  0.1297 -0.1982  2.4853
14887SOL    HW245570   0.267   6.238   5.761  0.5982 -0.5426  0.9817
14888SOL     OW45571   4.138   3.886   3.534 -0.0571 -0.0094 -0.3901
14888SOL    HW145572   4.047   3.897   3.507 -0.2186  1.6710  0.7029
14888SOL    HW245573   4.134   3.877   3.629  0.8895 -0.2575 -0.3607
14889SOL     OW45574   4.874   2.153   6.302  0.0670  0.3745 -0.9570
14889SOL    HW145575   4.960   2.111   6.311  1.0768  2.8164  2.8495
14889SOL    HW245576   4.862   2.162   6.207  2.3198 -3.0854 -1.7791
14890SOL     OW45577   0.273   1.510   4.591  0.2338  0.1892  0.0970
14890SOL    HW145578   0.260   1.505   4.496 -0.1886  2.1225  0.0104
14890SOL    HW245579   0.363   1.539   4.601 -0.2466  1.7372  0.1943
14891SOL     OW45580   6.145   0.738   4.830  0.7128  0.0043  0.4633
14891SOL    HW145581   6.083   0.722   4.759 -2.4818  1.8079  2.6378
14891SOL    HW245582   6.151   0.654   4.876  0.4558 -0.3665 -0.1606
14892SOL     OW45583   3.340   0.776   0.541 -0.7390 -0.3780 -1.1457
14892SOL    HW145584   3.424   0.758   0.498 -0.4727  1.8875 -1.7060
14892SOL    HW245585   3.360   0.774   0.634 -0.5281 -1.7699 -1.1900
14893SOL     OW45586   2.589   5.060   6.703  0.0190 -1.0847 -0.0148
14893SOL    HW145587   2.660   5.075   6.764  2.7291 -1.6047 -2.8006
14893SOL    HW245588   2.564   5.147   6.672 -1.6520 -0.7844  1.9836
14894SOL     OW45589   1.186   1.542   7.521 -0.2473 -0.1254  0.1084
14894SOL    HW145590   1.096   1.528   7.492  0.3235  1.7561 -2.9861
14894SOL    HW245591   1.224   1.454   7.522 -1.6043 -0.7451 -0.4700
14895SOL     OW45592   3.888   6.840   2.601  0.3002 -0.2016  0.3099
14895SOL    HW145593   3.868   6.782   2.674  2.4733  0.4046  1.4806
14895SOL    HW245594   3.851   6.925   2.625  3.6847  0.8810  2.3989
14896SOL     OW45595   3.648   5.910   4.105  0.7335 -0.1094 -0.0249
14896SOL    HW145596   3.653   5.827   4.058  1.1902  0.0336 -0.2370
14896SOL    HW245597   3.604   5.889   4.187  1.6719 -0.7382  0.3280
14897SOL     OW45598   3.567   1.883   6.739  0.3017  0.7188 -0.3427
14897SOL    HW145599   3.504   1.931   6.685  0.6113 -0.4381 -1.7705
14897SOL    HW245600   3.513   1.821   6.789  0.2757 -0.1981 -1.4845
14898SOL     OW45601   2.452   3.383   5.499 -0.3323  0.6614 -0.0777
14898SOL    HW145602   2.499   3.303   5.474  0.9127  1.3028  0.1464
14898SOL    HW245603   2.361   3.366   5.475  0.0752 -0.4600 -0.8917
14899SOL     OW45604   7.269   4.044   7.207 -0.4712 -0.1925 -0.2878
14899SOL    HW145605   7.205   4.110   7.231  0.0334  0.4151 -0.5781
14899SOL    HW245606   7.280   4.055   7.112 -0.8108 -1.0845 -0.4442
14900SOL     OW45607   0.916   1.917   3.935  0.0425  0.9394  0.1131
14900SOL    HW145608   0.852   1.884   3.998 -0.3006  2.0890  0.3982
14900SOL    HW245609   1.001   1.891   3.970 -0.2190  0.3058  0.2829
14901SOL     OW45610   4.093   3.761   5.467 -0.1467  0.0203  0.6277
14901SOL    HW145611   4.051   3.752   5.552  0.4039  0.5787  0.9696
14901SOL    HW245612   4.162   3.694   5.467 -0.0671  0.1011  0.6757
14902SOL     OW45613   2.087   3.936   1.670  0.8723  0.7244 -0.0692
14902SOL    HW145614   2.030   4.002   1.708  1.5797  1.0465  0.4504
14902SOL    HW245615   2.153   3.919   1.737  0.4131 -0.8893  0.0167
14903SOL     OW45616   3.175   3.854   0.861 -0.0385  0.3367  0.0636
14903SOL    HW145617   3.113   3.824   0.796  0.2854  0.0486 -0.1155
14903SOL    HW245618   3.156   3.947   0.871 -1.2084  0.0280  0.8076
14904SOL     OW45619   3.971   4.612   1.203  0.2654  0.1686  0.3108
14904SOL    HW145620   4.051   4.616   1.150 -0.4522  0.5722 -0.7934
14904SOL    HW245621   3.909   4.670   1.157 -0.7853 -0.4366  0.9146
14905SOL     OW45622   3.380   4.285   4.120  0.3273 -0.1804  0.1818
14905SOL    HW145623   3.291   4.259   4.097  0.5167  0.0250 -0.8276
14905SOL    HW245624   3.373   4.377   4.146 -0.2051 -0.9240  2.9372
14906SOL     OW45625   0.226   6.193   1.041  0.7776  0.1614 -0.1616
14906SOL    HW145626   0.285   6.192   1.116  0.6885  0.0547 -0.0915
14906SOL    HW245627   0.221   6.285   1.015  0.0623  0.3407  0.5527
14907SOL     OW45628   3.038   5.502   2.758  0.1256  0.2760 -0.2641
14907SOL    HW145629   3.004   5.559   2.688 -0.2493 -0.5067 -0.7267
14907SOL    HW245630   2.971   5.506   2.827  0.7206  1.4311  0.2747
14908SOL     OW45631   7.689   2.444   2.462 -0.3986 -0.0881  0.1626
14908SOL    HW145632   7.605   2.397   2.465 -0.7083  0.4783  1.6429
14908SOL    HW245633   7.753   2.379   2.491 -0.6660  0.0758  1.1571
14909SOL     OW45634   0.774   0.291   2.372 -0.0169 -0.1992  0.0600
14909SOL    HW145635   0.740   0.298   2.462 -0.1833 -1.4698  0.1091
14909SOL    HW245636   0.786   0.197   2.358  0.8852  0.0435 -0.9312
14910SOL     OW45637   3.763   4.314   5.327  0.5774 -0.2792 -0.4000
14910SOL    HW145638   3.708   4.320   5.406 -1.1079  0.7886 -1.5844
14910SOL    HW245639   3.701   4.294   5.257  2.2818 -3.1878 -1.2323
14911SOL     OW45640   6.303   7.716   6.392  0.2832 -0.0636 -0.2477
14911SOL    HW145641   6.304   7.808   6.364 -0.7067 -0.8205 -3.2351
14911SOL    HW245642   6.362   7.672   6.331 -0.4091 -1.6231  0.1540
14912SOL     OW45643   7.082   0.965   3.011 -0.0367  0.3743 -0.4123
14912SOL    HW145644   7.144   1.036   3.028  1.8401 -1.3113  0.1207
14912SOL    HW245645   6.999   0.996   3.048  1.0136  1.8010  0.8657
14913SOL     OW45646   2.140   0.415   2.521  0.0719  0.0319  0.1258
14913SOL    HW145647   2.156   0.459   2.438 -0.8158 -0.4012 -0.2830
14913SOL    HW245648   2.111   0.485   2.580 -0.1570  0.1939 -0.1797
14914SOL     OW45649   6.833   1.642   4.971 -0.3640 -0.1728  0.4230
14914SOL    HW145650   6.813   1.698   4.896  0.0259  1.1570  1.2791
14914SOL    HW245651   6.795   1.687   5.046  0.7062 -0.6030  1.2566
14915SOL     OW45652   3.936   7.577   5.178 -0.2232 -0.1957  0.2191
14915SOL    HW145653   3.996   7.523   5.126 -2.4343 -0.7182 -2.0080
14915SOL    HW245654   3.971   7.665   5.173 -0.3032 -0.2455 -2.2155
14916SOL     OW45655   2.215   0.108   6.186  0.0133 -0.2716  0.2245
14916SOL    HW145656   2.253   0.074   6.266  0.4015  0.1682  0.2303
14916SOL    HW245657   2.238   0.201   6.186 -0.5887 -0.1151 -0.0419
14917SOL     OW45658   1.351   7.100   4.061  0.2370  0.1037  0.1836
14917SOL    HW145659   1.298   7.100   4.141 -1.2167 -2.9907 -0.6504
14917SOL    HW245660   1.318   7.175   4.010 -1.6353 -0.2911  0.7677
14918SOL     OW45661   0.691   0.811   0.008 -0.3681  0.3047  0.4034
14918SOL    HW145662   0.713   0.865   0.084  0.9627  1.9371 -1.0685
14918SOL    HW245663   0.596   0.822  -0.001 -0.4175  0.7711  1.3050
14919SOL     OW45664   1.000   6.375   1.255  0.1625 -0.2182  0.0952
14919SOL    HW145665   1.059   6.433   1.304 -2.1946  1.1936  1.4402
14919SOL    HW245666   1.059   6.322   1.202  2.6702  0.8258  1.6019
14920SOL     OW45667   2.202   1.189   7.194 -0.4787  0.1804  0.1331
14920SOL    HW145668   2.260   1.251   7.238 -0.7226  0.2950  0.2922
14920SOL    HW245669   2.262   1.127   7.152 -0.2522 -0.3531  1.2204
14921SOL     OW45670   3.461   7.704   1.902 -0.0519 -0.2862 -0.1761
14921SOL    HW145671   3.536   7.726   1.957 -0.1819  1.6572 -0.6745
14921SOL    HW245672   3.494   7.711   1.813 -0.2675 -1.7127 -0.3806
14922SOL     OW45673   0.740   0.586   0.930 -0.2331  0.1565 -0.1854
14922SOL    HW145674   0.832   0.563   0.933 -0.1005  0.5595 -0.8925
14922SOL    HW245675   0.700   0.537   1.002  0.3678 -0.7445 -0.4516
14923SOL     OW45676   5.110   3.244   3.072  0.1632 -0.1727  0.6464
14923SOL    HW145677   5.126   3.338   3.076  1.0490 -0.3467  1.4626
14923SOL    HW245678   5.117   3.214   3.163  1.0969 -1.2104  0.2570
14924SOL     OW45679   1.617   5.160   7.722 -0.6007  0.2300 -0.2308
14924SOL    HW145680   1.576   5.087   7.676 -1.7184  1.1029 -0.6732
14924SOL    HW245681   1.697   5.124   7.759 -0.6572 -0.9700 -1.2436
14925SOL     OW45682   7.324   4.601   4.311 -0.4460  0.0757  0.1045
14925SOL    HW145683   7.284   4.570   4.230 -1.6791  0.9231  0.3559
14925SOL    HW245684   7.413   4.625   4.286 -1.3288  2.0271 -1.4618
14926SOL     OW45685   6.585   7.577   7.134  0.0180 -0.2753  0.9171
14926SOL    HW145686   6.499   7.608   7.103 -0.0922 -1.1972  0.2293
14926SOL    HW245687   6.605   7.503   7.077  0.6109 -0.9800  2.0075
14927SOL     OW45688   2.299   6.820   1.892  0.1193 -0.5715  0.0151
14927SOL    HW145689   2.351   6.824   1.972 -0.8298 -0.7566  0.6613
14927SOL    HW245690   2.264   6.908   1.882  0.0096 -0.6214 -0.0406
14928SOL     OW45691   3.474   1.068   0.991 -0.7597 -0.2820 -0.4446
14928SOL    HW145692   3.428   1.099   0.913  0.9854  0.7949 -1.1222
14928SOL    HW245693   3.535   1.139   1.012 -0.5156 -0.9666  1.3431
14929SOL     OW45694   7.089   7.239   5.138 -0.1767 -0.5090 -0.4779
14929SOL    HW145695   7.078   7.227   5.044 -0.5881 -1.5788 -0.3150
14929SOL    HW245696   7.001   7.259   5.170  0.0482  0.3625 -0.3752
14930SOL     OW45697   3.508   2.861   2.148  0.0356 -0.0066 -0.4755
14930SOL    HW145698   3.430   2.806   2.155 -0.6443  1.0987  1.8934
14930SOL    HW245699   3.526   2.867   2.055 -2.3283 -0.8562 -1.0470
14931SOL     OW45700   5.419   3.749   1.794 -0.0294 -1.0966 -0.6359
14931SOL    HW145701   5.334   3.740   1.836  0.4914 -1.0629  0.4533
14931SOL    HW245702   5.429   3.844   1.782 -0.7702 -1.1680 -2.1457
14932SOL     OW45703   3.750   5.834   2.789 -0.2497  0.1088 -0.0714
14932SOL    HW145704   3.755   5.765   2.854  0.5453  0.8226  0.6367
14932SOL    HW245705   3.754   5.788   2.705  2.7646 -0.5908  0.3530
14933SOL     OW45706   3.741   0.385   3.036  0.2812 -0.3454 -0.6540
14933SOL    HW145707   3.810   0.372   3.101  0.3635 -3.0004 -1.1650
14933SOL    HW245708   3.764   0.326   2.964 -3.0526 -2.3357 -0.3182
14934SOL     OW45709   3.637   7.154   2.826 -0.2139  0.4111  0.3106
14934SOL    HW145710   3.605   7.068   2.798 -1.4518  0.9174  0.1020
14934SOL    HW245711   3.578   7.179   2.897  0.5172  0.8315  0.7701
14935SOL     OW45712   6.982   6.278   5.375  0.1773  0.2148  0.1931
14935SOL    HW145713   6.976   6.307   5.284 -1.0545  0.1281  0.2229
14935SOL    HW245714   6.925   6.339   5.423 -0.5336 -0.7611  0.6301
14936SOL     OW45715   1.141   4.680   0.863 -0.0796  0.2401  0.2009
14936SOL    HW145716   1.190   4.672   0.945 -2.4923  1.5844  1.8740
14936SOL    HW245717   1.151   4.594   0.822  2.9174  0.1712  0.7903
14937SOL     OW45718   4.086   1.498   4.836  0.6556  0.0608  0.1469
14937SOL    HW145719   4.110   1.512   4.928  0.9161  1.0122 -0.0461
14937SOL    HW245720   4.047   1.581   4.809 -0.8164 -0.7203 -0.1910
14938SOL     OW45721   5.619   4.966   6.769  0.3494  0.1531 -0.2365
14938SOL    HW145722   5.542   4.909   6.775  1.0744 -0.7562  0.8442
14938SOL    HW245723   5.583   5.053   6.752 -1.0439  0.0036  1.5751
14939SOL     OW45724   3.368   6.809   3.277 -0.8311 -0.3347  0.1080
14939SOL    HW145725   3.438   6.765   3.229 -0.5321  1.4916 -1.2096
14939SOL    HW245726   3.413   6.860   3.344 -0.9801  0.0213 -0.0629
14940SOL     OW45727   4.383   4.343   7.342 -0.3381 -0.2655 -0.4301
14940SOL    HW145728   4.408   4.342   7.434  0.5459 -0.6711 -0.6607
14940SOL    HW245729   4.301   4.393   7.340 -2.2678 -3.0793  1.0351
14941SOL     OW45730   3.461   4.639   0.407  0.0737 -0.0527  0.2642
14941SOL    HW145731   3.402   4.711   0.384  0.4300  0.6120  1.3635
14941SOL    HW245732   3.547   4.681   0.415 -0.0501 -0.1502  3.0042
14942SOL     OW45733   1.686   4.180   1.397  0.1538  0.6668  0.0694
14942SOL    HW145734   1.777   4.152   1.385  0.2028  1.0679 -0.5279
14942SOL    HW245735   1.682   4.209   1.489  0.8298  1.3676 -0.1109
14943SOL     OW45736   3.186   1.694   0.114 -0.0200  0.0332  0.0785
14943SOL    HW145737   3.168   1.602   0.133  1.7179 -0.5797 -0.9682
14943SOL    HW245738   3.192   1.736   0.199 -1.2433 -0.7125  0.5644
14944SOL     OW45739   3.373   2.030   1.195 -0.3124  0.4730 -0.7338
14944SOL    HW145740   3.309   2.092   1.160  1.4166  2.0879 -1.2016
14944SOL    HW245741   3.448   2.084   1.220 -0.0092 -1.0367  2.0984
14945SOL     OW45742   2.460   2.527   1.807  0.8575  0.0204 -0.4666
14945SOL    HW145743   2.552   2.512   1.829  1.1083  0.7017 -0.9853
14945SOL    HW245744   2.416   2.541   1.891  1.4547  0.8567 -0.2819
14946SOL     OW45745   5.211   5.679   0.917  0.1533 -0.6374  0.4342
14946SOL    HW145746   5.262   5.760   0.912 -1.5474  0.5346  0.9588
14946SOL    HW245747   5.212   5.656   1.010 -0.0078 -0.7710  0.4035
14947SOL     OW45748   1.417   1.992   5.369 -0.6488  0.9078 -0.9549
14947SOL    HW145749   1.484   1.928   5.391  0.0803  2.4062  1.5216
14947SOL    HW245750   1.342   1.939   5.342  0.3555 -0.9364 -0.2902
14948SOL     OW45751   4.013   6.711   6.710 -0.3031  0.1420 -0.2121
14948SOL    HW145752   4.089   6.748   6.665 -0.3948  1.4014  0.6186
14948SOL    HW245753   3.937   6.747   6.663 -0.4218 -1.1673 -1.0844
14949SOL     OW45754   4.620   5.572   7.110  0.3777  0.3902 -0.1297
14949SOL    HW145755   4.634   5.492   7.060 -0.2630  0.4203 -0.3730
14949SOL    HW245756   4.687   5.571   7.178  1.2397  0.3328 -0.9706
14950SOL     OW45757   1.991   1.134   7.346  0.0248  0.5238  0.9315
14950SOL    HW145758   1.934   1.204   7.313  1.2865  1.2504  0.1941
14950SOL    HW245759   2.069   1.139   7.291  0.5374 -0.8674  1.4876
14951SOL     OW45760   4.334   0.181   3.913 -0.0259 -0.2366  0.3196
14951SOL    HW145761   4.308   0.272   3.929  1.5606  0.1301  1.0772
14951SOL    HW245762   4.258   0.129   3.940 -1.0341  0.8635 -0.3191
14952SOL     OW45763   0.389   6.163   4.178  0.3705  0.9583  0.5018
14952SOL    HW145764   0.482   6.179   4.164  0.1094  2.3217  0.1292
14952SOL    HW245765   0.372   6.197   4.266  0.1866  0.9666  0.4640
14953SOL     OW45766   6.861   1.468   0.866 -0.0450 -0.2701 -0.5982
14953SOL    HW145767   6.902   1.426   0.790 -0.1290 -0.7268 -0.3899
14953SOL    HW245768   6.934   1.510   0.912  0.5211 -2.5965  0.7727
14954SOL     OW45769   4.926   6.237   3.579  0.4737 -0.1377 -0.3675
14954SOL    HW145770   4.911   6.315   3.526  0.2292 -0.3842 -0.6657
14954SOL    HW245771   4.924   6.164   3.516 -0.7028 -0.5295  0.0777
14955SOL     OW45772   0.057   3.743   4.198 -0.0642  0.3299  0.2545
14955SOL    HW145773   0.036   3.698   4.116 -1.0633  1.4008 -0.0937
14955SOL    HW245774   0.075   3.833   4.173  0.1380  0.5511  1.1561
14956SOL     OW45775   4.886   1.085   7.264  0.5845 -0.0543 -0.2694
14956SOL    HW145776   4.972   1.127   7.257 -0.1019  1.5406  0.3338
14956SOL    HW245777   4.853   1.112   7.350 -0.2496 -1.2217 -0.1889
14957SOL     OW45778   1.557   3.035   6.444  0.0710  0.5093  0.4505
14957SOL    HW145779   1.531   3.015   6.354 -0.9621  0.1503  0.8108
14957SOL    HW245780   1.487   3.091   6.477  1.0724  1.7036  0.6466
14958SOL     OW45781   6.483   0.273   6.724  0.4488 -0.3094  0.2732
14958SOL    HW145782   6.508   0.277   6.816  1.2600 -1.0010  0.0919
14958SOL    HW245783   6.543   0.333   6.680 -0.0762  0.1857  0.2093
14959SOL     OW45784   6.213   2.825   5.905 -0.3612  0.1241 -0.3199
14959SOL    HW145785   6.145   2.807   5.969  0.4363 -0.9789  0.2325
14959SOL    HW245786   6.166   2.868   5.833 -1.6026 -0.4271  0.1248
14960SOL     OW45787   4.839   4.147   5.685 -0.7155 -0.2058  0.1012
14960SOL    HW145788   4.745   4.132   5.693 -0.8294 -0.6991 -1.7708
14960SOL    HW245789   4.855   4.227   5.735 -2.1547 -0.0199  0.2960
14961SOL     OW45790   5.988   4.572   1.314  0.6094  0.4612  0.0048
14961SOL    HW145791   5.938   4.613   1.384  0.3019 -0.4339  0.3249
14961SOL    HW245792   6.077   4.563   1.350  0.6983  0.9033 -0.0968
14962SOL     OW45793   3.218   1.728   2.404 -0.4332 -1.1490  0.6052
14962SOL    HW145794   3.285   1.672   2.363  0.2727 -0.5422  0.8947
14962SOL    HW245795   3.173   1.769   2.330  1.8357  1.1271  0.3076
14963SOL     OW45796   2.639   0.846   0.239  0.2093  0.4356  0.1441
14963SOL    HW145797   2.654   0.755   0.267  3.9622  0.6745 -0.5316
14963SOL    HW245798   2.621   0.839   0.145  2.0244  0.3620 -0.2483
14964SOL     OW45799   2.960   7.177   0.393  0.0430 -0.5367  0.0665
14964SOL    HW145800   2.901   7.216   0.458  0.0319 -0.5962  0.0919
14964SOL    HW245801   2.912   7.100   0.361  0.4197 -1.0064  0.6182
14965SOL     OW45802   7.637   0.560   6.080  0.0618  0.2248  0.1767
14965SOL    HW145803   7.623   0.478   6.033 -1.6299  1.3136 -1.3451
14965SOL    HW245804   7.697   0.610   6.025 -1.0878  1.0775 -0.3508
14966SOL     OW45805   1.550   1.804   4.588 -0.3140 -0.5699 -0.3607
14966SOL    HW145806   1.617   1.857   4.546 -1.4490  2.0813  0.9520
14966SOL    HW245807   1.477   1.804   4.526 -0.3709 -0.4800 -0.2932
14967SOL     OW45808   6.760   6.748   5.300  0.1135 -0.2999  1.0582
14967SOL    HW145809   6.806   6.823   5.264 -1.4027  0.7144  1.1679
14967SOL    HW245810   6.668   6.761   5.277 -0.5037 -1.0327  2.8593
14968SOL     OW45811   3.060   3.793   1.792  0.2252  0.8583 -0.1761
14968SOL    HW145812   3.004   3.721   1.821 -0.1704  1.1444 -0.2057
14968SOL    HW245813   3.020   3.822   1.710  0.6655  0.7955 -0.4118
14969SOL     OW45814   2.635   3.204   6.403  0.2180  0.0362 -0.7111
14969SOL    HW145815   2.673   3.181   6.488  0.2659  2.0123 -0.1632
14969SOL    HW245816   2.710   3.218   6.345  0.1911 -0.8610 -0.9849
14970SOL     OW45817   3.261   6.381   5.335  1.0830 -0.6755 -0.3250
14970SOL    HW145818   3.259   6.475   5.319  1.9023 -0.7174 -0.7392
14970SOL    HW245819   3.276   6.373   5.429 -0.0243 -0.4090 -0.1103
14971SOL     OW45820   1.734   5.152   0.826 -0.0234 -0.4261 -0.5654
14971SOL    HW145821   1.679   5.196   0.760  0.5449 -0.7355 -1.2559
14971SOL    HW245822   1.674   5.133   0.898  0.0151  2.9619  0.5262
14972SOL     OW45823   5.150   5.991   6.181 -0.3280  0.0893 -0.0711
14972SOL    HW145824   5.212   6.063   6.191  0.0534  0.0491 -1.8507
14972SOL    HW245825   5.156   5.942   6.264  0.1225  1.5245  0.7718
14973SOL     OW45826   4.255   2.220   1.268  0.3167  0.2078  0.0826
14973SOL    HW145827   4.310   2.291   1.236  1.1561 -0.2380  0.4880
14973SOL    HW245828   4.219   2.252   1.350 -1.1169  1.0082 -0.8293
14974SOL     OW45829   6.265   3.358   6.113  0.5459  0.0572 -0.0111
14974SOL    HW145830   6.339   3.381   6.169 -1.3684 -0.5218  3.0479
14974SOL    HW245831   6.288   3.273   6.076  1.4377 -0.1079  0.8721
14975SOL     OW45832   5.017   6.486   1.861  0.1521  0.0023 -0.4550
14975SOL    HW145833   4.926   6.482   1.832 -0.2704 -0.9295  0.8929
14975SOL    HW245834   5.068   6.475   1.781 -0.9162  0.1011 -1.1734
14976SOL     OW45835   0.129   5.605   0.337 -0.4397  0.2259 -0.1140
14976SOL    HW145836   0.065   5.673   0.318 -2.1286 -0.8991  1.2963
14976SOL    HW245837   0.079   5.534   0.375  1.6371 -0.7502  0.9903
14977SOL     OW45838   5.762   3.374   0.036  0.1369 -0.1109  0.5290
14977SOL    HW145839   5.694   3.309   0.020  0.4902 -0.3486 -0.0422
14977SOL    HW245840   5.845   3.325   0.032  0.6790  0.8017 -3.1834
14978SOL     OW45841   2.497   7.067   3.044 -0.4693 -0.3064 -0.1480
14978SOL    HW145842   2.459   6.979   3.053 -0.1840 -0.5357 -1.0333
14978SOL    HW245843   2.492   7.085   2.950  0.0038  0.3895 -0.0446
14979SOL     OW45844   3.453   3.374   6.755 -0.4520  0.0367  0.8026
14979SOL    HW145845   3.511   3.446   6.730  0.4511 -0.8202  0.3372
14979SOL    HW245846   3.377   3.384   6.699 -0.1693  0.4129  0.4779
14980SOL     OW45847   5.555   6.628   2.167 -0.2092 -0.5650 -0.2484
14980SOL    HW145848   5.527   6.572   2.240 -1.7452 -1.1579 -1.2381
14980SOL    HW245849   5.478   6.682   2.149 -0.3672 -1.4319 -2.3527
14981SOL     OW45850   1.121   5.486   3.534  0.5207 -0.1391  0.2001
14981SOL    HW145851   1.066   5.425   3.584  0.6552 -0.1034  0.3898
14981SOL    HW245852   1.200   5.497   3.587  0.8136 -0.3668 -0.1777
14982SOL     OW45853   2.164   3.483   3.628 -0.3276 -1.3026 -0.2062
14982SOL    HW145854   2.127   3.559   3.672 -0.6237 -0.5964 -1.6363
14982SOL    HW245855   2.254   3.476   3.662  0.8208  1.5891 -2.2828
14983SOL     OW45856   0.010   3.296   5.834 -0.4899  0.4391  0.1137
14983SOL    HW145857  -0.045   3.373   5.846 -0.3520  0.5175  0.2486
14983SOL    HW245858  -0.051   3.225   5.817 -0.5927  0.7152 -0.7420
14984SOL     OW45859   5.665   2.520   4.007 -0.3012  0.3741 -0.3976
14984SOL    HW145860   5.571   2.521   4.028  0.2451 -2.9507  3.4733
14984SOL    HW245861   5.703   2.581   4.071  0.3803 -0.4095 -0.0496
14985SOL     OW45862   2.457   5.486   3.884 -0.3220 -0.4117 -0.2575
14985SOL    HW145863   2.364   5.509   3.885 -0.6189 -1.5810  0.1877
14985SOL    HW245864   2.461   5.404   3.835  0.5770 -0.0277 -0.8612
14986SOL     OW45865   0.785   1.090   7.211 -0.1609  0.2631  0.2813
14986SOL    HW145866   0.713   1.028   7.200  0.0872  0.1528 -0.8271
14986SOL    HW245867   0.864   1.037   7.200  0.0952  0.3974  1.4144
14987SOL     OW45868   3.488   6.851   5.457 -0.0845  0.1600 -0.0752
14987SOL    HW145869   3.410   6.870   5.509 -1.1672  1.0614 -1.9308
14987SOL    HW245870   3.473   6.895   5.373  1.7917 -0.8320 -1.0104
14988SOL     OW45871   6.694   5.088   5.181  0.4586 -0.3367 -0.3084
14988SOL    HW145872   6.683   5.182   5.196 -0.5105 -0.4346 -0.2819
14988SOL    HW245873   6.777   5.066   5.223 -0.1667  0.1917  1.2870
14989SOL     OW45874   2.713   1.615   0.619 -0.4979 -0.1594 -0.2645
14989SOL    HW145875   2.795   1.578   0.653 -0.1292 -0.1184 -1.0711
14989SOL    HW245876   2.666   1.644   0.696  0.7798  0.9019  0.1563
14990SOL     OW45877   0.649   3.433   5.489  0.5320  0.2909 -0.2666
14990SOL    HW145878   0.590   3.428   5.564  1.6160  0.0358  0.6142
14990SOL    HW245879   0.728   3.387   5.519  1.3081  0.9389 -1.2620
14991SOL     OW45880   3.029   5.276   4.681 -0.2185 -0.2914  0.0678
14991SOL    HW145881   3.055   5.302   4.769  0.2017 -0.3139 -0.0495
14991SOL    HW245882   3.111   5.264   4.634 -0.4183 -1.0169 -0.1149
14992SOL     OW45883   0.231   4.158   2.290 -0.0267  0.2618  0.9332
14992SOL    HW145884   0.210   4.208   2.211  0.5363  0.3996  0.8674
14992SOL    HW245885   0.314   4.115   2.269 -1.1066 -1.7229  0.5080
14993SOL     OW45886   4.959   4.859   4.689  0.4638 -0.5271  0.1423
14993SOL    HW145887   4.875   4.813   4.694  0.4968 -0.4740  1.2724
14993SOL    HW245888   4.997   4.849   4.776  0.9445  0.7589  0.0921
14994SOL     OW45889   6.061   4.616   7.469  0.2864 -0.2896  0.9365
14994SOL    HW145890   6.140   4.645   7.514  0.1571  0.6397  0.5831
14994SOL    HW245891   6.062   4.664   7.386 -0.2076 -0.9182  0.5574
14995SOL     OW45892   5.211   4.579   3.287 -0.3148 -0.0486  1.0006
14995SOL    HW145893   5.298   4.599   3.252 -0.4395 -0.3308  0.5258
14995SOL    HW245894   5.180   4.662   3.324 -0.9898  0.7883 -1.2817
14996SOL     OW45895   5.905   4.552   3.992  0.4565  0.1406  0.7692
14996SOL    HW145896   5.940   4.604   3.920 -1.1049  1.5860  0.9898
14996SOL    HW245897   5.949   4.467   3.984  2.9119  1.3692  0.2491
14997SOL     OW45898   1.819   4.327   3.113 -0.2800 -0.2122  0.6139
14997SOL    HW145899   1.781   4.345   3.027 -0.4332 -0.0354  0.7168
14997SOL    HW245900   1.867   4.245   3.102 -0.5561 -0.3507  0.4391
14998SOL     OW45901   4.470   1.764   0.655  0.2308  0.1903  0.4183
14998SOL    HW145902   4.478   1.710   0.733  0.3855  2.3622  1.9812
14998SOL    HW245903   4.543   1.825   0.659 -0.4202  1.1091 -0.8074
14999SOL     OW45904   5.375   7.499   1.063 -0.4042 -0.0993 -0.3274
14999SOL    HW145905   5.353   7.475   0.973 -2.5878 -0.5411  0.2684
14999SOL    HW245906   5.403   7.417   1.104  0.5651  0.0969 -0.5777
15000SOL     OW45907   0.384   0.305   6.950  0.0746  0.0400 -0.0524
15000SOL    HW145908   0.450   0.301   7.019  0.5522  0.2353 -0.4936
15000SOL    HW245909   0.423   0.256   6.877  0.1508  0.9898 -0.6631
15001SOL     OW45910   6.039   1.852   7.491  0.2692  0.4053 -0.1306
15001SOL    HW145911   6.123   1.897   7.501  0.6053 -0.3443  0.5323
15001SOL    HW245912   5.990   1.875   7.570  1.0920 -1.6856  1.0917
15002SOL     OW45913   3.046   5.449   1.680 -0.7933  0.2401 -0.0263
15002SOL    HW145914   2.962   5.491   1.700 -2.4601 -1.5572 -2.5769
15002SOL    HW245915   3.025   5.356   1.673  1.2560 -0.1800 -1.5121
15003SOL     OW45916   3.655   6.673   1.829 -0.0620  0.1099  0.4798
15003SOL    HW145917   3.614   6.626   1.757  1.7081 -2.6715  1.1564
15003SOL    HW245918   3.650   6.765   1.803 -1.1003 -0.6310 -2.3098
15004SOL     OW45919   5.763   0.726   1.289 -0.2505 -0.1789  0.4921
15004SOL    HW145920   5.764   0.640   1.330 -1.2626 -0.2995  0.2836
15004SOL    HW245921   5.672   0.755   1.294  0.0340  0.7871  0.3612
15005SOL     OW45922   4.139   5.044   6.514  0.0742  0.0154 -0.2738
15005SOL    HW145923   4.233   5.026   6.506  0.0456 -0.1616 -0.2089
15005SOL    HW245924   4.102   4.963   6.549 -0.2070 -0.1571 -0.9701
15006SOL     OW45925   6.614   5.010   4.529 -0.0425 -0.3757 -0.1936
15006SOL    HW145926   6.617   4.931   4.475  1.2480  0.4976 -1.4415
15006SOL    HW245927   6.682   5.067   4.494 -1.8424  1.8986 -0.2268
15007SOL     OW45928   7.002   3.250   0.141  0.2151  0.3043  0.0271
15007SOL    HW145929   7.082   3.288   0.104  0.2001  0.3509  0.0437
15007SOL    HW245930   6.986   3.300   0.220 -0.8222  1.4625 -0.8865
15008SOL     OW45931   0.397   3.919   7.323  0.3992 -0.2035  0.0079
15008SOL    HW145932   0.303   3.917   7.305  0.7700 -0.8331 -2.1617
15008SOL    HW245933   0.417   4.012   7.335 -0.6186 -0.1335  1.5153
15009SOL     OW45934   3.328   1.897   5.249  0.3340  0.0386 -0.3155
15009SOL    HW145935   3.407   1.881   5.300 -0.7931  1.8540  2.2562
15009SOL    HW245936   3.303   1.812   5.213  0.2196 -1.8852  3.8070
15010SOL     OW45937   0.001   2.854   1.615  0.1536  0.1995 -0.2255
15010SOL    HW145938  -0.054   2.839   1.537 -0.1091 -2.7451  0.3896
15010SOL    HW245939  -0.039   2.800   1.683  1.9808  0.5076  1.1770
15011SOL     OW45940   2.599   6.281   3.148  0.1478 -0.0753 -0.3312
15011SOL    HW145941   2.610   6.301   3.241  1.7552  0.2670 -0.5759
15011SOL    HW245942   2.687   6.284   3.111 -0.4491 -0.2517 -1.8709
15012SOL     OW45943   5.907   1.726   2.940  0.4362 -0.0935 -0.2207
15012SOL    HW145944   5.985   1.744   2.992  0.0377 -1.7544  1.0166
15012SOL    HW245945   5.901   1.801   2.881 -0.0434  2.8674  3.2167
15013SOL     OW45946   6.829   5.888   2.841  0.1536 -0.2158  0.6273
15013SOL    HW145947   6.800   5.958   2.782  2.4911  0.3867  0.1065
15013SOL    HW245948   6.906   5.851   2.798  1.0874 -0.7033  2.6323
15014SOL     OW45949   5.352   0.074   3.675 -0.0121  0.0648  0.3800
15014SOL    HW145950   5.339   0.157   3.722  1.3716  0.2700  0.4337
15014SOL    HW245951   5.319   0.007   3.735  0.2882  0.4582  0.9964
15015SOL     OW45952   5.985   0.058   1.794 -0.0830  0.8520 -0.1177
15015SOL    HW145953   5.934   0.072   1.874 -1.4144 -1.6479 -0.4267
15015SOL    HW245954   6.074   0.086   1.817 -0.0375 -1.2612  2.8202
15016SOL     OW45955   0.534   3.320   5.276  1.0156 -0.0271  0.0293
15016SOL    HW145956   0.471   3.278   5.334  0.2393  0.5132 -0.3990
15016SOL    HW245957   0.593   3.368   5.334  0.7707 -0.1982  0.4184
15017SOL     OW45958   2.681   4.566   6.831  0.4673 -0.3816 -0.4111
15017SOL    HW145959   2.624   4.639   6.804 -1.9182 -2.0570 -0.1603
15017SOL    HW245960   2.726   4.540   6.750 -0.5433 -0.2128 -1.0451
15018SOL     OW45961   1.854   0.079   6.469  0.3456  0.2428  0.0572
15018SOL    HW145962   1.861   0.120   6.383 -1.9990  0.3745 -0.1259
15018SOL    HW245963   1.864   0.151   6.531  0.3178  0.4293 -0.1532
15019SOL     OW45964   7.471   5.135   6.122  0.1410 -0.1044  0.2567
15019SOL    HW145965   7.542   5.083   6.084  0.5031 -0.6672  1.6426
15019SOL    HW245966   7.415   5.070   6.166 -1.3330  0.3105 -0.9338
15020SOL     OW45967   2.532   6.633   6.025  0.1141  0.1393  0.2932
15020SOL    HW145968   2.605   6.660   5.968  0.3131 -1.0734 -0.0543
15020SOL    HW245969   2.530   6.699   6.094  0.3557  1.2267 -0.7051
15021SOL     OW45970   1.442   2.313   4.686 -0.0493  0.0387 -0.7727
15021SOL    HW145971   1.421   2.224   4.657  1.3268  0.0624 -1.9668
15021SOL    HW245972   1.535   2.310   4.706  0.1282  1.3259 -1.3277
15022SOL     OW45973   4.069   5.485   5.930  0.4280  0.3899 -0.8021
15022SOL    HW145974   4.087   5.564   5.981 -0.1407  0.1022 -0.1306
15022SOL    HW245975   4.043   5.420   5.996  0.3463 -0.1922 -1.3985
15023SOL     OW45976   0.147   0.070   4.917 -0.6412 -0.0222 -0.0259
15023SOL    HW145977   0.052   0.061   4.924 -0.3919 -1.7684  2.1317
15023SOL    HW245978   0.178   0.069   5.007  1.4606  0.4310 -0.6828
15024SOL     OW45979   1.493   0.246   5.424 -0.6037 -0.0927  0.2216
15024SOL    HW145980   1.552   0.191   5.372 -0.1283 -0.4446  1.1052
15024SOL    HW245981   1.419   0.188   5.444  0.0696 -0.5591  1.4668
15025SOL     OW45982   1.675   2.344   4.817 -0.2478  0.1817  0.3715
15025SOL    HW145983   1.722   2.263   4.838 -0.0886 -0.7096 -2.9323
15025SOL    HW245984   1.687   2.399   4.894  2.1271 -1.8304  1.5808
15026SOL     OW45985   2.875   7.387   2.043  0.7380 -0.5029  0.1323
15026SOL    HW145986   2.906   7.309   1.996  1.5134  0.3650 -0.8470
15026SOL    HW245987   2.954   7.422   2.084  0.4641 -0.0210  0.2502
15027SOL     OW45988   0.699   5.036   2.978  0.3415  0.3281 -0.2669
15027SOL    HW145989   0.614   5.030   3.021  0.5841  2.2536  0.5832
15027SOL    HW245990   0.689   4.986   2.897 -1.4238  0.0887  0.0689
15028SOL     OW45991   1.354   5.015   7.620 -0.2253 -0.3983  1.1125
15028SOL    HW145992   1.320   5.027   7.709 -1.6498 -0.1937  0.5597
15028SOL    HW245993   1.292   4.953   7.580 -1.7508  2.2335 -0.8741
15029SOL     OW45994   1.841   4.903   2.651  0.1084 -0.2905  0.2776
15029SOL    HW145995   1.785   4.973   2.616  1.9508  0.8577 -0.5320
15029SOL    HW245996   1.889   4.870   2.575 -0.6298 -2.4068  0.6707
15030SOL     OW45997   2.516   0.836   1.241  0.4778  0.2021 -0.0868
15030SOL    HW145998   2.487   0.876   1.323 -0.8479  0.5363 -0.6884
15030SOL    HW245999   2.554   0.752   1.267  0.0764  0.3082  0.8659
15031SOL     OW46000   3.873   1.590   2.057 -0.4401  0.7130  0.8813
15031SOL    HW146001   3.784   1.559   2.043  0.3166 -1.6035  0.6434
15031SOL    HW246002   3.879   1.604   2.152 -1.6492  3.0888  0.6632
15032SOL     OW46003   2.122   1.741   4.949  0.3396 -0.3815 -0.8678
15032SOL    HW146004   2.136   1.730   4.855  2.3316  0.7543 -0.7753
15032SOL    HW246005   2.036   1.780   4.957  0.6966  0.7723 -2.3447
15033SOL     OW46006   7.462   5.317   2.796 -0.5231 -0.1453 -0.3621
15033SOL    HW146007   7.477   5.350   2.708  1.2883 -1.1831 -0.4985
15033SOL    HW246008   7.377   5.273   2.792 -0.3618 -0.3638 -1.6410
15034SOL     OW46009   2.862   1.819   0.003 -0.1076  0.4496 -0.5679
15034SOL    HW146010   2.789   1.757   0.002  0.0062  0.2894  0.3151
15034SOL    HW246011   2.860   1.857   0.091  0.8309  0.4806 -0.5490
15035SOL     OW46012   2.727   1.249   0.455  0.1953 -0.4290  0.3221
15035SOL    HW146013   2.761   1.338   0.455 -1.1381  0.0987  0.0821
15035SOL    HW246014   2.780   1.203   0.391  1.9729 -0.2638  1.5919
15036SOL     OW46015   3.637   0.259   3.668  0.2598 -0.2736  0.0846
15036SOL    HW146016   3.546   0.283   3.651  0.4246  0.5080  0.2364
15036SOL    HW246017   3.670   0.228   3.584  0.4026  1.3099 -0.4738
15037SOL     OW46018   5.919   2.891   7.153  0.2046 -0.9183  0.0587
15037SOL    HW146019   5.988   2.925   7.095 -0.9844  1.1974 -0.2376
15037SOL    HW246020   5.946   2.918   7.240 -0.3813  0.2133 -0.0955
15038SOL     OW46021   6.581   6.404   6.583  0.2968  0.5846  0.1976
15038SOL    HW146022   6.510   6.469   6.582  0.7455  1.2011  2.2560
15038SOL    HW246023   6.568   6.357   6.666  1.6531 -0.0221  0.0830
15039SOL     OW46024   2.281   1.411   6.137 -0.1918  0.1250  0.0555
15039SOL    HW146025   2.324   1.341   6.187 -0.2752 -0.7722 -1.0971
15039SOL    HW246026   2.193   1.417   6.173 -0.0176  0.0051  0.5062
15040SOL     OW46027   7.350   1.431   5.220 -0.2373 -0.1393 -0.2535
15040SOL    HW146028   7.334   1.388   5.304  0.8306 -1.4415 -0.6727
15040SOL    HW246029   7.311   1.372   5.156  2.6674 -1.4904 -0.9825
15041SOL     OW46030   7.631   1.293   4.849 -0.1871  0.5675  0.1758
15041SOL    HW146031   7.683   1.293   4.769  1.2058 -1.4221  0.9874
15041SOL    HW246032   7.554   1.346   4.828 -0.2402 -0.4695 -2.7123
15042SOL     OW46033   5.068   0.380   4.450 -0.0185  0.0480 -0.5188
15042SOL    HW146034   5.020   0.414   4.525  0.3261  1.7809 -1.0420
15042SOL    HW246035   5.001   0.368   4.383 -0.2370 -0.9534 -0.1399
15043SOL     OW46036   5.153   4.934   0.710 -0.8081  0.3829  0.5607
15043SOL    HW146037   5.226   4.880   0.738 -1.0251  0.9791  2.3943
15043SOL    HW246038   5.082   4.871   0.692  0.1286 -0.2030 -1.3590
15044SOL     OW46039   4.795   4.966   3.465 -0.2481 -0.3691  0.0141
15044SOL    HW146040   4.805   5.061   3.468 -1.1105 -0.2850  2.4587
15044SOL    HW246041   4.854   4.934   3.533 -1.8603 -1.3379  1.0172
15045SOL     OW46042   5.407   4.320   0.444 -0.1801 -0.1514 -0.2632
15045SOL    HW146043   5.484   4.263   0.451 -0.0804 -0.0938 -0.8084
15045SOL    HW246044   5.416   4.381   0.517 -0.0866 -0.5933  0.0998
15046SOL     OW46045   6.967   2.193   1.241 -0.0024  0.2985  0.5433
15046SOL    HW146046   7.043   2.196   1.300  0.6682 -1.0996 -0.1913
15046SOL    HW246047   6.900   2.246   1.285  1.4717  1.8067  1.0751
15047SOL     OW46048   6.910   0.362   0.626  0.3806  0.2478  0.0899
15047SOL    HW146049   6.970   0.288   0.640  1.2380  0.9317  0.0803
15047SOL    HW246050   6.929   0.392   0.538 -0.4730  0.0525 -0.1781
15048SOL     OW46051   1.491   7.629   0.616  0.2582 -0.3073  0.1340
15048SOL    HW146052   1.574   7.667   0.644  0.9943 -1.9907  0.3142
15048SOL    HW246053   1.509   7.592   0.530 -0.2872 -0.7339  0.1977
15049SOL     OW46054   3.098   6.900   3.223  0.1512  0.1919 -0.5468
15049SOL    HW146055   3.154   6.839   3.176  0.3141 -0.1049  0.0224
15049SOL    HW246056   3.151   6.927   3.298 -0.6817 -0.5628  0.3405
15050SOL     OW46057   4.512   4.826   0.893  0.2771 -0.3906 -0.7994
15050SOL    HW146058   4.558   4.863   0.817 -0.1726  0.9926 -0.4202
15050SOL    HW246059   4.582   4.802   0.953  0.5885 -0.3136 -1.1262
15051SOL     OW46060   5.716   3.150   5.206 -0.1113 -0.6460 -0.4361
15051SOL    HW146061   5.631   3.115   5.178 -0.5490 -0.3247  0.4555
15051SOL    HW246062   5.700   3.244   5.216  0.3628 -0.5778 -0.3232
15052SOL     OW46063   7.510   6.166   0.012 -0.3649 -0.1767 -0.1932
15052SOL    HW146064   7.488   6.259   0.009  0.2677  0.0185  0.5973
15052SOL    HW246065   7.430   6.124   0.042  0.2594  0.5424  2.8487
15053SOL     OW46066   3.174   4.326   7.252  0.1069 -0.1917 -0.1871
15053SOL    HW146067   3.266   4.301   7.243  0.0811 -0.3616  0.0110
15053SOL    HW246068   3.169   4.414   7.213  0.4544  0.0209  0.2340
15054SOL     OW46069   2.026   5.892   0.234  0.3404  0.3168 -0.6183
15054SOL    HW146070   1.948   5.885   0.178 -0.4435 -0.4426  0.5236
15054SOL    HW246071   2.008   5.967   0.291  0.0153 -0.3856  0.2398
15055NA      NA46072   7.393   5.376   5.381  0.0026  0.1468 -0.0683
15056NA      NA46073   3.311   6.584   5.936  0.1025 -0.3742 -0.1372
15057NA      NA46074   5.007   3.335   1.907 -0.3097  0.1610 -0.1655
15058NA      NA46075   5.531   7.565   5.883  0.1957  0.6657  0.6647
15059NA      NA46076   2.238   7.326   3.873  0.1583  0.1800  0.0245
15060NA      NA46077   2.235   2.011   7.378  0.0526  0.1047 -0.2431
15061NA      NA46078   5.187   2.502   4.285  0.5063  0.4111  0.0690
15062NA      NA46079   3.239   7.648   2.805  0.2774  0.2743  0.0546
15063NA      NA46080   5.926   5.801   2.455  0.0344  0.5596 -0.2139
15064NA      NA46081   4.241   7.458   0.612  0.0518 -0.2132 -0.0057
15065NA      NA46082   0.143   2.217   0.737 -0.1056  0.1122  0.0231
15066NA      NA46083   0.717   2.819   2.004  0.6604 -0.1516  0.1709
15067NA      NA46084   4.008   3.158   0.774 -0.5219 -0.2781 -0.2953
15068NA      NA46085   2.480   3.825   1.474 -0.1050  0.5665 -0.0425
15069NA      NA46086   6.204   3.637   0.419 -0.2499  0.1225  0.0971
15070NA      NA46087   6.482   3.982   5.051 -0.6069 -0.5114 -0.5434
15071NA      NA46088   7.647   7.462   3.625  0.2551 -0.1444  0.2646
15072NA      NA46089   5.370   2.923   3.097  0.0018 -0.0725 -0.5817
15073NA      NA46090   3.321   3.393   1.462 -0.6281  0.3580  0.2002
15074NA      NA46091   5.864   0.018   1.612 -0.0408 -0.3359 -0.1184
15075NA      NA46092   1.901   3.279   1.725  0.2897 -0.4647  0.8266
15076NA      NA46093   4.717   0.660   7.445 -0.5729  0.3820  0.3735
15077NA      NA46094   1.304   4.586   2.505  0.0986 -0.4423  0.0242
15078NA      NA46095   2.019   3.919   6.711  0.1952  0.4700 -0.1030
15079NA      NA46096   2.611   1.583   0.226  0.2657 -0.2956 -0.0504
15080NA      NA46097   0.769   2.499   7.392 -0.0068 -0.0550  0.4102
15081NA      NA46098   4.160   6.727   7.293 -0.0787 -0.3731  0.0691
15082NA      NA46099   4.042   5.988   2.402  0.0883  0.5006 -0.3104
15083NA      NA46100   5.770   7.414   3.868  0.3368  0.5410  0.0493
15084NA      NA46101   7.254   2.501   3.312 -0.3489 -1.0541  0.4377
15085NA      NA46102   6.338   7.112   0.261  0.3567  0.8095  0.1277
15086NA      NA46103   4.583   2.303   5.668 -0.3721 -0.0594  0.0762
15087NA      NA46104   1.334   3.193   0.547  0.6673  0.1520  0.0864
15088NA      NA46105   3.874   6.240   5.281  0.2322 -0.4688 -0.3519
15089NA      NA46106   1.994   3.295   7.696 -0.4011  0.0919  0.1175
15090NA      NA46107   4.899   5.289   1.380  0.5118 -0.3605  1.0064
15091NA      NA46108   1.808   1.092   0.059  0.0241 -0.1410  0.3581
15092NA      NA46109   7.624   1.790   4.649  0.0237  0.0827  0.3241
15093NA      NA46110   0.545   4.156   1.279 -0.2021  0.3885 -0.5871
15094NA      NA46111   1.275   1.652   1.227 -0.4712  0.2480  0.1119
15095NA      NA46112   4.317   1.218   0.921  0.1797  0.0825  0.2640
15096NA      NA46113   4.879   0.393   1.406  0.0832  0.1291  0.4649
15097CL      CL46114   1.474   4.327   7.407 -0.3666  0.3467 -0.0052
15098CL      CL46115   5.447   1.215   0.221  0.3739 -0.1096 -0.3073
15099CL      CL46116   5.715   1.183   1.709  0.1202  0.2823  0.1007
15100CL      CL46117   0.468   7.225   3.791  0.3778  0.2047  0.1479
15101CL      CL46118   7.032   2.432   3.378  0.0878 -0.3695  0.4032
15102CL      CL46119   7.655   4.231   0.147 -0.2505 -0.0790 -0.1429
15103CL      CL46120   1.528   5.097   4.109  0.3613  0.1675  0.0326
15104CL      CL46121   2.463   0.768   6.495  0.6459 -0.0288 -0.7883
15105CL      CL46122   4.901   3.564   2.602 -0.0830 -0.1589 -0.1704
15106CL      CL46123   1.018   4.345   0.827  0.1213 -0.4018 -0.1415
15107CL      CL46124   5.881   6.893   6.726 -0.1607  0.1007 -0.1016
15108CL      CL46125   3.934   7.487   1.088 -0.0895  0.1451  0.1047
15109CL      CL46126   1.815   1.824   5.004 -0.4123 -0.5924 -0.1369
15110CL      CL46127   4.811   1.315   1.977 -0.1887  0.2664  0.1162
15111CL      CL46128   6.376   6.034   2.456  0.0083  0.2844  0.3542
15112CL      CL46129   3.737   0.576   7.236  0.2699 -0.2068  0.0842
15113CL      CL46130   6.459   3.144   0.517  0.3810 -0.0349  0.0412
15114CL      CL46131   4.089   6.009   4.545  0.0651 -0.5726 -0.2704
15115CL      CL46132   6.877   0.993   3.536  0.2340  0.1702  0.0300
15116CL      CL46133   5.542   3.159   0.053 -0.0999 -0.5816  0.3002
15117CL      CL46134   4.195   7.123   6.583  0.0441  0.1150  0.5266
15118CL      CL46135   0.819   7.406   5.068 -0.2893  0.0740 -0.2727
15119CL      CL46136   1.654   4.319   1.682 -0.1441  0.2666  0.2753
15120CL      CL46137   3.707   2.865   1.887  0.1272 -0.1512  0.0926
15121CL      CL46138   1.649   2.885   7.041  0.0237 -0.0646 -0.0971
15122CL      CL46139   6.119   7.625   7.624  0.5201 -0.2033 -0.0389
15123CL      CL46140   6.846   2.308   4.480 -0.2913  0.1927  0.0915
15124CL      CL46141   7.517   2.647   1.158 -0.3624 -0.4938 -0.4506
15125CL      CL46142   6.443   3.650   0.389 -0.1941 -0.0892  0.1539
15126CL      CL46143   5.361   5.383   2.771  0.1064  0.3516 -0.0874
15127CL      CL46144   1.479   4.109   6.506 -0.3252  0.4319 -0.0835
15128CL      CL46145   0.427   4.394   2.007 -0.4182 -0.1085  0.5526
15129CL      CL46146   4.840   7.673   0.719  0.0523 -0.5446 -0.1258
15130CL      CL46147   5.259   4.534   6.111 -0.0476 -0.0806 -0.2152
15131CL      CL46148   1.860   3.430   7.508 -0.4403 -0.0925 -0.0727
15132CL      CL46149   4.139   0.443   6.944  0.1045  0.0616 -0.0106
15133CL      CL46150   5.498   6.033   2.483 -0.1816 -0.2658 -0.4304
15134CL      CL46151   7.414   2.466   3.500  0.0335 -0.7184  0.0254
15135CL      CL46152   4.019   1.876   6.666 -0.1860 -0.7150 -0.1314
15136CL      CL46153   5.602   2.717   4.922 -0.1258  0.0416  0.1948
15137CL      CL46154   3.318   7.356   6.133 -0.4577  0.0961 -0.4625
15138CL      CL46155   4.525   3.092   1.451 -0.0261  0.2189  0.4770
   7.74658   7.74658   7.74658
